19
 energy: -386.001759759256 gnorm: 0.004741449891 xtb: 6.7.1 (edcfbbe)
C           -2.57880613354956        0.37150249059764        0.24511298180440
C           -2.00320714578423       -0.76177924917587        0.81614225782800
C           -0.69664236788089       -1.12242777273659        0.49069799124002
C            0.05349357518867       -0.36204650658465       -0.41136081988395
C           -0.53358976177230        0.77855641719328       -0.97364560425821
C           -1.83719185797711        1.14314256156684       -0.65024095726562
C            1.47165245778892       -0.73551369469455       -0.75166523221246
C            2.50828565978276        0.15449697032510       -0.06399252444023
O            2.44309266857462        0.07653985562493        1.37293854448774
H           -3.59860385162663        0.65022480991282        0.49183569858909
H           -2.57308724447252       -1.36960927970890        1.51357249604828
H           -0.25484464802646       -2.01074431365270        0.93586894805081
H            0.03655281062727        1.38189693461512       -1.67695671575663
H           -2.27852570784345        2.02756502248350       -1.10191260027750
H            1.66108846982411       -1.78059740981471       -0.47413387052750
H            1.63287718354344       -0.64723845204988       -1.83479937970086
H            3.51321465181842       -0.11863902448179       -0.41604446052447
H            2.33216438810700        1.20822773047425       -0.31570344206202
H            2.63546832547410       -0.84031917323444        1.62040709752553
19
 energy: -386.001797062478 gnorm: 0.001323188126 xtb: 6.7.1 (edcfbbe)
C           -2.57706470686034        0.37231163653021        0.24678031060308
C           -2.00123512463733       -0.76032474170993        0.81701895730913
C           -0.69534333140124       -1.12194819749223        0.48960635465375
C            0.05379945478681       -0.36295711906201       -0.41362264568118
C           -0.53387062079649        0.77646223712080       -0.97579777873571
C           -1.83685401287871        1.14171098519217       -0.65055024311231
C            1.47243305863447       -0.73485963752294       -0.75306508073898
C            2.50661752516375        0.15448120777387       -0.06301991460351
O            2.43719871149525        0.07420437919937        1.37170715750908
H           -3.59594470065449        0.65236703062566        0.49564598814540
H           -2.56995509133385       -1.36661203955151        1.51593385004580
H           -0.25270481072960       -2.00922416201664        0.93486518989514
H            0.03546182639221        1.37866118596053       -1.67971802731940
H           -2.27851235346352        2.02535263389432       -1.10185929055414
H            1.66301631118255       -1.77888878278746       -0.47679969978118
H            1.63534282911449       -0.64561120947973       -1.83455986873251
H            3.51297906236681       -0.11670574696332       -0.41053703383189
H            2.33031182862925        1.20640167296103       -0.31227881241551
H            2.62771580889697       -0.84158321170814        1.61637145767361
19
 energy: -386.001817287328 gnorm: 0.001965476307 xtb: 6.7.1 (edcfbbe)
C           -2.57263882699312        0.37378562686169        0.25012756619440
C           -1.99579866619579       -0.75774904976233        0.81999947008594
C           -0.69141991625412       -1.12111343084617        0.48834742931002
C            0.05496871435369       -0.36439301820515       -0.41856719564670
C           -0.53426431500980        0.77313461581853       -0.98143389159664
C           -1.83585526293189        1.13975561435609       -0.65199236668831
C            1.47418999288634       -0.73384015760354       -0.75734647381825
C            2.50205669015837        0.15494070880676       -0.05918484114998
O            2.42483370776078        0.06932029787073        1.37291113861423
H           -3.58966104969719        0.65631860505720        0.50361849846788
H           -2.56187918730471       -1.36150897889327        1.52263004843955
H           -0.24706735117784       -2.00706789423856        0.93369587243323
H            0.03293068963797        1.37303371298123       -1.68828515204958
H           -2.27859913651413        2.02221066328884       -1.10334053508300
H            1.66597758558903       -1.77751982226569       -0.48385318680186
H            1.63953570342806       -0.64109447944077       -1.83716385015723
H            3.51057638408007       -0.11352962183900       -0.40144451908817
H            2.32556749614136        1.20552290559373       -0.30618907973515
H            2.60993880833068       -0.84696770247467        1.61359299900421
19
 energy: -386.001839070072 gnorm: 0.001826138079 xtb: 6.7.1 (edcfbbe)
C           -2.56779115255203        0.37569006120828        0.25437165062858
C           -1.98919653894605       -0.75489807066818        0.82458516962651
C           -0.68689718342917       -1.12037466034367        0.48724759255095
C            0.05557738070026       -0.36631836074533       -0.42510160744840
C           -0.53566827415282        0.76934684065063       -0.98928866690156
C           -1.83537938037598        1.13794851311467       -0.65454467830768
C            1.47587749790316       -0.73238807867976       -0.76255049704984
C            2.49857596904577        0.15496508949334       -0.05462705340545
O            2.41132283146511        0.06332107582628        1.37589562728743
H           -3.58301325835682        0.66036194437831        0.51279444815536
H           -2.55206780316260       -1.35595653724707        1.53220144949752
H           -0.24053373881297       -2.00494202230154        0.93338617155394
H            0.02886287950704        1.36701098822560       -1.70021658802260
H           -2.27974236241262        2.01939085098791       -1.10636885682621
H            1.66873455330709       -1.77711607603171       -0.49351455416495
H            1.64486278052026       -0.63341302527556       -1.84120230621425
H            3.50994351065685       -0.11010841068066       -0.39173552225989
H            2.32152176849334        1.20617957488645       -0.29902610914178
H            2.58840300432397       -0.85546056854340        1.61381750619816
19
 energy: -386.001866307876 gnorm: 0.001997771419 xtb: 6.7.1 (edcfbbe)
C           -2.55136741964479        0.38165302277590        0.26876805294663
C           -1.96416063276173       -0.74365717725222        0.84178709926649
C           -0.66848011842690       -1.11463756729613        0.48554202953514
C            0.05904074115632       -0.37035331018511       -0.44775571950809
C           -0.54270226636530        0.75633216258626       -1.01940396496520
C           -1.83631091063294        1.13013412688937       -0.66609904641471
C            1.48187331234814       -0.72599766141874       -0.78355020441307
C            2.48656128802366        0.15320280681950       -0.03610958009450
O            2.36698083278688        0.03924206006255        1.39068426082488
H           -3.55957216263633        0.67365092019115        0.54645558410035
H           -2.51384343794580       -1.33396118486677        1.56938417682662
H           -0.21423362950317       -1.99380053924298        0.93513979845788
H            0.01036940237961        1.34458724987113       -1.74792204511650
H           -2.28796121191162        2.00673101897553       -1.12075170962284
H            1.67775947759353       -1.77633101555464       -0.53569107458650
H            1.66461667290705       -0.59901070204670       -1.85791637191814
H            3.50663061958634       -0.10262516872884       -0.35551044987572
H            2.31068417204332        1.20867230668571       -0.26861241757586
H            2.50750908699903       -0.89059034028864        1.61768904143048
19
 energy: -386.001877839505 gnorm: 0.000666296315 xtb: 6.7.1 (edcfbbe)
C           -2.55582468772098        0.38012734629295        0.26520005495506
C           -1.96900128777814       -0.74499417247798        0.83915515732601
C           -0.67209189695863       -1.11437224750682        0.48686978133077
C            0.05769040237994       -0.36842609544730       -0.44270931734206
C           -0.54293761633508        0.75927453883272       -1.01353845762124
C           -1.83785950968115        1.13145320052443       -0.66444459828407
C            1.48022270744535       -0.72556457823725       -0.77813839257604
C            2.49166305908688        0.15199820922762       -0.03974382160589
O            2.37950338292651        0.04219510053021        1.38828557700605
H           -3.56607637924495        0.66904239400388        0.53734433090968
H           -2.52117327308422       -1.33802557076162        1.56203343857357
H           -0.21897485496190       -1.99393976343021        0.93671460719165
H            0.01174350573207        1.34945604756243       -1.73883346451331
H           -2.28918772069351        2.00782256130550       -1.12008307177093
H            1.67497128790498       -1.77558817234150       -0.52910388141226
H            1.66013613376769       -0.60144163525225       -1.85289344390893
H            3.50900799344968       -0.10764391122256       -0.36347299216207
H            2.31647896116273        1.20739009828605       -0.27339578630100
H            2.52510314474855       -0.88552284561213        1.61688048084259
19
 energy: -386.001883992378 gnorm: 0.000385107114 xtb: 6.7.1 (edcfbbe)
C           -2.55785570151616        0.37898666210218        0.26366963295461
C           -1.96953694921070       -0.74446464855192        0.83938201587962
C           -0.67150298829823       -1.11155668859584        0.48927475969212
C            0.05797136805427       -0.36557807763762       -0.44048339811245
C           -0.54417838429229        0.76037232279443       -1.01312391021629
C           -1.84025287188734        1.13039116169401       -0.66605939974689
C            1.47980415553305       -0.72353136098368       -0.77764424755870
C            2.49406158098836        0.15042070331898       -0.03930877794781
O            2.38470125626257        0.03950359572913        1.38924308234517
H           -3.56908511519927        0.66610952268787        0.53418412261791
H           -2.52132393363236       -1.33753672212698        1.56251671240241
H           -0.21772808455220       -1.99017202251211        0.94025208136891
H            0.00977683580119        1.35049631019266       -1.73894071652849
H           -2.29271040045231        2.00541345442244       -1.12313364881028
H            1.67308231510628       -1.77454575887592       -0.53205154639874
H            1.65885783725020       -0.59665739354673       -1.85213441259485
H            3.50997635528556       -0.11212478814709       -0.36472845511866
H            2.32192006453054        1.20660523911438       -0.27111241750905
H            2.52741572238627       -0.88889117077129        1.61632402336801
19
 energy: -386.001893038805 gnorm: 0.001026537350 xtb: 6.7.1 (edcfbbe)
C           -2.56040205706613        0.37687749075254        0.26220879156618
C           -1.96511979432183       -0.73906055359322        0.84546235386735
C           -0.66582134875227       -1.10207456823142        0.49587435589420
C            0.05885152711696       -0.35890743918180       -0.44042157605868
C           -0.54956587005002        0.76090448139105       -1.01872055419920
C           -1.84733005801967        1.12641001054699       -0.67232759070163
C            1.48012452659880       -0.71589700111240       -0.78062521096345
C            2.49911166297631        0.14542887168923       -0.03391754122893
O            2.38880060248492        0.02479720283675        1.39470281568842
H           -3.57324714956843        0.65966635519072        0.53121702936925
H           -2.51351325413768       -1.33100665373428        1.57206236875639
H           -0.20774004929086       -1.97613002380256        0.95144267162697
H            0.00008628141544        1.34880963434538       -1.74972053396270
H           -2.30519455593024        1.99536118734902       -1.13554652369470
H            1.67019274156518       -1.77068202450754       -0.54875840456282
H            1.65922349752318       -0.57586367441591       -1.85357900025091
H            3.51334971587342       -0.12221250631870       -0.36041027569722
H            2.33476183493233        1.20460027082905       -0.25724824186809
H            2.51682428090372       -0.90778075542314        1.61442933357845
19
 energy: -386.001893745452 gnorm: 0.000979545578 xtb: 6.7.1 (edcfbbe)
C           -2.56028885042833        0.37601526757183        0.26277473403070
C           -1.95743285578321       -0.73246881056958        0.85289848315696
C           -0.65748991237892       -1.09166718391382        0.50205972694477
C            0.06023061241065       -0.35251782434305       -0.44311129565324
C           -0.55579647232405        0.75938737026887       -1.02861846758911
C           -1.85450057772914        1.12103565043975       -0.68111021204136
C            1.48119023606739       -0.70763834321460       -0.78642280996214
C            2.50136992238720        0.14040400667570       -0.02519976159683
O            2.38553281312087        0.00486043957498        1.40173163374112
H           -3.57408474055489        0.65520270705432        0.53219182839175
H           -2.49997464459248       -1.32060564504300        1.58728849185140
H           -0.19372295787678       -1.96000231719634        0.96296290716214
H           -0.01155230987950        1.34414010424783       -1.76625928533733
H           -2.31822383208094        1.98405331950555       -1.14973851063890
H            1.66881735501832       -1.76632259105887       -0.56965457869662
H            1.66227040657064       -0.55216416371129       -1.85714593197892
H            3.51520679993707       -0.12933054997053       -0.35172709446475
H            2.34361500631102        1.20302673143195       -0.23787076018650
H            2.49822626606451       -0.93216759526865        1.61107430680465
19
 energy: -386.001893745452 gnorm: 0.000979545578 xtb: 6.7.1 (edcfbbe)
C           -2.56028885042833        0.37601526757183        0.26277473403070
C           -1.95743285578321       -0.73246881056958        0.85289848315696
C           -0.65748991237892       -1.09166718391382        0.50205972694477
C            0.06023061241065       -0.35251782434305       -0.44311129565324
C           -0.55579647232405        0.75938737026887       -1.02861846758911
C           -1.85450057772914        1.12103565043975       -0.68111021204136
C            1.48119023606739       -0.70763834321460       -0.78642280996214
C            2.50136992238720        0.14040400667570       -0.02519976159683
O            2.38553281312087        0.00486043957498        1.40173163374112
H           -3.57408474055489        0.65520270705432        0.53219182839175
H           -2.49997464459248       -1.32060564504300        1.58728849185140
H           -0.19372295787678       -1.96000231719634        0.96296290716214
H           -0.01155230987950        1.34414010424783       -1.76625928533733
H           -2.31822383208094        1.98405331950555       -1.14973851063890
H            1.66881735501832       -1.76632259105887       -0.56965457869662
H            1.66227040657064       -0.55216416371129       -1.85714593197892
H            3.51520679993707       -0.12933054997053       -0.35172709446475
H            2.34361500631102        1.20302673143195       -0.23787076018650
H            2.49822626606451       -0.93216759526865        1.61107430680465
