      -----------------------------------------------------------      
     |                   =====================                   |     
     |                           x T B                           |     
     |                   =====================                   |     
     |                         S. Grimme                         |     
     |          Mulliken Center for Theoretical Chemistry        |     
     |                    University of Bonn                     |     
      -----------------------------------------------------------      

   * xtb version 6.7.1 (edcfbbe) compiled by 'albert@albert-system' on 2024-07-22

   xtb is free software: you can redistribute it and/or modify it under
   the terms of the GNU Lesser General Public License as published by
   the Free Software Foundation, either version 3 of the License, or
   (at your option) any later version.
   
   xtb is distributed in the hope that it will be useful,
   but WITHOUT ANY WARRANTY; without even the implied warranty of
   MERCHANTABILITY or FITNESS FOR A PARTICULAR PURPOSE.  See the
   GNU Lesser General Public License for more details.
   
   Cite this work as:
   * C. Bannwarth, E. Caldeweyher, S. Ehlert, A. Hansen, P. Pracht,
     J. Seibert, S. Spicher, S. Grimme, WIREs Comput. Mol. Sci., 2020, 11,
     e01493. DOI: 10.1002/wcms.1493
   
   for GFN2-xTB:
   * C. Bannwarth, S. Ehlert and S. Grimme., J. Chem. Theory Comput., 2019,
     15, 1652-1671. DOI: 10.1021/acs.jctc.8b01176
   for GFN1-xTB:
   * S. Grimme, C. Bannwarth, P. Shushkov, J. Chem. Theory Comput., 2017,
     13, 1989-2009. DOI: 10.1021/acs.jctc.7b00118
   for GFN0-xTB:
   * P. Pracht, E. Caldeweyher, S. Ehlert, S. Grimme, ChemRxiv, 2019, preprint.
     DOI: 10.26434/chemrxiv.8326202.v1
   for GFN-FF:
   * S. Spicher and S. Grimme, Angew. Chem. Int. Ed., 2020, 59, 15665-15673.
     DOI: 10.1002/anie.202004239
   
   for ALPB and GBSA implicit solvation:
   * S. Ehlert, M. Stahn, S. Spicher, S. Grimme, J. Chem. Theory Comput.,
     2021, 17, 4250-4261. DOI: 10.1021/acs.jctc.1c00471
   
   for ddCOSMO and CPCM-X implicit solvation:
   * M. Stahn, S. Ehlert, S. Grimme, J. Phys. Chem. A,
     2023, XX, XXXX-XXXX. DOI: 10.1021/acs.jpca.3c04382
   
   for DFT-D4:
   * E. Caldeweyher, C. Bannwarth and S. Grimme, J. Chem. Phys., 2017,
     147, 034112. DOI: 10.1063/1.4993215
   * E. Caldeweyher, S. Ehlert, A. Hansen, H. Neugebauer, S. Spicher,
     C. Bannwarth and S. Grimme, J. Chem. Phys., 2019, 150, 154122.
     DOI: 10.1063/1.5090222
   * E. Caldeweyher, J.-M. Mewes, S. Ehlert and S. Grimme, Phys. Chem. Chem. Phys.
     2020, 22, 8499-8512. DOI: 10.1039/D0CP00502A
   
   for sTDA-xTB:
   * S. Grimme and C. Bannwarth, J. Chem. Phys., 2016, 145, 054103.
     DOI: 10.1063/1.4959605
   
   in the mass-spec context:
   * V. Asgeirsson, C. Bauer and S. Grimme, Chem. Sci., 2017, 8, 4879.
     DOI: 10.1039/c7sc00601b
   * J. Koopman and S. Grimme, ACS Omega 2019, 4, 12, 15120-15133.
     DOI: 10.1021/acsomega.9b02011
   
   for metadynamics refer to:
   * S. Grimme, J. Chem. Theory Comput., 2019, 155, 2847-2862
     DOI: 10.1021/acs.jctc.9b00143
   
   for SPH calculations refer to:
   * S. Spicher and S. Grimme, J. Chem. Theory Comput., 2021, 17, 1701-1714
     DOI: 10.1021/acs.jctc.0c01306
   
   for ONIOM refer to:
   * C. Plett, A. Katbashev, S. Ehlert, S. Grimme, M. Bursch,
     Phys. Chem. Chem. Phys., 2023, 25, 17860-17868. DOI: 10.1039/D3CP02178E
   
   for DIPRO refer to:
   * J. Kohn, N. Gildemeister, S. Grimme, D. Fazzi, A. Hansen,
     J. Chem. Phys., 2023, just accepted.
   
   for PTB refer to:
   * S. Grimme, M. Mueller, A. Hansen, J. Chem. Phys., 2023, 158, 124111.
     DOI: 10.1063/5.0137838
   
   with help from (in alphabetical order)
   P. Atkinson, C. Bannwarth, F. Bohle, G. Brandenburg, E. Caldeweyher
   M. Checinski, S. Dohm, S. Ehlert, S. Ehrlich, I. Gerasimov, C. Hölzer
   A. Katbashev, J. Kohn, J. Koopman, C. Lavigne, S. Lehtola, F. März, M. Müller,
   F. Musil, H. Neugebauer, J. Pisarek, C. Plett, P. Pracht, F. Pultar,
   J. Seibert, P. Shushkov, S. Spicher, M. Stahn, M. Steiner, T. Strunk,
   J. Stückrath, T. Rose, and J. Unsleber
   
 * started run on 2025/04/11 at 11:51:21.683     
   ID    Z sym.   atoms
    1    6 C      1, 3-9
    2    8 O      2, 10, 11
    3   17 Cl     12, 13
    4    1 H      14-19

           -------------------------------------------------
          |                Calculation Setup                |
           -------------------------------------------------

          program call               : /srv/scratch/z5358697/.xtb/bin/xtb solv.coord --gfn2 --sp --chrg 0 --norestart --parallel 1 --alpb water reference -I xtb_sp-xcontrol-inp
          hostname                   : k061
          coordinate file            : solv.coord
          omp threads                :                     1


           -------------------------------------------------
          |                 G F N 2 - x T B                 |
           -------------------------------------------------

        Reference                      10.1021/acs.jctc.8b01176
      * Hamiltonian:
        H0-scaling (s, p, d)           1.850000    2.230000    2.230000
        zeta-weighting                 0.500000
      * Dispersion:
        s8                             2.700000
        a1                             0.520000
        a2                             5.000000
        s9                             5.000000
      * Repulsion:
        kExp                           1.500000    1.000000
        rExp                           1.000000
      * Coulomb:
        alpha                          2.000000
        third order                    shell-resolved
        anisotropic                    true
        a3                             3.000000
        a5                             4.000000
        cn-shift                       1.200000
        cn-exp                         4.000000
        max-rad                        5.000000

      * Solvation model:               ALPB
        Solvent                        water
        Parameter file                 internal GFN2-xTB/ALPB
        Dielectric constant                8.0200E+01
        Reference state                gsolv=reference [X=1]
        Free energy shift                  2.8945E-03 Eh       1.8164E+00 kcal/mol
        Temperature                        2.9815E+02 K
        Density                            1.0000E+00 kg/L
        Solvent mass                       1.8000E+01 g/mol
        Interaction kernel             P16
        Born radius scaling (c1)           1.4744E+00
        Born radii integrator          GBOBC
        Born offset                        0.0000E+00 a0       0.0000E+00 AA
        H-bond correction              true
        Ion screening                  false
        Surface tension                    1.0000E-05 Eh       1.5569E+01 dyn/cm
        Grid points                               974 per atom

          ...................................................
          :                      SETUP                      :
          :.................................................:
          :  # basis functions                  70          :
          :  # atomic orbitals                  68          :
          :  # shells                           34          :
          :  # electrons                        70          :
          :  max. iterations                   250          :
          :  Hamiltonian                  GFN2-xTB          :
          :  restarted?                      false          :
          :  GBSA solvation                   true          :
          :  PC potential                    false          :
          :  electronic temp.          300.0000000     K    :
          :  accuracy                    1.0000000          :
          :  -> integral cutoff          0.2500000E+02      :
          :  -> integral neglect         0.1000000E-07      :
          :  -> SCF convergence          0.1000000E-05 Eh   :
          :  -> wf. convergence          0.1000000E-03 e    :
          :  Broyden damping             0.4000000          :
          :  net charge                          0          :
          :  unpaired electrons                  0          :
          ...................................................

 iter      E             dE          RMSdq      gap      omega  full diag
   1    -41.8412146 -0.418412E+02  0.556E+00    3.40       0.0  T
   2    -41.8967843 -0.555697E-01  0.302E+00    3.26       1.0  T
   3    -41.8941822  0.260203E-02  0.136E+00    3.20       1.0  T
   4    -41.9029211 -0.873889E-02  0.360E-01    3.27       1.0  T
   5    -41.9037515 -0.830341E-03  0.131E-01    3.25       1.0  T
   6    -41.9038100 -0.585492E-04  0.880E-02    3.25       1.0  T
   7    -41.9038367 -0.267046E-04  0.502E-02    3.25       1.0  T
   8    -41.9038487 -0.120188E-04  0.370E-02    3.24       1.0  T
   9    -41.9038580 -0.926639E-05  0.169E-02    3.24       1.4  T
  10    -41.9038598 -0.176924E-05  0.690E-03    3.24       3.3  T
  11    -41.9038601 -0.335196E-06  0.380E-03    3.24       6.0  T
  12    -41.9038602 -0.760476E-07  0.209E-03    3.24      11.0  T
  13    -41.9038602 -0.215218E-07  0.124E-03    3.24      18.5  T
  14    -41.9038602 -0.786358E-08  0.860E-04    3.24      26.7  T
  15    -41.9038602 -0.538559E-08  0.393E-04    3.24      58.3  T

   *** convergence criteria satisfied after 15 iterations ***

         #    Occupation            Energy/Eh            Energy/eV
      -------------------------------------------------------------
         1        2.0000           -1.0717969             -29.1651
       ...           ...                  ...                  ...
        29        2.0000           -0.4485452             -12.2055
        30        2.0000           -0.4468833             -12.1603
        31        2.0000           -0.4424911             -12.0408
        32        2.0000           -0.4340200             -11.8103
        33        2.0000           -0.4280162             -11.6469
        34        2.0000           -0.4169815             -11.3466
        35        2.0000           -0.4024873             -10.9522 (HOMO)
        36                         -0.2833992              -7.7117 (LUMO)
        37                         -0.2583718              -7.0307
        38                         -0.2278171              -6.1992
        39                         -0.1604800              -4.3669
        40                         -0.1528305              -4.1587
       ...                                ...                  ...
        68                          0.6400686              17.4172
      -------------------------------------------------------------
                  HL-Gap            0.1190882 Eh            3.2406 eV
             Fermi-level           -0.3429432 Eh           -9.3320 eV

 SCC (total)                   0 d,  0 h,  0 min,  0.039 sec
 SCC setup                      ...        0 min,  0.001 sec (  3.558%)
 Dispersion                     ...        0 min,  0.000 sec (  0.358%)
 classical contributions        ...        0 min,  0.000 sec (  0.066%)
 integral evaluation            ...        0 min,  0.008 sec ( 19.893%)
 iterations                     ...        0 min,  0.020 sec ( 50.201%)
 molecular gradient             ...        0 min,  0.010 sec ( 25.388%)
 printout                       ...        0 min,  0.000 sec (  0.481%)

         :::::::::::::::::::::::::::::::::::::::::::::::::::::
         ::                     SUMMARY                     ::
         :::::::::::::::::::::::::::::::::::::::::::::::::::::
         :: total energy             -41.504556193509 Eh    ::
         :: total w/o Gsasa/hb       -41.498814289774 Eh    ::
         :: gradient norm              0.000189194478 Eh/a0 ::
         :: HOMO-LUMO gap              3.240554062619 eV    ::
         ::.................................................::
         :: SCC energy               -41.903729819623 Eh    ::
         :: -> isotropic ES            0.090615408287 Eh    ::
         :: -> anisotropic ES         -0.004086097295 Eh    ::
         :: -> anisotropic XC          0.002996193307 Eh    ::
         :: -> dispersion             -0.021067123690 Eh    ::
         :: -> Gsolv                  -0.021551749527 Eh    ::
         ::    -> Gelec               -0.015809845792 Eh    ::
         ::    -> Gsasa                0.001877696183 Eh    ::
         ::    -> Ghb                 -0.010514149079 Eh    ::
         ::    -> Gshift               0.002894549160 Eh    ::
         :: repulsion energy           0.399173626114 Eh    ::
         :: add. restraining           0.000000000000 Eh    ::
         :: total charge               0.000000000000 e     ::
         :::::::::::::::::::::::::::::::::::::::::::::::::::::

           -------------------------------------------------
          |                Property Printout                |
           -------------------------------------------------

    * Orbital Energies and Occupations

         #    Occupation            Energy/Eh            Energy/eV
      -------------------------------------------------------------
         1        2.0000           -1.0717969             -29.1651
       ...           ...                  ...                  ...
        23        2.0000           -0.5099022             -13.8751
        24        2.0000           -0.4885291             -13.2936
        25        2.0000           -0.4882227             -13.2852
        26        2.0000           -0.4812655             -13.0959
        27        2.0000           -0.4785628             -13.0224
        28        2.0000           -0.4718329             -12.8392
        29        2.0000           -0.4485452             -12.2055
        30        2.0000           -0.4468833             -12.1603
        31        2.0000           -0.4424911             -12.0408
        32        2.0000           -0.4340200             -11.8103
        33        2.0000           -0.4280162             -11.6469
        34        2.0000           -0.4169815             -11.3466
        35        2.0000           -0.4024873             -10.9522 (HOMO)
        36                         -0.2833992              -7.7117 (LUMO)
        37                         -0.2583718              -7.0307
        38                         -0.2278171              -6.1992
        39                         -0.1604800              -4.3669
        40                         -0.1528305              -4.1587
        41                         -0.1339515              -3.6450
        42                         -0.0053291              -0.1450
        43                         -0.0029406              -0.0800
        44                          0.0023619               0.0643
        45                          0.0029791               0.0811
        46                          0.0046101               0.1254
       ...                                ...                  ...
        68                          0.6400686              17.4172
      -------------------------------------------------------------
                  HL-Gap            0.1190882 Eh            3.2406 eV
             Fermi-level           -0.3429432 Eh           -9.3320 eV

     #   Z          covCN         q      C6AA      α(0)
     1   6 C        3.639     0.014    20.699     6.544
     2   8 O        1.702    -0.291    18.839     5.860
     3   6 C        2.888     0.152    24.698     8.148
     4   6 C        2.883     0.071    26.412     8.425
     5   6 C        2.960    -0.037    28.924     8.821
     6   6 C        2.956    -0.047    29.169     8.859
     7   6 C        2.886     0.105    25.668     8.306
     8   6 C        3.005    -0.046    29.122     8.852
     9   6 C        2.695     0.385    20.484     7.407
    10   8 O        0.856    -0.475    23.244     6.464
    11   8 O        1.659    -0.393    20.711     6.144
    12  17 Cl       0.967    -0.164   104.298    15.624
    13  17 Cl       0.961    -0.161   104.196    15.617
    14   1 H        0.925     0.082     1.959     2.189
    15   1 H        0.924     0.079     1.991     2.207
    16   1 H        0.925     0.067     2.115     2.274
    17   1 H        0.926     0.115     1.651     2.009
    18   1 H        0.926     0.116     1.643     2.004
    19   1 H        0.803     0.427     0.439     1.040

 Mol. C6AA /au·bohr⁶  :       6702.604877
 Mol. C8AA /au·bohr⁸  :     190191.400671
 Mol. α(0) /au        :        126.793866


Wiberg/Mayer (AO) data.
largest (>0.10) Wiberg bond orders for each atom

 ---------------------------------------------------------------------------
     #   Z sym  total        # sym  WBO       # sym  WBO       # sym  WBO
 ---------------------------------------------------------------------------
     1   6 C    3.910 --    16 H    0.980    14 H    0.979    15 H    0.974
                             2 O    0.933
     2   8 O    2.176 --     3 C    1.076     1 C    0.933
     3   6 C    3.955 --     4 C    1.338     8 C    1.325     2 O    1.076
     4   6 C    3.918 --     5 C    1.407     3 C    1.338    13 Cl   0.976
     5   6 C    3.979 --     6 C    1.434     4 C    1.407    17 H    0.956
     6   6 C    3.976 --     5 C    1.434     7 C    1.398    18 H    0.956
     7   6 C    3.919 --     6 C    1.398     8 C    1.369    12 Cl   0.984
     8   6 C    3.982 --     7 C    1.369     3 C    1.325     9 C    0.978
     9   6 C    3.920 --    10 O    1.697    11 O    1.199     8 C    0.978
    10   8 O    1.984 --     9 C    1.697    11 O    0.182
    11   8 O    2.209 --     9 C    1.199    19 H    0.793    10 O    0.182
    12  17 Cl   1.124 --     7 C    0.984
    13  17 Cl   1.117 --     4 C    0.976
    14   1 H    0.993 --     1 C    0.979
    15   1 H    0.993 --     1 C    0.974
    16   1 H    0.995 --     1 C    0.980
    17   1 H    0.986 --     5 C    0.956
    18   1 H    0.986 --     6 C    0.956
    19   1 H    0.817 --    11 O    0.793
 ---------------------------------------------------------------------------

Topologies differ in total number of bonds
Writing topology from bond orders to xtbtopo.mol

molecular dipole:
                 x           y           z       tot (Debye)
 q only:        1.197      -0.184       1.369
   full:        1.065      -0.380       1.199       4.190
molecular quadrupole (traceless):
                xx          xy          yy          xz          yz          zz
 q only:      -15.099       5.448      18.216      -3.964      -6.331      -3.117
  q+dip:      -10.366       7.322      16.560      -5.523      -5.785      -6.194
   full:      -10.384       5.983      14.726      -5.595      -6.142      -4.342


           -------------------------------------------------
          | TOTAL ENERGY              -41.504556193509 Eh   |
          | GRADIENT NORM               0.000189194478 Eh/α |
          | HOMO-LUMO GAP               3.240554062619 eV   |
           -------------------------------------------------

------------------------------------------------------------------------
 * finished run on 2025/04/11 at 11:51:21.777     
------------------------------------------------------------------------
 total:
 * wall-time:     0 d,  0 h,  0 min,  0.093 sec
 *  cpu-time:     0 d,  0 h,  0 min,  0.049 sec
 * ratio c/w:     0.531 speedup
 SCF:
 * wall-time:     0 d,  0 h,  0 min,  0.039 sec
 *  cpu-time:     0 d,  0 h,  0 min,  0.039 sec
 * ratio c/w:     0.978 speedup

