
                                 *****************
                                 * O   R   C   A *
                                 *****************

                                            #,                                       
                                            ###                                      
                                            ####                                     
                                            #####                                    
                                            ######                                   
                                           ########,                                 
                                     ,,################,,,,,                         
                               ,,#################################,,                 
                          ,,##########################################,,             
                       ,#########################################, ''#####,          
                    ,#############################################,,   '####,        
                  ,##################################################,,,,####,       
                ,###########''''           ''''###############################       
              ,#####''   ,,,,##########,,,,          '''####'''          '####       
            ,##' ,,,,###########################,,,                        '##       
           ' ,,###''''                  '''############,,,                           
         ,,##''                                '''############,,,,        ,,,,,,###''
      ,#''                                            '''#######################'''  
     '                                                          ''''####''''         
             ,#######,   #######,   ,#######,      ##                                
            ,#'     '#,  ##    ##  ,#'     '#,    #''#        ,####,   ,####,        
            ##       ##  ##   ,#'  ##            #'  '#       #'       #'  '#        
            ##       ##  #######   ##           ,######,      #####,   #    #        
            '#,     ,#'  ##    ##  '#,     ,#' ,#      #,     #,   #   #,  ,#        
             '#######'   ##     ##  '#######'  #'      '#     '####' # '####'        



                #########################################################
                #                        -***-                          #
                #          Department of theory and spectroscopy        #
                #                                                       #
                #                      Frank Neese                      #
                #                                                       #
                #     Directorship, Architecture, Infrastructure        #
                #                    SHARK, DRIVERS                     #
                #        Core code/Algorithms in most modules           #
                #                                                       #
                #        Max Planck Institute fuer Kohlenforschung      #
                #                Kaiser Wilhelm Platz 1                 #
                #                 D-45470 Muelheim/Ruhr                 #
                #                      Germany                          #
                #                                                       #
                #                  All rights reserved                  #
                #                        -***-                          #
                #########################################################


                         Program Version 6.0.0  -   RELEASE  -


 With contributions from (in alphabetic order):
   Daniel Aravena         : Magnetic Suceptibility
   Michael Atanasov       : Ab Initio Ligand Field Theory (pilot matlab implementation)
   Alexander A. Auer      : GIAO ZORA, VPT2 properties, NMR spectrum
   Ute Becker             : All parallelization in ORCA, NUMFREQ, NUMCALC
   Giovanni Bistoni       : ED, misc. LED, open-shell LED, HFLD
   Martin Brehm           : Molecular dynamics
   Dmytro Bykov           : pre 5.0 version of the SCF Hessian
   Marcos Casanova-Páez   : Triplet and SCS-CIS(D). UHF-(DLPNO)-IP/EA/STEOM-CCSD. UHF-CVS-IP/STEOM-CCSD
   Vijay G. Chilkuri      : MRCI spin determinant printing, contributions to CSF-ICE
   Pauline Colinet        : FMM embedding
   Dipayan Datta          : RHF DLPNO-CCSD density
   Achintya Kumar Dutta   : EOM-CC, STEOM-CC
   Nicolas Foglia         : Exact transition moments, OPA infrastructure, MCD improvements
   Dmitry Ganyushin       : Spin-Orbit,Spin-Spin,Magnetic field MRCI
   Miquel Garcia          : C-PCM and meta-GGA Hessian, CCSD/C-PCM, Gaussian charge scheme
   Tiago L. C. Gouveia    : GS-ROHF, GS-ROCIS
   Yang Guo               : DLPNO-NEVPT2, F12-NEVPT2, CIM, IAO-localization
   Andreas Hansen         : Spin unrestricted coupled pair/coupled cluster methods
   Ingolf Harden          : AUTO-CI MPn and infrastructure 
   Benjamin Helmich-Paris : MC-RPA, TRAH-(SCF,CASSCF), AVAS, COSX integrals, SCF dyn. polar.
   Lee Huntington         : MR-EOM, pCC
   Robert Izsak           : Overlap fitted RIJCOSX, COSX-SCS-MP3, EOM
   Riya Kayal             : Wick's Theorem for AUTO-CI, AUTO-CI UHF-CCSDT
   Emily Kempfer          : AUTO-CI, RHF CISDT and CCSDT
   Christian Kollmar      : KDIIS, OOCD, Brueckner-CCSD(T), CCSD density, CASPT2, CASPT2-K, improved NEVPT2
   Axel Koslowski         : Symmetry handling
   Simone Kossmann        : Meta GGA functionals, TD-DFT gradient, OOMP2, (MP2 Hessian; deprecated post 5.0)
   Lucas Lang             : DCDCAS
   Marvin Lechner         : AUTO-CI (C++ implementation), FIC-MRCC
   Spencer Leger          : CASSCF response
   Dagmar Lenk            : GEPOL surface, SMD, ORCA-2-JSON
   Dimitrios Liakos       : Extrapolation schemes; Compound Job, initial MDCI parallelization
   Dimitrios Manganas     : Further ROCIS development; embedding schemes. LFT, Crystal Embedding
   Dimitrios Pantazis     : SARC Basis sets
   Anastasios Papadopoulos: AUTO-CI, single reference methods and gradients
   Taras Petrenko         : pre 6.0 DFT Hessian and TD-DFT gradient, (ASA, deprecated), ECA, 1-Electron XAS/XES, NRVS
   Peter Pinski           : DLPNO-MP2, DLPNO-MP2 Gradient
   Christoph Reimann      : Effective Core Potentials
   Marius Retegan         : Local ZFS, SOC
   Christoph Riplinger    : Optimizer, TS searches, QM/MM, DLPNO-CCSD(T), (RO)-DLPNO pert. Triples
   Michael Roemelt        : Original ROCIS implementation
   Masaaki Saitow         : Open-shell DLPNO-CCSD energy and density
   Barbara Sandhoefer     : DKH picture change effects
   Kantharuban Sivalingam : CASSCF convergence/infrastructure, NEVPT2 and variants, FIC-MRCI
   Bernardo de Souza      : ESD, SOC TD-DFT
   Georgi Stoychev        : AutoAux, RI-MP2 NMR, DLPNO-MP2 response, X2C
   Van Anh Tran           : RI-MP2 g-tensors
   Willem Van den Heuvel  : Paramagnetic NMR
   Zikuan Wang            : NOTCH, Electric field optimization 
   Frank Wennmohs         : Technical directorship and infrastructure
   Hang Xu                : AUTO-CI-Response properties 


 We gratefully acknowledge several colleagues who have allowed us to
 interface, adapt or use parts of their codes:
   Stefan Grimme, W. Hujo, H. Kruse, P. Pracht,  : VdW corrections, initial TS optimization,
                  C. Bannwarth, S. Ehlert,         DFT functionals, gCP, sTDA/sTD-DF
                  L. Wittmann, M. Mueller
   Ed Valeev, F. Pavosevic, A. Kumar             : LibInt (2-el integral package), F12 methods
   Garnet Chan, S. Sharma, J. Yang, R. Olivares  : DMRG
   Ulf Ekstrom                                   : XCFun DFT Library
   Mihaly Kallay                                 : mrcc  (arbitrary order and MRCC methods)
   Frank Weinhold                                : gennbo (NPA and NBO analysis)
   Simon Mueller                                 : openCOSMO-RS
   Christopher J. Cramer and Donald G. Truhlar   : smd solvation model
   Lars Goerigk                                  : TD-DFT with DH, B97 family of functionals
   V. Asgeirsson, H. Jonsson                     : NEB implementation
   FAccTs GmbH                                   : IRC, NEB, NEB-TS, DLPNO-Multilevel, CI-OPT
                                                   MM, QMMM, 2- and 3-layer-ONIOM, Crystal-QMMM,
                                                   LR-CPCM, SF, NACMEs, symmetry and pop. for TD-DFT,
                                                   nearIR, NL-DFT gradient (VV10), updates on ESD,
                                                   ML-optimized integration grids, MBIS, APM,
                                                   GOAT, DOCKER, SOLVATOR, interface openCOSMO-RS
   S Lehtola, MJT Oliveira, MAL Marques          : LibXC Library
   Liviu Ungur et al                             : ANISO software


 Your calculation uses the libint2 library for the computation of 2-el integrals
 For citations please refer to: http://libint.valeyev.net

 Your ORCA version has been built with support for libXC version: 6.2.2
 For citations please refer to: https://libxc.gitlab.io

 This ORCA versions uses:
   CBLAS   interface :  Fast vector & matrix operations
   LAPACKE interface :  Fast linear algebra routines
   SCALAPACK package :  Parallel linear algebra routines
   Shared memory     :  Shared parallel matrices
   BLAS/LAPACK       :  OpenBLAS 0.3.27  USE64BITINT DYNAMIC_ARCH NO_AFFINITY SkylakeX SINGLE_THREADED
        Core in use  :  SkylakeX
   Copyright (c) 2011-2014, The OpenBLAS Project


Your calculation utilizes the geometrical counterpoise correction gCP
Please cite in your paper:
H.Kruse, S. Grimme J.Chem.Phys., 136, (2012), 154101 
   

Your calculation utilizes the DFT-NL dispersion correction.
Cite in your paper:
Vydrov, O. A.; Van Voorhis, T. J. Chem. Phys. 2010, 133, 244103
Hujo, W.; Grimme, S. J. Chem. Theory Comput. 2011, 7, 3866 
   

Your calculation utilizes the SMD solvation module
Please cite in your paper:
A.V. Marenich, C.J. Cramer, D.G. Truhlar J. Phys. Chem. B, 113, (2009), 6378 

================================================================================

----- Orbital basis set information -----
Your calculation utilizes the basis: def2-TZVP
   F. Weigend and R. Ahlrichs, Phys. Chem. Chem. Phys. 7, 3297 (2005).

----- AuxJ basis set information -----
Your calculation utilizes the auxiliary basis: def2/J
   F. Weigend, Phys. Chem. Chem. Phys. 8, 1057 (2006).

================================================================================
                                        WARNINGS
                       Please study these warnings very carefully!
================================================================================


================================================================================
                                       INPUT FILE
================================================================================
NAME = sp_solv.inp
|  1> ! wb97x-v def2-tzvp def2/J RIJCOSX DEFGRID2 scfconv7 GCP(DFT/TZ) printgap
|  2> %output
|  3>     printlevel normal
|  4> end
|  5> %cpcm
|  6>     smd true
|  7>     smdsolvent "water"
|  8> end
|  9> * xyz 0 1
| 10> C -2.5419817099980766 0.08092247264149 -0.5470057016232103
| 11> C -1.971768424073927 -1.1625705833653923 -0.2781459671251446
| 12> C -0.6935378999277733 -1.2426035544403509 0.26744579682429687
| 13> C 0.03651876568857865 -0.08446360886696754 0.555424579314413
| 14> C -0.5445688431579423 1.1563837758872149 0.27957155395854744
| 15> C -1.823491427936143 1.2407427414414685 -0.2674498156901831
| 16> C 1.4354342704509722 -0.17993805498297766 1.1010690169954864
| 17> C 2.4735821572788566 -0.4738039235549433 0.017162437955506676
| 18> O 2.5143474873114333 0.5371659874876156 -1.00274805672029
| 19> H -3.540237739618861 0.14448162635709036 -0.9686534433648967
| 20> H -2.5266981441633116 -2.0717185129912985 -0.48958723551675676
| 21> H -0.2549291819512609 -2.215194854647533 0.47640921985783335
| 22> H 0.01083418879708286 2.0643242739175256 0.49944318102624574
| 23> H -2.259617576378013 2.2139254851012615 -0.4722913826535058
| 24> H 1.7069988684855524 0.7547133127976896 1.6060048959108377
| 25> H 1.4982509405732212 -0.9867531501138963 1.8410826212494789
| 26> H 3.4632001347788797 -0.5866722623179986 0.48065995497216846
| 27> H 2.2278262874596173 -1.4080859089330624 -0.4978855852250675
| 28> H 2.745099998996773 1.3717308745758559 -0.5731700551923558
| 29> *
| 30> 
| 31>                          ****END OF INPUT****
================================================================================

                       ****************************
                       * Single Point Calculation *
                       ****************************

---------------------------------
CARTESIAN COORDINATES (ANGSTROEM)
---------------------------------
  C     -2.541982    0.080922   -0.547006
  C     -1.971768   -1.162571   -0.278146
  C     -0.693538   -1.242604    0.267446
  C      0.036519   -0.084464    0.555425
  C     -0.544569    1.156384    0.279572
  C     -1.823491    1.240743   -0.267450
  C      1.435434   -0.179938    1.101069
  C      2.473582   -0.473804    0.017162
  O      2.514347    0.537166   -1.002748
  H     -3.540238    0.144482   -0.968653
  H     -2.526698   -2.071719   -0.489587
  H     -0.254929   -2.215195    0.476409
  H      0.010834    2.064324    0.499443
  H     -2.259618    2.213925   -0.472291
  H      1.706999    0.754713    1.606005
  H      1.498251   -0.986753    1.841083
  H      3.463200   -0.586672    0.480660
  H      2.227826   -1.408086   -0.497886
  H      2.745100    1.371731   -0.573170

----------------------------
CARTESIAN COORDINATES (A.U.)
----------------------------
  NO LB      ZA    FRAG     MASS         X           Y           Z
   0 C     6.0000    0    12.011   -4.803649    0.152921   -1.033691
   1 C     6.0000    0    12.011   -3.726102   -2.196940   -0.525620
   2 C     6.0000    0    12.011   -1.310597   -2.348180    0.505399
   3 C     6.0000    0    12.011    0.069010   -0.159613    1.049600
   4 C     6.0000    0    12.011   -1.029086    2.185249    0.528314
   5 C     6.0000    0    12.011   -3.445899    2.344664   -0.505407
   6 C     6.0000    0    12.011    2.712578   -0.340034    2.080719
   7 C     6.0000    0    12.011    4.674393   -0.895360    0.032432
   8 O     8.0000    0    15.999    4.751428    1.015097   -1.894919
   9 H     1.0000    0     1.008   -6.690080    0.273031   -1.830490
  10 H     1.0000    0     1.008   -4.774768   -3.914981   -0.925186
  11 H     1.0000    0     1.008   -0.481746   -4.186112    0.900283
  12 H     1.0000    0     1.008    0.020474    3.901008    0.943811
  13 H     1.0000    0     1.008   -4.270058    4.183713   -0.892501
  14 H     1.0000    0     1.008    3.225760    1.426201    3.034909
  15 H     1.0000    0     1.008    2.831284   -1.864693    3.479142
  16 H     1.0000    0     1.008    6.544500   -1.108650    0.908316
  17 H     1.0000    0     1.008    4.209982   -2.660897   -0.940867
  18 H     1.0000    0     1.008    5.187487    2.592196   -1.083134

--------------------------------
INTERNAL COORDINATES (ANGSTROEM)
--------------------------------
 C      0   0   0     0.000000000000     0.00000000     0.00000000
 C      1   0   0     1.394167754833     0.00000000     0.00000000
 C      2   1   0     1.392102338985   120.15898027     0.00000000
 C      3   2   1     1.399000588888   120.81301876     0.07705777
 C      4   3   2     1.397662310075   118.51351126   359.82062558
 C      1   2   3     1.392681885678   119.54303395     0.07436458
 C      4   3   2     1.504595564163   120.48471341   182.09875622
 C      7   4   3     1.529366422975   112.72457362    79.36460601
 O      8   7   4     1.436641705616   112.77986354    59.99323538
 H      1   2   3     1.085514479319   120.21547827   180.25083517
 H      2   1   3     1.085911765366   120.01185266   179.69091462
 H      3   2   1     1.087187728449   119.81451517   179.89847923
 H      5   4   3     1.086817375762   119.29358895   179.92410906
 H      6   1   2     1.085933118322   120.08404144   180.07156218
 H      7   4   3     1.096485636940   110.07106384   201.01566387
 H      7   4   3     1.096593209106   110.16197156   319.49922696
 H      8   7   4     1.098595900032   109.40244200   183.09085973
 H      8   7   4     1.094784564165   110.18339490   301.97559153
 H      9   8   7     0.966582915122   107.38865307    60.40418626

---------------------------
INTERNAL COORDINATES (A.U.)
---------------------------
 C      0   0   0     0.000000000000     0.00000000     0.00000000
 C      1   0   0     2.634595241378     0.00000000     0.00000000
 C      2   1   0     2.630692171073   120.15898027     0.00000000
 C      3   2   1     2.643727974192   120.81301876     0.07705777
 C      4   3   2     2.641198993746   118.51351126   359.82062558
 C      1   2   3     2.631787355605   119.54303395     0.07436458
 C      4   3   2     2.843273558580   120.48471341   182.09875622
 C      7   4   3     2.890083697837   112.72457362    79.36460601
 O      8   7   4     2.714859376184   112.77986354    59.99323538
 H      1   2   3     2.051325080319   120.21547827   180.25083517
 H      2   1   3     2.052075842145   120.01185266   179.69091462
 H      3   2   1     2.054487062928   119.81451517   179.89847923
 H      5   4   3     2.053787197777   119.29358895   179.92410906
 H      6   1   2     2.052116193383   120.08404144   180.07156218
 H      7   4   3     2.072057563595   110.07106384   201.01566387
 H      7   4   3     2.072260845528   110.16197156   319.49922696
 H      8   7   4     2.076045382909   109.40244200   183.09085973
 H      8   7   4     2.068843001917   110.18339490   301.97559153
 H      9   8   7     1.826576995309   107.38865307    60.40418626

---------------------
BASIS SET INFORMATION
---------------------
There are 3 groups of distinct atoms

 Group   1 Type C   : 11s6p2d1f contracted to 5s3p2d1f pattern {62111/411/11/1}
 Group   2 Type O   : 11s6p2d1f contracted to 5s3p2d1f pattern {62111/411/11/1}
 Group   3 Type H   : 5s1p contracted to 3s1p pattern {311/1}

Atom   0C    basis set group =>   1
Atom   1C    basis set group =>   1
Atom   2C    basis set group =>   1
Atom   3C    basis set group =>   1
Atom   4C    basis set group =>   1
Atom   5C    basis set group =>   1
Atom   6C    basis set group =>   1
Atom   7C    basis set group =>   1
Atom   8O    basis set group =>   2
Atom   9H    basis set group =>   3
Atom  10H    basis set group =>   3
Atom  11H    basis set group =>   3
Atom  12H    basis set group =>   3
Atom  13H    basis set group =>   3
Atom  14H    basis set group =>   3
Atom  15H    basis set group =>   3
Atom  16H    basis set group =>   3
Atom  17H    basis set group =>   3
Atom  18H    basis set group =>   3
---------------------------------
AUXILIARY/J BASIS SET INFORMATION
---------------------------------
There are 3 groups of distinct atoms

 Group   1 Type C   : 12s5p4d2f1g contracted to 6s4p3d1f1g pattern {711111/2111/211/2/1}
 Group   2 Type O   : 12s5p4d2f1g contracted to 6s4p3d1f1g pattern {711111/2111/211/2/1}
 Group   3 Type H   : 5s2p1d contracted to 3s1p1d pattern {311/2/1}

Atom   0C    basis set group =>   1
Atom   1C    basis set group =>   1
Atom   2C    basis set group =>   1
Atom   3C    basis set group =>   1
Atom   4C    basis set group =>   1
Atom   5C    basis set group =>   1
Atom   6C    basis set group =>   1
Atom   7C    basis set group =>   1
Atom   8O    basis set group =>   2
Atom   9H    basis set group =>   3
Atom  10H    basis set group =>   3
Atom  11H    basis set group =>   3
Atom  12H    basis set group =>   3
Atom  13H    basis set group =>   3
Atom  14H    basis set group =>   3
Atom  15H    basis set group =>   3
Atom  16H    basis set group =>   3
Atom  17H    basis set group =>   3
Atom  18H    basis set group =>   3

Checking for AutoStart:
The File: sp_solv.gbw exists
Trying to determine its content:
     ... Fine, the file contains calculation information
     ... Fine, the calculation information was read
     ... Fine, the file contains a basis set
     ... Fine, the basis set was read
     ... Fine, the file contains a geometry
     ... Fine, the geometry was read
     ... Fine, the file contains a set of orbitals
     ... Fine, the orbitals can be read
     => possible old guess file was deleted
     => GBW file was renamed to GES file
     => GES file is set as startup file
     => Guess is set to MORead
     ... now leaving AutoStart

------------------------------------------------------------------------------
                             ORCA STARTUP CALCULATIONS
                           -- RI-GTO INTEGRALS CHOSEN --
------------------------------------------------------------------------------
------------------------------------------------------------------------------
                   ___                                                        
                  /   \      - P O W E R E D   B Y -                         
                 /     \                                                     
                 |  |  |   _    _      __       _____    __    __             
                 |  |  |  | |  | |    /  \     |  _  \  |  |  /  |          
                  \  \/   | |  | |   /    \    | | | |  |  | /  /          
                 / \  \   | |__| |  /  /\  \   | |_| |  |  |/  /          
                |  |  |   |  __  | /  /__\  \  |    /   |      \           
                |  |  |   | |  | | |   __   |  |    \   |  |\   \          
                \     /   | |  | | |  |  |  |  | |\  \  |  | \   \       
                 \___/    |_|  |_| |__|  |__|  |_| \__\ |__|  \__/        
                                                                              
                      - O R C A' S   B I G   F R I E N D -                    
                                      &                                       
                       - I N T E G R A L  F E E D E R -                       
                                                                              
 v1 FN, 2020, v2 2021, v3 2022-2024                                           
------------------------------------------------------------------------------


----------------------
SHARK INTEGRAL PACKAGE
----------------------

Number of atoms                             ...     19
Number of basis functions                   ...    339
Number of shells                            ...    139
Maximum angular momentum                    ...      3
Integral batch strategy                     ... SHARK/LIBINT Hybrid
RI-J (if used) integral strategy            ... SPLIT-RIJ (Revised 2003 algorithm where possible)
Printlevel                                  ...      1
Contraction scheme used                     ... SEGMENTED contraction
Prescreening option                         ... SCHWARTZ
   Thresh                                   ... 3.000e-11
   Tcut                                     ... 1.000e-12
   Tpresel                                  ... 1.000e-12 
Coulomb Range Separation                    ... NOT USED
Exchange Range Separation                   ... Long Range
   Mu parameter                             ... 3.000e-01
   Scaling (regular/separated)              ... 1.670e-01 8.330e-01
Multipole approximations                    ... NOT USED
Finite Nucleus Model                        ... NOT USED
CABS basis                                  ... NOT available
Auxiliary Coulomb fitting basis             ... AVAILABLE
   # of basis functions in Aux-J            ...    551
   # of shells in Aux-J                     ...    185
   Maximum angular momentum in Aux-J        ...      4
Auxiliary J/K fitting basis                 ... NOT available
Auxiliary Correlation fitting basis         ... NOT available
Auxiliary 'external' fitting basis          ... NOT available

Checking pre-screening integrals            ... done (  0.0 sec) Dimension = 139
Check shell pair data                       ... done (  0.0 sec)
Shell pair information
Shell pair cut-off parameter TPreSel        ...   1.0e-12
Total number of shell pairs                 ...      9730
Shell pairs after pre-screening             ...      8782
Total number of primitive shell pairs       ...     29148
Primitive shell pairs kept                  ...     19641
          la=0 lb=0:   2466 shell pairs
          la=1 lb=0:   2512 shell pairs
          la=1 lb=1:    659 shell pairs
          la=2 lb=0:   1243 shell pairs
          la=2 lb=1:    625 shell pairs
          la=2 lb=2:    161 shell pairs
          la=3 lb=0:    607 shell pairs
          la=3 lb=1:    312 shell pairs
          la=3 lb=2:    154 shell pairs
          la=3 lb=3:     43 shell pairs

Calculating one electron integrals          ... done (  0.0 sec)
Calculating RI/J V-Matrix + Cholesky decomp.... done (  0.1 sec)
Calculating Nuclear repulsion               ... done (  0.0 sec) ENN=    420.473851161155 Eh

Diagonalization of the overlap matrix:
Smallest eigenvalue                        ... 8.555e-06
Time for diagonalization                   ...    0.010 sec
Threshold for overlap eigenvalues          ... 1.000e-07
Number of eigenvalues below threshold      ... 0
Time for construction of square roots      ...    0.019 sec
Total time needed                          ...    0.037 sec

-------------------
DFT GRID GENERATION
-------------------

General Integration Accuracy     IntAcc      ... 4.388
Radial Grid Type                 RadialGrid  ... OptM3 with GC (2021)
Angular Grid (max. ang.)         AngularGrid ... 4 (Lebedev-302)
Angular grid pruning method      GridPruning ... 4 (adaptive)
Weight generation scheme         WeightScheme... mBecke (2022)
Basis function cutoff            BFCut       ... 1.0000e-11
Integration weight cutoff        WCut        ... 1.0000e-14
Partially contracted basis set               ... off
Rotationally invariant grid construction     ... off
Angular grids for H and He will be reduced by one unit

Total number of grid points                  ...    86217
Total number of batches                      ...     1359
Average number of points per batch           ...       63
Average number of grid points per atom       ...     4538

--------------------
COSX GRID GENERATION
--------------------

GRIDX 1
-------
General Integration Accuracy     IntAcc      ... 3.816
Radial Grid Type                 RadialGrid  ... OptM3 with GC (2021)
Angular Grid (max. ang.)         AngularGrid ... 1 (Lebedev-50)
Angular grid pruning method      GridPruning ... 4 (adaptive)
Weight generation scheme         WeightScheme... mBecke (2022)
Basis function cutoff            BFCut       ... 1.0000e-11
Integration weight cutoff        WCut        ... 1.0000e-14
Partially contracted basis set               ... on
Rotationally invariant grid construction     ... off
Angular grids for H and He will be reduced by one unit

Total number of grid points                  ...    11028
Total number of batches                      ...       97
Average number of points per batch           ...      113
Average number of grid points per atom       ...      580
UseSFitting                                  ... on

GRIDX 2
-------
General Integration Accuracy     IntAcc      ... 4.020
Radial Grid Type                 RadialGrid  ... OptM3 with GC (2021)
Angular Grid (max. ang.)         AngularGrid ... 2 (Lebedev-110)
Angular grid pruning method      GridPruning ... 4 (adaptive)
Weight generation scheme         WeightScheme... mBecke (2022)
Basis function cutoff            BFCut       ... 1.0000e-11
Integration weight cutoff        WCut        ... 1.0000e-14
Partially contracted basis set               ... on
Rotationally invariant grid construction     ... off
Angular grids for H and He will be reduced by one unit

Total number of grid points                  ...    23684
Total number of batches                      ...      193
Average number of points per batch           ...      122
Average number of grid points per atom       ...     1247
UseSFitting                                  ... on

GRIDX 3
-------
General Integration Accuracy     IntAcc      ... 4.338
Radial Grid Type                 RadialGrid  ... OptM3 with GC (2021)
Angular Grid (max. ang.)         AngularGrid ... 3 (Lebedev-194)
Angular grid pruning method      GridPruning ... 4 (adaptive)
Weight generation scheme         WeightScheme... mBecke (2022)
Basis function cutoff            BFCut       ... 1.0000e-11
Integration weight cutoff        WCut        ... 1.0000e-14
Partially contracted basis set               ... on
Rotationally invariant grid construction     ... off
Angular grids for H and He will be reduced by one unit

Total number of grid points                  ...    51898
Total number of batches                      ...      417
Average number of points per batch           ...      124
Average number of grid points per atom       ...     2731
UseSFitting                                  ... on
Initializing property integral containers    ... done (  0.0 sec)

SHARK setup successfully completed in   2.4 seconds

Maximum memory used throughout the entire STARTUP-calculation: 52.0 MB
-------------------------------------------------------------------------------
                                 ORCA GUESS
                   Start orbitals & Density for SCF / CASSCF
-------------------------------------------------------------------------------

------------
SCF SETTINGS
------------
Hamiltonian:
 Density Functional     Method          .... DFT(GTOs)
 Exchange Functional    Exchange        .... WB97X-V
 Correlation Functional Correlation     .... WB97X-V
 Gradients option       PostSCFGGA      .... off
 Hybrid DFT is turned on
   Fraction HF Exchange ScalHFX         ....  0.167000
   Scaling of DF-GGA-X  ScalDFX         ....  0.000000
   Scaling of DF-GGA-C  ScalDFC         ....  1.000000
   Scaling of DF-LDA-C  ScalLDAC        ....  1.000000
   Perturbative correction              ....  0.000000
 Long-range corrected/Screened/Range-Separated Hybrid DFT is turned on
   Amount of maximum screened exact exchange              ....  0.833000
   Range separation parameter mu (erf(mu*r12)/r12)        ....  0.300000
   NL short-range parameter             ....  6.000000
   NL long-range parameter              ....  0.010000
 RI-approximation to the Coulomb term is turned on
   Number of AuxJ basis functions       .... 551
   RIJ-COSX (HFX calculated with COS-X)).... on


General Settings:
 Integral files         IntName         .... sp_solv
 Hartree-Fock type      HFTyp           .... RHF
 Total Charge           Charge          ....    0
 Multiplicity           Mult            ....    1
 Number of Electrons    NEL             ....   66
 Basis Dimension        Dim             ....  339
 Nuclear Repulsion      ENuc            ....    420.4738511612 Eh

Convergence Acceleration:
 AO-DIIS                CNVDIIS         .... on
   Start iteration      DIISMaxIt       ....    12
   Startup error        DIISStart       ....  0.200000
   # of expansion vecs  DIISMaxEq       ....     5
   Bias factor          DIISBfac        ....   1.050
   Max. coefficient     DIISMaxC        ....  10.000
 MO-DIIS                CNVKDIIS        .... off
 Trust-Rad. Augm. Hess. CNVTRAH         .... auto
   Auto Start mean grad. ratio tolernc. ....  1.125000
   Auto Start start iteration           ....     1
   Auto Start num. interpolation iter.  ....    10
   Max. Number of Micro iterations      ....    24
   Max. Number of Macro iterations      .... Maxiter - #DIIS iter
   Number of Davidson start vectors     ....     2
   Converg. threshold    (grad. norm)   ....   1.000e-04
   Grad. Scal. Fac. for Micro threshold ....   0.100
   Minimum threshold for Micro iter.    ....   1.000e-02
   NR start threshold (gradient norm)   ....   1.000e-04
   Initial trust radius                 ....   0.400
   Minimum AH scaling param. (alpha)    ....   1.000
   Maximum AH scaling param. (alpha)    .... 1000.000
   Quad. conv. algorithm                .... NR
   White noise on init. David. guess    .... on
   Maximum white noise                  ....   0.010
   Pseudo random numbers                .... off
   Inactive MOs                         .... canonical
   Orbital update algorithm             .... Taylor
   Preconditioner                       .... Diag
   Full preconditioner red. dimension   ....   250
 SOSCF                  CNVSOSCF        .... on
   Start iteration      SOSCFMaxIt      ....   150
   Startup grad/error   SOSCFStart      ....  0.003300
   Hessian update       SOSCFHessUp     .... L-BFGS
 Level Shifting         CNVShift        .... on
   Level shift para.    LevelShift      ....    0.2500
   Turn off err/grad.   ShiftErr        ....    0.0010
 Zerner damping         CNVZerner       .... off
 Static damping         CNVDamp         .... on
   Fraction old density DampFac         ....    0.7000
   Max. Damping (<1)    DampMax         ....    0.9800
   Min. Damping (>=0)   DampMin         ....    0.0000
   Turn off err/grad.   DampErr         ....    0.1000

SCF Procedure:
 Maximum # iterations   MaxIter         ....   125
 SCF integral mode      SCFMode         .... Direct
   Integral package                     .... SHARK and LIBINT hybrid scheme
 Reset frequency        DirectResetFreq ....    20
 Integral Threshold     Thresh          ....  3.000e-11 Eh
 Primitive CutOff       TCut            ....  1.000e-12 Eh

Convergence Tolerance:
 Convergence Check Mode ConvCheckMode   .... Total+1el-Energy
 Convergence forced     ConvForced      .... 0
 Energy Change          TolE            ....  1.000e-07 Eh
 1-El. energy change                    ....  1.000e-04 Eh
 Orbital Gradient       TolG            ....  1.000e-04
 Orbital Rotation angle TolX            ....  1.000e-04
 DIIS Error             TolErr          ....  1.000e-07

---------------------
INITIAL GUESS: MOREAD
---------------------
Guess MOs are being read from file: sp_solv.ges
Input Geometry matches current geometry (good)
Atom 0: N(Shells)= 11 and 9 - projection required
Input basis set needs projection
NBasis(read)= 226
NBasis(calc)= 339
Basis set overlap was calculated
Using GuessMode=FMatrix for the initial guess
C*T matrix was formed
Effective Fockian was calculated
Effective Fockian was diagonalized
Initial density was built
                      ------------------
                      INITIAL GUESS DONE (   0.1 sec)
                      ------------------
             **** ENERGY FILE WAS UPDATED (sp_solv.en.tmp) ****
Finished Guess after   0.3 sec
Maximum memory used throughout the entire GUESS-calculation: 32.7 MB

-------------------------------------------------------------------------------------------
                                      ORCA LEAN-SCF
                              memory conserving SCF solver
-------------------------------------------------------------------------------------------

--------------------
CPCM SOLVATION MODEL
--------------------
CPCM parameters:
  Epsilon                                         ...      78.3550
  Refrac                                          ...       1.3328
  Rsolv                                           ...       1.3000
  Surface type                                    ... GAUSSIAN VDW
  Discretization scheme                           ... Constant charge density
    Threshold for H atoms                         ...       5.0000 (charges/Ang^2)
    Threshold for non-H atoms                     ...       5.0000 (charges/Ang^2)
  Epsilon function type                           ...         CPCM
Solvent:                                          ... WATER
SMD-CDS solvent descriptors:
  Soln                                            ...       1.3328
  Soln25                                          ...       1.3323
  Sola                                            ...       0.0000
  Solb                                            ...       0.0000
  Solg                                            ...       0.0000
  Solc                                            ...       0.0000
  Solh                                            ...       0.0000
Radii:
  Scheme                                          ... Element-dependent radii
  Radius for C  used is    3.4960 Bohr (=   1.8500 Ang.)
  Radius for O  used is    2.8724 Bohr (=   1.5200 Ang.)
  Radius for H  used is    2.2677 Bohr (=   1.2000 Ang.)
Calculating surface                               ...        done! (  0.0s)
Cavity surface points                             ...         1481
Cavity Volume                                     ...     921.7252
Cavity Surface-area                               ...     583.4531
Calculating surface distance matrix               ...        done! (  0.0s)
Performing Cholesky decomposition & store         ...        done! (  0.1s)
Overall time for CPCM initialization              ...                 0.1s

----------------------------------------D-I-I-S--------------------------------------------
Iteration    Energy (Eh)           Delta-E    RMSDP     MaxDP     DIISErr   Damp  Time(sec)
-------------------------------------------------------------------------------------------
               ***  Starting incremental Fock matrix formation  ***
    1    -386.3685303213798079     0.00e+00  1.16e-03  4.52e-02  5.03e-02  0.700  21.7
    2    -386.3737036214579348    -5.17e-03  9.76e-04  3.64e-02  3.65e-02  0.700  10.8
                               ***Turning on AO-DIIS***
    3    -386.3775917731087475    -3.89e-03  7.78e-04  2.82e-02  2.60e-02  0.700  10.7
    4    -386.3804448036879648    -2.85e-03  1.90e-03  6.82e-02  1.83e-02  0.000  10.6
                              *** Initializing SOSCF ***
---------------------------------------S-O-S-C-F--------------------------------------
Iteration    Energy (Eh)           Delta-E    RMSDP     MaxDP     MaxGrad    Time(sec)
--------------------------------------------------------------------------------------
    5    -386.3876546453092260    -7.21e-03  6.05e-05  2.14e-03  7.17e-04    11.0
               *** Restarting incremental Fock matrix formation ***
    6    -386.3876798384100084    -2.52e-05  3.27e-05  9.88e-04  3.55e-04    21.6
    7    -386.3876831197379715    -3.28e-06  1.54e-05  4.51e-04  1.10e-04    16.3
    8    -386.3876834179066009    -2.98e-07  7.81e-06  5.31e-04  5.25e-05    15.5
    9    -386.3876835656681124    -1.48e-07  1.22e-06  3.85e-05  5.74e-06    13.9
                  *** Gradient check signals convergence ***

               *****************************************************
               *                     SUCCESS                       *
               *           SCF CONVERGED AFTER   9 CYCLES          *
               *****************************************************


------------------
NL GRID GENERATION
------------------

General Integration Accuracy     IntAcc      ... 4.004
Radial Grid Type                 RadialGrid  ... OptM3 with GC (2021)
Angular Grid (max. ang.)         AngularGrid ... 2 (Lebedev-110)
Angular grid pruning method      GridPruning ... 4 (adaptive)
Weight generation scheme         WeightScheme... mBecke (2022)
Basis function cutoff            BFCut       ... 1.0000e-10
Integration weight cutoff        WCut        ... 1.0000e-14
Partially contracted basis set               ... off
Rotationally invariant grid construction     ... off
Angular grids for H and He will be reduced by one unit

Total number of grid points                  ...    26836
Total number of batches                      ...      430
Average number of points per batch           ...       62
Average number of grid points per atom       ...     1412
Final grid set up in    0.2 sec

-------------------------------------------------------------------------------
                    post-SCF DFT-NL dispersion correction                      
-------------------------------------------------------------------------------

SCF Energy:     -386.387683566 
NL    Energy:      0.250461271 
SC+NL Energy:   -386.137222295 
NL done in  :              2.7 sec
-------------------------------------------------------------------------------
Recomputing exchange energy using gridx3       ... done (   37.698 sec)
Old exchange energy                            :    -17.491807802 Eh
New exchange energy                            :    -17.491824991 Eh
Exchange energy change after final integration :     -0.000017189 Eh
Total energy after final integration           :   -386.137239484 Eh

SMD CDS free energy correction energy :                 3.57410     Kcal/mol
Total Energy after SMD CDS correction =              -386.131543789 Eh
             **** ENERGY FILE WAS UPDATED (sp_solv.en.tmp) ****

----------------
TOTAL SCF ENERGY
----------------

Total Energy       :       -386.13154378945882 Eh          -10507.17348 eV

Components:
Nuclear Repulsion  :        420.47385116115481 Eh           11441.67517 eV
Electronic Energy  :       -806.83892985944806 Eh          -21955.20346 eV
One Electron Energy:      -1355.60648957942476 Eh          -36887.92793 eV
Two Electron Energy:        548.76755971997670 Eh           14932.72447 eV
CPCM Dielectric    :         -0.02260486737487 Eh              -0.61511 eV
SMD CDS (Gcds)     :          0.00569569448349 Eh               0.15499 eV

Virial components:
Potential Energy   :       -770.69536292941621 Eh          -20971.68701 eV
Kinetic Energy     :        384.56381913995739 Eh           10464.51352 eV
Virial Ratio       :          2.00407663064354

DFT components:
N(Alpha)           :       33.000020845797 electrons
N(Beta)            :       33.000020845797 electrons
N(Total)           :       66.000041691594 electrons
E(X)               :      -35.760285398913 Eh       
E(C)               :       -2.714680026844 Eh       
NL Energy, E(C,NL) :        0.250461270824 Eh       
E(XC)              :      -38.224504154933 Eh       

CPCM Solvation Model Properties:
Surface-charge          :         -0.05011745460894
Corrected charge        :         -0.00000000000000
Outlying charge corr.   :          0.00019100701158 Eh               0.00520 eV
Free-energy (cav+disp)  :          0.00569569448349 Eh               0.15499 eV

---------------
SCF CONVERGENCE
---------------

  Last Energy change         ...    1.4776e-07  Tolerance :   1.0000e-07
  Last MAX-Density change    ...    3.8464e-05  Tolerance :   1.0000e-05
  Last RMS-Density change    ...    1.2158e-06  Tolerance :   1.0000e-06
  Last DIIS Error            ...    7.1698e-04  Tolerance :   1.0000e-07
  Last Orbital Gradient      ...    5.7417e-06  Tolerance :   1.0000e-04
  Last Orbital Rotation      ...    2.0842e-05  Tolerance :   1.0000e-04


----------------
ORBITAL ENERGIES
----------------

  NO   OCC          E(Eh)            E(eV) 
   0   2.0000     -21.673154      -589.7565 
   1   2.0000     -12.087728      -328.9238 
   2   2.0000     -12.055962      -328.0594 
   3   2.0000     -12.048729      -327.8626 
   4   2.0000     -12.048453      -327.8551 
   5   2.0000     -12.045669      -327.7793 
   6   2.0000     -12.045053      -327.7625 
   7   2.0000     -12.044409      -327.7450 
   8   2.0000     -12.041075      -327.6543 
   9   2.0000      -1.672445       -45.5095 
  10   2.0000      -1.382881       -37.6301 
  11   2.0000      -1.302546       -35.4441 
  12   2.0000      -1.269043       -34.5324 
  13   2.0000      -1.240938       -33.7676 
  14   2.0000      -1.149355       -31.2755 
  15   2.0000      -1.102448       -29.9991 
  16   2.0000      -1.082110       -29.4457 
  17   2.0000      -1.017183       -27.6790 
  18   2.0000      -0.962470       -26.1901 
  19   2.0000      -0.953258       -25.9395 
  20   2.0000      -0.945390       -25.7254 
  21   2.0000      -0.932801       -25.3828 
  22   2.0000      -0.906792       -24.6751 
  23   2.0000      -0.873028       -23.7563 
  24   2.0000      -0.868106       -23.6224 
  25   2.0000      -0.830884       -22.6095 
  26   2.0000      -0.821608       -22.3571 
  27   2.0000      -0.808167       -21.9913 
  28   2.0000      -0.793437       -21.5905 
  29   2.0000      -0.776232       -21.1223 
  30   2.0000      -0.762492       -20.7485 
  31   2.0000      -0.636740       -17.3266 
  32   2.0000      -0.634093       -17.2545 
  33   0.0000      -0.240043        -6.5319 
  34   0.0000      -0.234752        -6.3879 
  35   0.0000      -0.132856        -3.6152 
  36   0.0000      -0.072287        -1.9670 
  37   0.0000      -0.037008        -1.0070 
  38   0.0000      -0.027721        -0.7543 
  39   0.0000       0.000445         0.0121 
  40   0.0000       0.010078         0.2742 
  41   0.0000       0.016173         0.4401 
  42   0.0000       0.017995         0.4897 
  43   0.0000       0.024136         0.6568 
*Only the first 10 virtual orbitals were printed.

                    ********************************
                    * MULLIKEN POPULATION ANALYSIS *
                    ********************************

-----------------------
MULLIKEN ATOMIC CHARGES
-----------------------
   0 C :   -0.188310
   1 C :   -0.145962
   2 C :   -0.262988
   3 C :    0.230054
   4 C :   -0.309152
   5 C :   -0.137909
   6 C :   -0.252632
   7 C :   -0.041415
   8 O :   -0.562523
   9 H :    0.159919
  10 H :    0.159223
  11 H :    0.159039
  12 H :    0.156142
  13 H :    0.159155
  14 H :    0.143051
  15 H :    0.130426
  16 H :    0.120861
  17 H :    0.122587
  18 H :    0.360434
Sum of atomic charges:   -0.0000000

--------------------------------
MULLIKEN REDUCED ORBITAL CHARGES
--------------------------------
  0 C s       :     3.199599  s :     3.199599
      pz      :     0.983241  p :     2.892666
      px      :     1.000599
      py      :     0.908826
      dz2     :     0.005464  d :     0.088746
      dxz     :     0.008196
      dyz     :     0.021754
      dx2y2   :     0.031293
      dxy     :     0.022040
      f0      :     0.001097  f :     0.007299
      f+1     :     0.000655
      f-1     :     0.000830
      f+2     :     0.000796
      f-2     :     0.001008
      f+3     :     0.000948
      f-3     :     0.001964

  1 C s       :     3.180206  s :     3.180206
      pz      :     0.960114  p :     2.867363
      px      :     0.938502
      py      :     0.968747
      dz2     :     0.010273  d :     0.091041
      dxz     :     0.013572
      dyz     :     0.014000
      dx2y2   :     0.022736
      dxy     :     0.030461
      f0      :     0.000823  f :     0.007352
      f+1     :     0.001433
      f-1     :     0.000600
      f+2     :     0.000846
      f-2     :     0.000846
      f+3     :     0.001080
      f-3     :     0.001725

  2 C s       :     3.233003  s :     3.233003
      pz      :     0.980678  p :     2.931443
      px      :     0.957376
      py      :     0.993389
      dz2     :     0.009790  d :     0.091174
      dxz     :     0.014818
      dyz     :     0.012113
      dx2y2   :     0.025036
      dxy     :     0.029418
      f0      :     0.000803  f :     0.007368
      f+1     :     0.001462
      f-1     :     0.000572
      f+2     :     0.000733
      f-2     :     0.000967
      f+3     :     0.001022
      f-3     :     0.001808

  3 C s       :     3.112444  s :     3.112444
      pz      :     0.886108  p :     2.512525
      px      :     0.796050
      py      :     0.830367
      dz2     :     0.011846  d :     0.134978
      dxz     :     0.018873
      dyz     :     0.027349
      dx2y2   :     0.038209
      dxy     :     0.038702
      f0      :     0.001120  f :     0.009998
      f+1     :     0.001155
      f-1     :     0.000844
      f+2     :     0.001169
      f-2     :     0.001418
      f+3     :     0.001358
      f-3     :     0.002936

  4 C s       :     3.266645  s :     3.266645
      pz      :     0.984879  p :     2.942884
      px      :     0.978735
      py      :     0.979270
      dz2     :     0.009716  d :     0.092236
      dxz     :     0.013682
      dyz     :     0.013658
      dx2y2   :     0.022897
      dxy     :     0.032283
      f0      :     0.000817  f :     0.007388
      f+1     :     0.001434
      f-1     :     0.000583
      f+2     :     0.000839
      f-2     :     0.000876
      f+3     :     0.001075
      f-3     :     0.001764

  5 C s       :     3.175059  s :     3.175059
      pz      :     0.960399  p :     2.864406
      px      :     0.928861
      py      :     0.975146
      dz2     :     0.010403  d :     0.091092
      dxz     :     0.015067
      dyz     :     0.012490
      dx2y2   :     0.025478
      dxy     :     0.027654
      f0      :     0.000814  f :     0.007352
      f+1     :     0.001454
      f-1     :     0.000595
      f+2     :     0.000723
      f-2     :     0.000969
      f+3     :     0.000992
      f-3     :     0.001805

  6 C s       :     3.217037  s :     3.217037
      pz      :     0.974767  p :     2.938654
      px      :     0.883892
      py      :     1.079994
      dz2     :     0.013000  d :     0.091477
      dxz     :     0.018079
      dyz     :     0.022253
      dx2y2   :     0.024026
      dxy     :     0.014118
      f0      :     0.000457  f :     0.005463
      f+1     :     0.001123
      f-1     :     0.000269
      f+2     :     0.001646
      f-2     :     0.000693
      f+3     :     0.000522
      f-3     :     0.000754

  7 C s       :     3.206132  s :     3.206132
      pz      :     0.826079  p :     2.704503
      px      :     1.015519
      py      :     0.862905
      dz2     :     0.025678  d :     0.121327
      dxz     :     0.024651
      dyz     :     0.031109
      dx2y2   :     0.021905
      dxy     :     0.017983
      f0      :     0.001094  f :     0.009453
      f+1     :     0.000850
      f-1     :     0.001614
      f+2     :     0.002119
      f-2     :     0.002266
      f+3     :     0.000957
      f-3     :     0.000553

  8 O s       :     3.781492  s :     3.781492
      pz      :     1.572282  p :     4.751427
      px      :     1.884745
      py      :     1.294399
      dz2     :     0.005543  d :     0.028086
      dxz     :     0.003451
      dyz     :     0.012259
      dx2y2   :     0.004112
      dxy     :     0.002720
      f0      :     0.000127  f :     0.001519
      f+1     :     0.000053
      f-1     :     0.000146
      f+2     :     0.000450
      f-2     :     0.000190
      f+3     :     0.000251
      f-3     :     0.000302

  9 H s       :     0.818230  s :     0.818230
      pz      :     0.005900  p :     0.021851
      px      :     0.012464
      py      :     0.003486

 10 H s       :     0.818972  s :     0.818972
      pz      :     0.004623  p :     0.021805
      px      :     0.006350
      py      :     0.010832

 11 H s       :     0.819188  s :     0.819188
      pz      :     0.004618  p :     0.021772
      px      :     0.005316
      py      :     0.011838

 12 H s       :     0.822032  s :     0.822032
      pz      :     0.004684  p :     0.021825
      px      :     0.006385
      py      :     0.010756

 13 H s       :     0.819037  s :     0.819037
      pz      :     0.004603  p :     0.021808
      px      :     0.005302
      py      :     0.011903

 14 H s       :     0.835907  s :     0.835907
      pz      :     0.006250  p :     0.021042
      px      :     0.004472
      py      :     0.010319

 15 H s       :     0.848436  s :     0.848436
      pz      :     0.008514  p :     0.021138
      px      :     0.003998
      py      :     0.008627

 16 H s       :     0.859190  s :     0.859190
      pz      :     0.004982  p :     0.019950
      px      :     0.011744
      py      :     0.003224

 17 H s       :     0.857084  s :     0.857084
      pz      :     0.005100  p :     0.020328
      px      :     0.004422
      py      :     0.010806

 18 H s       :     0.595274  s :     0.595274
      pz      :     0.011268  p :     0.044292
      px      :     0.015335
      py      :     0.017689


------------------------
MULLIKEN OVERLAP CHARGES
------------------------
B(  0-C ,  1-C ) :   0.8281 B(  0-C ,  2-C ) :   0.0673 B(  0-C ,  3-C ) :  -0.2381 
B(  0-C ,  4-C ) :   0.1302 B(  0-C ,  5-C ) :   0.8235 B(  0-C ,  9-H ) :   0.8796 
B(  0-C , 10-H ) :  -0.0954 B(  0-C , 13-H ) :  -0.1017 B(  1-C ,  2-C ) :   0.8209 
B(  1-C ,  3-C ) :   0.0731 B(  1-C ,  4-C ) :  -0.2298 B(  1-C ,  9-H ) :  -0.0909 
B(  1-C , 10-H ) :   0.8875 B(  1-C , 11-H ) :  -0.1000 B(  2-C ,  3-C ) :   0.7571 
B(  2-C ,  4-C ) :   0.0947 B(  2-C ,  5-C ) :  -0.1781 B(  2-C ,  6-C ) :  -0.1675 
B(  2-C , 10-H ) :  -0.1013 B(  2-C , 11-H ) :   0.8909 B(  3-C ,  4-C ) :   0.4640 
B(  3-C ,  5-C ) :   0.0954 B(  3-C ,  6-C ) :   0.5867 B(  3-C ,  7-C ) :  -0.0502 
B(  3-C ,  8-O ) :  -0.1249 B(  3-C , 11-H ) :  -0.1093 B(  3-C , 12-H ) :  -0.1141 
B(  3-C , 14-H ) :  -0.1192 B(  3-C , 15-H ) :  -0.0769 B(  4-C ,  5-C ) :   0.7477 
B(  4-C ,  6-C ) :  -0.1819 B(  4-C ,  8-O ) :   0.1185 B(  4-C , 12-H ) :   0.8926 
B(  4-C , 13-H ) :  -0.1100 B(  5-C ,  9-H ) :  -0.0925 B(  5-C , 12-H ) :  -0.0923 
B(  5-C , 13-H ) :   0.8909 B(  6-C ,  7-C ) :   0.6484 B(  6-C ,  8-O ) :  -0.1149 
B(  6-C , 14-H ) :   0.8893 B(  6-C , 15-H ) :   0.7987 B(  6-C , 16-H ) :  -0.1448 
B(  6-C , 17-H ) :  -0.0561 B(  7-C ,  8-O ) :   0.5480 B(  7-C , 14-H ) :  -0.0610 
B(  7-C , 15-H ) :  -0.0597 B(  7-C , 16-H ) :   0.8940 B(  7-C , 17-H ) :   0.8065 
B(  7-C , 18-H ) :  -0.0768 B(  8-O , 16-H ) :  -0.0842 B(  8-O , 17-H ) :  -0.0664 
B(  8-O , 18-H ) :   0.6179 B( 16-H , 17-H ) :  -0.0720 


                     *******************************
                     * LOEWDIN POPULATION ANALYSIS *
                     *******************************

----------------------
LOEWDIN ATOMIC CHARGES
----------------------
   0 C :   -0.158091
   1 C :   -0.150379
   2 C :   -0.119054
   3 C :   -0.153837
   4 C :   -0.126810
   5 C :   -0.150639
   6 C :   -0.223816
   7 C :   -0.321273
   8 O :   -0.095804
   9 H :    0.149258
  10 H :    0.150291
  11 H :    0.154384
  12 H :    0.152615
  13 H :    0.150283
  14 H :    0.148445
  15 H :    0.153895
  16 H :    0.121522
  17 H :    0.129391
  18 H :    0.189620

-------------------------------
LOEWDIN REDUCED ORBITAL CHARGES
-------------------------------
  0 C s       :     2.765970  s :     2.765970
      pz      :     0.910739  p :     2.964103
      px      :     0.981834
      py      :     1.071530
      dz2     :     0.024366  d :     0.385297
      dxz     :     0.032865
      dyz     :     0.081503
      dx2y2   :     0.146607
      dxy     :     0.099956
      f0      :     0.003565  f :     0.042722
      f+1     :     0.001519
      f-1     :     0.005789
      f+2     :     0.003081
      f-2     :     0.007584
      f+3     :     0.007125
      f-3     :     0.014057

  1 C s       :     2.765986  s :     2.765986
      pz      :     0.909701  p :     2.953293
      px      :     1.023990
      py      :     1.019602
      dz2     :     0.040866  d :     0.388366
      dxz     :     0.055184
      dyz     :     0.051065
      dx2y2   :     0.102977
      dxy     :     0.138274
      f0      :     0.003425  f :     0.042734
      f+1     :     0.004489
      f-1     :     0.003347
      f+2     :     0.006163
      f-2     :     0.005353
      f+3     :     0.007473
      f-3     :     0.012484

  2 C s       :     2.758233  s :     2.758233
      pz      :     0.916796  p :     2.937487
      px      :     1.020427
      py      :     1.000264
      dz2     :     0.039537  d :     0.381276
      dxz     :     0.059783
      dyz     :     0.043093
      dx2y2   :     0.114816
      dxy     :     0.124047
      f0      :     0.003290  f :     0.042059
      f+1     :     0.004486
      f-1     :     0.003237
      f+2     :     0.005185
      f-2     :     0.006152
      f+3     :     0.007146
      f-3     :     0.012563

  3 C s       :     2.710905  s :     2.710905
      pz      :     0.848127  p :     2.864359
      px      :     0.960922
      py      :     1.055310
      dz2     :     0.047556  d :     0.520957
      dxz     :     0.071998
      dyz     :     0.091700
      dx2y2   :     0.162745
      dxy     :     0.146957
      f0      :     0.003917  f :     0.057616
      f+1     :     0.004556
      f-1     :     0.005772
      f+2     :     0.005720
      f-2     :     0.009556
      f+3     :     0.008810
      f-3     :     0.019287

  4 C s       :     2.760080  s :     2.760080
      pz      :     0.918040  p :     2.942735
      px      :     1.019423
      py      :     1.005271
      dz2     :     0.039053  d :     0.381995
      dxz     :     0.053919
      dyz     :     0.049301
      dx2y2   :     0.102798
      dxy     :     0.136924
      f0      :     0.003319  f :     0.042001
      f+1     :     0.004461
      f-1     :     0.003227
      f+2     :     0.005941
      f-2     :     0.005364
      f+3     :     0.007372
      f-3     :     0.012316

  5 C s       :     2.766062  s :     2.766062
      pz      :     0.910620  p :     2.953792
      px      :     1.030766
      py      :     1.012407
      dz2     :     0.041490  d :     0.388084
      dxz     :     0.061547
      dyz     :     0.044286
      dx2y2   :     0.116744
      dxy     :     0.124016
      f0      :     0.003399  f :     0.042702
      f+1     :     0.004513
      f-1     :     0.003362
      f+2     :     0.005303
      f-2     :     0.006215
      f+3     :     0.007133
      f-3     :     0.012778

  6 C s       :     2.768634  s :     2.768634
      pz      :     1.020514  p :     3.043341
      px      :     0.998155
      py      :     1.024673
      dz2     :     0.047352  d :     0.374243
      dxz     :     0.088388
      dyz     :     0.090463
      dx2y2   :     0.092127
      dxy     :     0.055913
      f0      :     0.005227  f :     0.037597
      f+1     :     0.008111
      f-1     :     0.002277
      f+2     :     0.006235
      f-2     :     0.004598
      f+3     :     0.004671
      f-3     :     0.006479

  7 C s       :     2.808416  s :     2.808416
      pz      :     0.950037  p :     2.921993
      px      :     1.047894
      py      :     0.924061
      dz2     :     0.098551  d :     0.523781
      dxz     :     0.120344
      dyz     :     0.141436
      dx2y2   :     0.101841
      dxy     :     0.061609
      f0      :     0.010947  f :     0.067084
      f+1     :     0.005445
      f-1     :     0.013962
      f+2     :     0.010299
      f-2     :     0.013552
      f+3     :     0.007616
      f-3     :     0.005263

  8 O s       :     3.371779  s :     3.371779
      pz      :     1.581793  p :     4.655881
      px      :     1.772759
      py      :     1.301330
      dz2     :     0.012810  d :     0.064023
      dxz     :     0.007141
      dyz     :     0.023376
      dx2y2   :     0.012416
      dxy     :     0.008281
      f0      :     0.000712  f :     0.004120
      f+1     :     0.000170
      f-1     :     0.000772
      f+2     :     0.000963
      f-2     :     0.000713
      f+3     :     0.000385
      f-3     :     0.000405

  9 H s       :     0.791479  s :     0.791479
      pz      :     0.016509  p :     0.059263
      px      :     0.032121
      py      :     0.010633

 10 H s       :     0.790719  s :     0.790719
      pz      :     0.013384  p :     0.058990
      px      :     0.017442
      py      :     0.028163

 11 H s       :     0.786649  s :     0.786649
      pz      :     0.013508  p :     0.058967
      px      :     0.014963
      py      :     0.030496

 12 H s       :     0.788331  s :     0.788331
      pz      :     0.013668  p :     0.059053
      px      :     0.017505
      py      :     0.027880

 13 H s       :     0.790721  s :     0.790721
      pz      :     0.013346  p :     0.058997
      px      :     0.014943
      py      :     0.030707

 14 H s       :     0.793481  s :     0.793481
      pz      :     0.016734  p :     0.058075
      px      :     0.012748
      py      :     0.028593

 15 H s       :     0.787767  s :     0.787767
      pz      :     0.021936  p :     0.058338
      px      :     0.011723
      py      :     0.024679

 16 H s       :     0.820444  s :     0.820444
      pz      :     0.015384  p :     0.058034
      px      :     0.031841
      py      :     0.010809

 17 H s       :     0.813003  s :     0.813003
      pz      :     0.015260  p :     0.057606
      px      :     0.013985
      py      :     0.028361

 18 H s       :     0.654319  s :     0.654319
      pz      :     0.045564  p :     0.156061
      px      :     0.046714
      py      :     0.063783


---------------------------------
LOEWDIN BOND ORDERS (THRESH 0.050000)
---------------------------------
B(  0-C ,  1-C ) :   1.5805 B(  0-C ,  2-C ) :   0.2426 B(  0-C ,  3-C ) :   0.1030 
B(  0-C ,  4-C ) :   0.2429 B(  0-C ,  5-C ) :   1.5893 B(  0-C ,  9-H ) :   0.8298 
B(  0-C , 10-H ) :   0.0950 B(  0-C , 13-H ) :   0.0953 B(  1-C ,  2-C ) :   1.5919 
B(  1-C ,  3-C ) :   0.2363 B(  1-C ,  4-C ) :   0.1105 B(  1-C ,  5-C ) :   0.2448 
B(  1-C ,  9-H ) :   0.0951 B(  1-C , 10-H ) :   0.8280 B(  1-C , 11-H ) :   0.0951 
B(  2-C ,  3-C ) :   1.4731 B(  2-C ,  4-C ) :   0.2327 B(  2-C ,  5-C ) :   0.1111 
B(  2-C ,  6-C ) :   0.1712 B(  2-C , 10-H ) :   0.0965 B(  2-C , 11-H ) :   0.8184 
B(  3-C ,  4-C ) :   1.4833 B(  3-C ,  5-C ) :   0.2360 B(  3-C ,  6-C ) :   1.1431 
B(  3-C ,  7-C ) :   0.1447 B(  3-C , 11-H ) :   0.0927 B(  3-C , 12-H ) :   0.0931 
B(  3-C , 14-H ) :   0.0778 B(  3-C , 15-H ) :   0.0776 B(  4-C ,  5-C ) :   1.5830 
B(  4-C ,  6-C ) :   0.1734 B(  4-C , 12-H ) :   0.8190 B(  4-C , 13-H ) :   0.0962 
B(  5-C ,  9-H ) :   0.0955 B(  5-C , 12-H ) :   0.0947 B(  5-C , 13-H ) :   0.8280 
B(  6-C ,  7-C ) :   1.2256 B(  6-C ,  8-O ) :   0.1078 B(  6-C , 14-H ) :   0.8304 
B(  6-C , 15-H ) :   0.8253 B(  6-C , 16-H ) :   0.0799 B(  6-C , 17-H ) :   0.0742 
B(  7-C ,  8-O ) :   1.5378 B(  7-C , 14-H ) :   0.0762 B(  7-C , 15-H ) :   0.0828 
B(  7-C , 16-H ) :   0.8831 B(  7-C , 17-H ) :   0.8773 B(  7-C , 18-H ) :   0.0925 
B(  8-O , 18-H ) :   1.0166 

------------------------------------------
LOEWDIN REDUCED ORBITAL POPULATIONS PER MO
-------------------------------------------
THRESHOLD FOR PRINTING IS 0.1%%
                      0         1         2         3         4         5   
                 -21.67315 -12.08773 -12.05596 -12.04873 -12.04845 -12.04567
                   2.00000   2.00000   2.00000   2.00000   2.00000   2.00000
                  --------  --------  --------  --------  --------  --------
 0 C  s               0.0       0.0       0.0      16.7       3.3      57.4
 0 C  py              0.0       0.0       0.0       0.0       0.1       0.0
 0 C  dxy             0.0       0.0       0.0       0.0       0.2       0.0
 1 C  s               0.0       0.0       0.0      67.0      14.9       2.2
 1 C  dx2y2           0.0       0.0       0.0       0.0       0.0       0.2
 2 C  s               0.0       0.0       0.8       4.6       3.4      22.2
 2 C  dx2y2           0.0       0.0       0.0       0.1       0.0       0.0
 2 C  dxy             0.0       0.0       0.1       0.0       0.0       0.0
 3 C  s               0.0       0.0      97.0       0.0       0.0       0.7
 4 C  s               0.0       0.0       0.8       0.1       7.1      11.0
 4 C  dx2y2           0.0       0.0       0.1       0.0       0.1       0.0
 4 C  dxy             0.0       0.0       0.1       0.0       0.0       0.0
 5 C  s               0.0       0.0       0.0      10.6      70.2       5.4
 6 C  s               0.0       0.0       0.2       0.0       0.0       0.1
 6 C  dxz             0.0       0.1       0.1       0.0       0.0       0.0
 7 C  s               0.0      99.5       0.0       0.0       0.0       0.0
 8 O  s              99.9       0.0       0.0       0.0       0.0       0.0

                      6         7         8         9        10        11   
                 -12.04505 -12.04441 -12.04107  -1.67245  -1.38288  -1.30255
                   2.00000   2.00000   2.00000   2.00000   2.00000   2.00000
                  --------  --------  --------  --------  --------  --------
 0 C  s               3.1      18.4       0.0       0.0       9.3      10.7
 0 C  pz              0.0       0.0       0.0       0.0       0.5       0.1
 0 C  px              0.0       0.0       0.0       0.0       2.6       0.6
 0 C  dz2             0.0       0.0       0.0       0.0       0.3       0.2
 0 C  dxz             0.0       0.0       0.0       0.0       0.1       0.0
 0 C  dx2y2           0.0       0.0       0.0       0.0       0.0       0.2
 1 C  s               9.8       5.1       0.1       0.0       9.7       4.4
 1 C  pz              0.0       0.0       0.0       0.0       0.2       0.2
 1 C  px              0.0       0.0       0.0       0.0       1.0       1.0
 1 C  py              0.0       0.0       0.0       0.0       2.1       1.8
 1 C  dz2             0.0       0.0       0.0       0.0       0.3       0.1
 1 C  dxz             0.1       0.0       0.0       0.0       0.2       0.0
 1 C  dx2y2           0.1       0.0       0.0       0.0       0.0       0.4
 1 C  dxy             0.0       0.0       0.0       0.0       0.0       0.3
 2 C  s              50.2      17.3       0.4       0.0      11.1       0.5
 2 C  pz              0.0       0.0       0.0       0.0       0.1       0.8
 2 C  px              0.0       0.0       0.0       0.0       0.3       4.6
 2 C  py              0.0       0.0       0.0       0.0       3.0       0.8
 2 C  dz2             0.0       0.0       0.0       0.0       0.3       0.0
 2 C  dxz             0.0       0.0       0.0       0.0       0.3       0.0
 2 C  dyz             0.0       0.0       0.0       0.0       0.0       0.1
 2 C  dx2y2           0.0       0.0       0.0       0.0       0.0       0.2
 2 C  dxy             0.0       0.0       0.0       0.0       0.1       0.8
 3 C  s               0.0       0.9       0.3       0.0      13.6      10.5
 3 C  pz              0.0       0.0       0.0       0.0       0.3       0.4
 3 C  px              0.0       0.0       0.0       0.2       1.5       3.4
 3 C  py              0.1       0.0       0.0       0.0       0.0       0.0
 3 C  dz2             0.0       0.1       0.0       0.0       0.5       0.2
 3 C  dxz             0.0       0.0       0.1       0.0       0.3       0.1
 3 C  dxy             0.2       0.0       0.0       0.0       0.0       0.0
 3 C  f+3             0.0       0.0       0.0       0.0       0.1       0.1
 4 C  s              33.4      46.2       0.4       0.0      11.0       0.4
 4 C  pz              0.0       0.0       0.0       0.0       0.1       0.8
 4 C  px              0.0       0.0       0.0       0.0       0.5       4.0
 4 C  py              0.0       0.0       0.0       0.0       2.7       1.3
 4 C  dz2             0.0       0.0       0.0       0.0       0.3       0.0
 4 C  dxz             0.0       0.0       0.0       0.0       0.2       0.0
 4 C  dx2y2           0.0       0.0       0.0       0.0       0.0       0.4
 4 C  dxy             0.0       0.0       0.0       0.0       0.1       0.5
 5 C  s               2.5      10.3       0.1       0.0       9.7       4.7
 5 C  pz              0.0       0.0       0.0       0.0       0.1       0.2
 5 C  px              0.0       0.0       0.0       0.0       0.6       1.3
 5 C  py              0.0       0.0       0.0       0.0       2.4       1.5
 5 C  dz2             0.0       0.0       0.0       0.0       0.3       0.1
 5 C  dxz             0.0       0.1       0.0       0.0       0.2       0.0
 5 C  dx2y2           0.1       0.0       0.0       0.0       0.0       0.2
 5 C  dxy             0.0       0.0       0.0       0.0       0.0       0.4
 6 C  s               0.0       0.9      98.1       0.3       2.5      14.5
 6 C  pz              0.0       0.0       0.0       0.8       0.4       1.0
 6 C  px              0.0       0.0       0.0       0.3       1.5       0.4
 6 C  dxz             0.0       0.0       0.0       0.1       0.1       0.0
 6 C  dx2y2           0.0       0.0       0.0       0.0       0.2       0.4
 6 C  f+2             0.0       0.0       0.0       0.0       0.0       0.1
 7 C  s               0.0       0.0       0.0       6.0       0.4       5.7
 7 C  pz              0.0       0.0       0.0       4.8       0.2       1.7
 7 C  px              0.0       0.0       0.0       0.0       0.4       1.6
 7 C  py              0.0       0.0       0.0       5.5       0.0       0.0
 7 C  dz2             0.0       0.0       0.0       0.2       0.0       0.0
 7 C  dxz             0.0       0.0       0.1       0.0       0.0       0.3
 7 C  dyz             0.0       0.0       0.0       3.0       0.0       0.1
 7 C  dx2y2           0.0       0.0       0.0       0.8       0.0       0.2
 7 C  f-1             0.0       0.0       0.0       0.2       0.0       0.0
 7 C  f+2             0.0       0.0       0.0       0.3       0.0       0.0
 8 O  s               0.0       0.0       0.0      59.7       0.0       0.6
 8 O  pz              0.0       0.0       0.0       0.9       0.0       0.7
 8 O  py              0.0       0.0       0.0       0.0       0.0       1.3
 9 H  s               0.0       0.0       0.0       0.0       1.1       1.5
 9 H  px              0.0       0.0       0.0       0.0       0.1       0.1
10 H  s               0.0       0.0       0.0       0.0       1.1       0.6
11 H  s               0.0       0.0       0.0       0.0       1.3       0.1
12 H  s               0.0       0.0       0.0       0.0       1.3       0.1
13 H  s               0.0       0.0       0.0       0.0       1.1       0.7
14 H  s               0.0       0.0       0.0       0.0       0.4       2.5
14 H  py              0.0       0.0       0.0       0.0       0.0       0.2
15 H  s               0.0       0.0       0.0       0.0       0.4       2.6
15 H  pz              0.0       0.0       0.0       0.0       0.0       0.1
15 H  py              0.0       0.0       0.0       0.0       0.0       0.1
16 H  s               0.0       0.0       0.0       0.6       0.1       1.0
17 H  s               0.0       0.0       0.0       0.6       0.1       1.0
18 H  s               0.0       0.0       0.0      11.7       0.0       0.4
18 H  pz              0.0       0.0       0.0       0.6       0.0       0.0
18 H  px              0.0       0.0       0.0       0.2       0.0       0.0
18 H  py              0.0       0.0       0.0       2.4       0.0       0.0

                     12        13        14        15        16        17   
                  -1.26904  -1.24094  -1.14935  -1.10245  -1.08211  -1.01718
                   2.00000   2.00000   2.00000   2.00000   2.00000   2.00000
                  --------  --------  --------  --------  --------  --------
 0 C  s               0.0       7.3       3.6       0.0       4.7       0.2
 0 C  pz              0.0       0.0       0.1       0.0       0.2       0.0
 0 C  px              0.0       0.2       0.4       0.1       1.1       0.0
 0 C  py              9.7       0.0       0.0      17.2       0.0       0.0
 0 C  dyz             0.3       0.0       0.0       0.1       0.0       0.0
 0 C  dx2y2           0.0       0.2       0.1       0.0       0.0       0.1
 0 C  dxy             1.9       0.0       0.0       0.5       0.0       0.0
 1 C  s              12.6       0.9       0.0       6.1       2.0       0.5
 1 C  pz              0.4       0.5       0.5       0.8       0.7       0.0
 1 C  px              2.0       2.7       2.7       4.3       3.4       0.0
 1 C  py              0.5       1.4       1.4       0.2       5.4       1.3
 1 C  dxz             0.3       0.1       0.0       0.0       0.0       0.0
 1 C  dx2y2           0.6       0.6       0.3       0.1       0.1       0.0
 1 C  dxy             0.1       0.3       0.1       0.0       0.0       0.0
 2 C  s              12.3       3.1       1.8       5.6       0.8       0.0
 2 C  pz              0.4       0.1       0.2       1.0       0.9       0.0
 2 C  px              2.2       0.6       0.9       5.3       5.6       0.3
 2 C  py              0.4       0.7       0.2       0.2       5.0       1.6
 2 C  dxz             0.4       0.0       0.0       0.0       0.1       0.1
 2 C  dx2y2           0.7       0.4       0.1       0.1       0.5       0.3
 2 C  dxy             0.0       0.2       0.0       0.1       0.1       0.0
 3 C  s               0.0       3.6       1.0       0.0       4.9       0.1
 3 C  pz              0.0       0.4       1.7       0.0       0.1       1.1
 3 C  px              0.0       4.8       5.9       0.1       0.6       3.7
 3 C  py              9.6       0.0       0.0      18.3       0.0       0.0
 3 C  dxz             0.0       0.0       0.3       0.0       0.2       0.2
 3 C  dyz             0.4       0.0       0.0       0.1       0.0       0.0
 3 C  dx2y2           0.0       1.2       0.5       0.0       0.3       0.2
 3 C  dxy             1.9       0.0       0.0       0.5       0.0       0.0
 4 C  s              12.6       2.9       1.7       5.8       0.8       0.0
 4 C  pz              0.4       0.1       0.2       0.9       0.9       0.0
 4 C  px              1.9       0.6       1.0       5.0       4.4       0.1
 4 C  py              0.5       0.9       0.3       0.2       6.3       1.7
 4 C  dxz             0.3       0.0       0.0       0.0       0.1       0.1
 4 C  dx2y2           0.6       0.5       0.0       0.1       0.6       0.2
 5 C  s              12.2       1.1       0.1       5.9       2.1       0.5
 5 C  pz              0.4       0.5       0.5       0.8       0.7       0.0
 5 C  px              2.2       3.1       3.1       4.5       4.4       0.0
 5 C  py              0.4       0.9       0.9       0.2       4.3       1.2
 5 C  dxz             0.4       0.0       0.0       0.0       0.0       0.0
 5 C  dx2y2           0.7       0.4       0.2       0.1       0.1       0.0
 5 C  dxy             0.0       0.5       0.2       0.0       0.0       0.0
 6 C  s               0.0       7.2       8.0       0.0       3.0       1.5
 6 C  pz              0.0       0.6       1.3       0.0       0.7       1.5
 6 C  px              0.0       4.9       2.4       0.0       3.3       3.8
 6 C  py              0.2       0.2       0.2       1.1       0.0       0.3
 6 C  dz2             0.0       0.1       0.1       0.0       0.0       0.1
 6 C  dxz             0.0       0.9       0.6       0.0       0.1       0.3
 6 C  dx2y2           0.0       0.0       0.0       0.0       0.3       0.2
 6 C  dxy             0.1       0.0       0.0       0.5       0.0       0.1
 7 C  s               0.0      14.8       7.5       0.0       0.0       3.3
 7 C  pz              0.0       1.2       4.0       0.0       5.6       5.3
 7 C  px              0.0       0.4       1.9       0.0       0.3       3.1
 7 C  py              0.0       0.1       0.6       0.0       0.1       0.7
 7 C  dz2             0.0       0.1       0.0       0.0       0.0       1.6
 7 C  dxz             0.0       0.1       0.5       0.0       0.2       0.0
 7 C  dyz             0.0       0.2       0.0       0.0       0.1       0.4
 7 C  dx2y2           0.0       0.1       0.0       0.0       0.0       0.1
 7 C  dxy             0.0       0.0       0.0       0.0       0.0       0.1
 7 C  f-1             0.0       0.0       0.0       0.0       0.0       0.2
 8 O  s               0.0       1.2       0.4       0.0       0.1       3.1
 8 O  pz              0.0       2.5       2.0       0.0       0.1      15.8
 8 O  px              0.0       0.1       0.1       0.0       0.2       5.3
 8 O  py              0.0       6.5      19.8       0.0       9.4      18.6
 8 O  dyz             0.0       0.3       0.5       0.0       0.1       0.1
 8 O  dx2y2           0.0       0.0       0.0       0.0       0.0       0.1
 9 H  s               0.0       1.4       1.3       0.0       2.5       0.1
 9 H  px              0.0       0.1       0.1       0.0       0.2       0.0
 9 H  py              0.0       0.0       0.0       0.1       0.0       0.0
10 H  s               2.1       0.2       0.0       2.9       1.3       0.7
10 H  px              0.1       0.0       0.0       0.0       0.2       0.0
10 H  py              0.1       0.0       0.0       0.3       0.0       0.0
11 H  s               2.1       0.5       0.4       2.8       0.7       0.2
11 H  px              0.1       0.0       0.0       0.0       0.1       0.0
11 H  py              0.2       0.1       0.0       0.3       0.0       0.0
12 H  s               2.1       0.5       0.4       2.9       0.7       0.2
12 H  px              0.1       0.0       0.0       0.0       0.1       0.0
12 H  py              0.1       0.1       0.0       0.3       0.0       0.0
13 H  s               2.1       0.2       0.0       2.8       1.3       0.8
13 H  px              0.1       0.0       0.0       0.0       0.1       0.0
13 H  py              0.2       0.0       0.0       0.3       0.0       0.0
14 H  s               0.0       1.5       2.7       0.1       1.7       0.9
14 H  py              0.0       0.1       0.2       0.0       0.1       0.1
15 H  s               0.0       1.6       2.6       0.0       1.7       0.8
15 H  pz              0.0       0.1       0.1       0.0       0.1       0.0
15 H  py              0.0       0.1       0.2       0.0       0.1       0.1
16 H  s               0.0       3.2       2.3       0.0       0.1       5.7
16 H  pz              0.0       0.0       0.2       0.0       0.0       0.0
16 H  px              0.0       0.3       0.2       0.0       0.0       0.4
17 H  s               0.0       3.3       3.1       0.0       0.1       0.8
17 H  pz              0.0       0.1       0.0       0.0       0.0       0.1
17 H  py              0.0       0.3       0.3       0.0       0.0       0.0
18 H  s               0.0       1.7       4.6       0.0       2.6       8.8
18 H  pz              0.0       0.2       0.4       0.0       0.1       0.0
18 H  py              0.0       0.1       0.1       0.0       0.0       0.2

                     18        19        20        21        22        23   
                  -0.96247  -0.95326  -0.94539  -0.93280  -0.90679  -0.87303
                   2.00000   2.00000   2.00000   2.00000   2.00000   2.00000
                  --------  --------  --------  --------  --------  --------
 0 C  s               0.1       0.9       0.3       0.1       1.7       0.3
 0 C  pz              0.2       1.6       0.4       0.1       0.2       1.6
 0 C  px              0.9       9.5       1.8       0.4       1.4       9.6
 0 C  py              3.4       3.5       9.1       0.3       0.0       0.1
 0 C  dz2             0.0       0.0       0.0       0.0       0.2       0.1
 0 C  dxz             0.0       0.0       0.0       0.0       0.1       0.1
 0 C  dx2y2           0.1       0.1       0.0       0.0       2.0       0.0
 1 C  s               0.1       0.3       0.1       0.0       1.9       0.1
 1 C  pz              0.1       1.6       0.7       0.0       0.2       0.1
 1 C  px              0.7       9.0       3.0       0.1       1.4       0.6
 1 C  py              3.2       0.9       4.8       0.2       5.3       1.6
 1 C  dxz             0.0       0.1       0.0       0.0       0.1       0.1
 1 C  dyz             0.0       0.0       0.0       0.0       0.3       0.1
 1 C  dx2y2           0.0       0.1       0.1       0.0       0.2       0.5
 1 C  dxy             0.1       0.2       0.1       0.0       1.8       0.3
 1 C  f-3             0.0       0.0       0.0       0.0       0.0       0.3
 2 C  s               0.2       0.5       0.2       0.0       2.0       0.1
 2 C  pz              0.1       1.6       0.4       0.1       0.3       0.0
[...]

                    324       325       326       327       328       329   
                   5.83731   5.98342   6.24215   6.31940   6.52365   6.73076
                   0.00000   0.00000   0.00000   0.00000   0.00000   0.00000
                  --------  --------  --------  --------  --------  --------
 6 C  s               0.1       0.1       0.1       0.1       0.1       0.0
 6 C  pz              0.1       0.1       0.0       0.1       0.0       0.0
 6 C  px              0.0       0.1       0.0       0.0       0.1       0.0
 7 C  s               0.0       0.0       0.2       0.1       1.2       0.0
 7 C  pz              0.1       0.0       0.0       0.1       1.8       0.1
 7 C  px              0.0       0.1       0.1       0.7       0.0       0.0
 7 C  py              0.2       0.0       0.5       0.1       0.9       0.1
 7 C  dz2             0.4       0.1       0.4       0.1       0.2       0.6
 7 C  dxz             0.1       0.2       0.0       0.6       0.0       0.0
 7 C  dyz             0.5       0.0       0.3       0.0       1.3       0.0
 7 C  dx2y2           0.3       0.1       0.4       0.1       0.3       0.1
 7 C  dxy             0.1       0.1       0.1       0.8       0.0       0.0
 7 C  f0              0.0       0.0       0.1       0.0       0.0       0.2
 7 C  f-1             0.5       0.0       0.1       0.0       0.1       0.4
 7 C  f+2             0.0       0.0       0.0       0.1       0.3       0.0
 7 C  f-2             0.0       0.1       0.0       0.5       0.0       0.0
 7 C  f+3             0.0       0.0       0.0       0.4       0.0       0.0
 7 C  f-3             0.1       0.0       0.1       0.1       0.0       0.0
 8 O  s               3.7       0.0       1.7       0.1       2.5       3.8
 8 O  pz              1.2       0.0       1.9       0.2       1.1       0.3
 8 O  px              0.2       0.1       0.2       0.8       0.0       0.2
 8 O  py              1.3       0.0       0.7       0.1       1.6       2.5
 8 O  dz2             0.6       1.5      67.8       5.4       0.2      12.5
 8 O  dxz             2.2      38.8       9.7      37.3       1.3       0.7
 8 O  dyz             7.0       5.1       2.7       1.6      53.4      14.8
 8 O  dx2y2          35.5      12.8       0.9       3.3      22.4      19.1
 8 O  dxy            10.8      35.7       0.1      33.8       1.7       5.0
 8 O  f0              7.3       0.1       0.2       0.2       0.6       9.1
 8 O  f+1             0.1       0.3       0.4       2.2       0.1       0.0
 8 O  f-1             1.6       0.2       1.2       0.2       4.0       0.9
 8 O  f+2             8.8       0.6       3.9       0.0       3.4      10.8
 8 O  f-2             1.5       2.0       0.3       8.5       0.1       3.7
 8 O  f+3             4.7       0.2       1.6       0.9       0.1       3.1
 8 O  f-3             3.8       0.3       1.3       0.3       0.6       2.0
16 H  s               0.0       0.1       0.0       0.1       0.0       0.0
17 H  s               0.2       0.0       0.0       0.0       0.0       0.0
17 H  py              0.2       0.0       0.0       0.0       0.0       0.0
18 H  s               4.1       0.0       1.7       0.1       0.0       8.7
18 H  pz              0.6       0.0       0.0       0.0       0.1       0.1
18 H  px              0.1       0.4       0.0       0.0       0.0       0.1
18 H  py              1.3       0.0       0.3       0.0       0.0       0.5

                    330       331       332       333       334       335   
                  20.43128  20.79840  20.92065  21.01868  21.05286  21.14623
                   0.00000   0.00000   0.00000   0.00000   0.00000   0.00000
                  --------  --------  --------  --------  --------  --------
 0 C  s              17.6       0.4      21.9       0.1      35.6       0.0
 0 C  py              0.0       0.0       0.0       0.6       0.0       0.0
 0 C  dxy             0.0       0.0       0.0       0.2       0.0       0.0
 1 C  s              18.1       0.0       1.5      48.4       0.2       0.9
 1 C  px              0.0       0.0       0.1       0.0       0.2       0.1
 2 C  s              15.7       0.5       8.5       0.9       7.5      49.0
 2 C  px              0.1       0.0       0.0       0.1       0.1       0.0
 3 C  s              12.0       0.2       2.1       0.0       2.0       0.1
 3 C  px              0.1       0.0       0.1       0.0       0.1       0.0
 3 C  py              0.0       0.0       0.0       0.2       0.0       0.7
 3 C  dx2y2           0.0       0.0       0.1       0.0       0.1       0.0
 3 C  dxy             0.0       0.0       0.0       0.0       0.0       0.3
 4 C  s              16.4       0.2       9.3       0.5       9.2      46.6
 4 C  px              0.1       0.0       0.0       0.1       0.1       0.0
 5 C  s              18.2       0.1       1.7      47.8       0.1       0.7
 5 C  px              0.0       0.0       0.1       0.0       0.2       0.1
 6 C  s               0.2       1.7      51.5       0.2      42.8       0.0
 7 C  s               0.2      95.0       1.9       0.1       0.3       0.5
 8 O  s               0.0       0.2       0.0       0.0       0.0       0.0
 8 O  pz              0.0       0.1       0.0       0.0       0.0       0.0
 8 O  py              0.0       0.2       0.0       0.0       0.0       0.0
 8 O  dyz             0.0       0.1       0.0       0.0       0.0       0.0
11 H  s               0.1       0.0       0.0       0.0       0.0       0.1
12 H  s               0.1       0.0       0.0       0.0       0.0       0.1
14 H  s               0.0       0.0       0.1       0.0       0.1       0.0
15 H  s               0.0       0.0       0.1       0.0       0.1       0.0
16 H  s               0.0       0.2       0.0       0.0       0.0       0.0
17 H  s               0.0       0.2       0.0       0.0       0.0       0.0

                    336       337       338   
                  21.21548  21.62121  41.42296
                   0.00000   0.00000   0.00000
                  --------  --------  --------
 0 C  s              13.4       9.0       0.0
 1 C  s              23.4       5.6       0.0
 2 C  s               0.4      15.5       0.0
 2 C  px              0.2       0.1       0.0
 3 C  s              35.0      47.3       0.0
 4 C  s               0.8      14.9       0.0
 4 C  px              0.2       0.1       0.0
 4 C  py              0.1       0.0       0.0
 5 C  s              23.9       5.6       0.0
 6 C  s               1.2       0.6       0.0
 7 C  s               0.2       0.0       0.1
 8 O  s               0.0       0.0      99.8


                      *****************************
                      * MAYER POPULATION ANALYSIS *
                      *****************************

  NA   - Mulliken gross atomic population
  ZA   - Total nuclear charge
  QA   - Mulliken gross atomic charge
  VA   - Mayer's total valence
  BVA  - Mayer's bonded valence
  FA   - Mayer's free valence

  ATOM       NA         ZA         QA         VA         BVA        FA
  0 C      6.1883     6.0000    -0.1883     3.9035     3.9035    -0.0000
  1 C      6.1460     6.0000    -0.1460     3.8700     3.8700    -0.0000
  2 C      6.2630     6.0000    -0.2630     3.9160     3.9160     0.0000
  3 C      5.7699     6.0000     0.2301     3.5191     3.5191    -0.0000
  4 C      6.3092     6.0000    -0.3092     4.0202     4.0202     0.0000
  5 C      6.1379     6.0000    -0.1379     3.8673     3.8673     0.0000
  6 C      6.2526     6.0000    -0.2526     3.8479     3.8479    -0.0000
  7 C      6.0414     6.0000    -0.0414     3.9383     3.9383    -0.0000
  8 O      8.5625     8.0000    -0.5625     1.8533     1.8533     0.0000
  9 H      0.8401     1.0000     0.1599     0.9630     0.9630    -0.0000
 10 H      0.8408     1.0000     0.1592     0.9633     0.9633    -0.0000
 11 H      0.8410     1.0000     0.1590     0.9653     0.9653    -0.0000
 12 H      0.8439     1.0000     0.1561     0.9698     0.9698     0.0000
 13 H      0.8408     1.0000     0.1592     0.9628     0.9628     0.0000
 14 H      0.8569     1.0000     0.1431     0.9624     0.9624    -0.0000
 15 H      0.8696     1.0000     0.1304     0.9742     0.9742     0.0000
 16 H      0.8791     1.0000     0.1209     0.9629     0.9629     0.0000
 17 H      0.8774     1.0000     0.1226     0.9639     0.9639    -0.0000
 18 H      0.6396     1.0000     0.3604     0.8847     0.8847    -0.0000

  Mayer bond orders larger than 0.100000
B(  0-C ,  1-C ) :   1.3938 B(  0-C ,  5-C ) :   1.4041 B(  0-C ,  9-H ) :   0.9751 
B(  1-C ,  2-C ) :   1.4278 B(  1-C , 10-H ) :   0.9775 B(  2-C ,  3-C ) :   1.3481 
B(  2-C , 11-H ) :   0.9788 B(  3-C ,  4-C ) :   1.3710 B(  3-C ,  6-C ) :   0.8963 
B(  4-C ,  5-C ) :   1.4212 B(  4-C , 12-H ) :   0.9764 B(  5-C , 13-H ) :   0.9775 
B(  6-C ,  7-C ) :   0.9890 B(  6-C , 14-H ) :   0.9863 B(  6-C , 15-H ) :   0.9628 
B(  7-C ,  8-O ) :   0.9801 B(  7-C , 16-H ) :   0.9807 B(  7-C , 17-H ) :   0.9688 
B(  8-O , 18-H ) :   0.8670 

-------
TIMINGS
-------

Total SCF time: 0 days 0 hours 2 min 53 sec 

Total time                  ....     173.451 sec
Sum of individual times     ....     170.321 sec  ( 98.2%)

SCF preparation             ....       0.374 sec  (  0.2%)
Fock matrix formation       ....     168.541 sec  ( 97.2%)
  Startup                   ....       0.059 sec  (  0.0% of F)
  Split-RI-J                ....       6.664 sec  (  4.0% of F)
  Chain of spheres X        ....     140.035 sec  ( 83.1% of F)
  XC integration            ....      16.298 sec  (  9.7% of F)
    Basis function eval.    ....       3.629 sec  ( 22.3% of XC)
    Density eval.           ....       3.203 sec  ( 19.7% of XC)
    XC-Functional eval.     ....       3.494 sec  ( 21.4% of XC)
    XC-Potential eval.      ....       5.229 sec  ( 32.1% of XC)
  CPCM terms                ....       7.608 sec  (  4.5% of F)
Diagonalization             ....       0.000 sec  (  0.0%)
Density matrix formation    ....       0.210 sec  (  0.1%)
Total Energy calculation    ....       0.058 sec  (  0.0%)
Population analysis         ....       0.203 sec  (  0.1%)
Orbital Transformation      ....       0.085 sec  (  0.0%)
Orbital Orthonormalization  ....       0.000 sec  (  0.0%)
DIIS solution               ....       0.381 sec  (  0.2%)
  MO trafo                  ....       0.000 sec  (  0.0 % of DIIS)
  Orb grad                  ....       0.000 sec  (  0.0 % of DIIS)
  Energy W gradient         ....       0.000 sec  (  0.0 % of DIIS)
  DIIS error                ....       0.016 sec  (  4.3 % of DIIS)
  DIIS work                 ....       0.308 sec  ( 80.8 % of DIIS)
  Form Q                    ....       0.000 sec  (  0.0 % of DIIS)
  Form QpQm                 ....       0.000 sec  (  0.0 % of DIIS)
  Exp/Cayley                ....       0.000 sec  (  0.0 % of DIIS)
  Orb update                ....       0.000 sec  (  0.0 % of DIIS)
  Wake-sleep                ....       0.012 sec  (  3.2 % of DIIS)
SOSCF solution              ....       0.244 sec  (  0.1%)
  MO trafo                  ....       0.087 sec  ( 35.8 % of SOSCF)
  Orb grad                  ....       0.002 sec  (  1.0 % of SOSCF)
  Rot update                ....       0.080 sec  ( 32.9 % of SOSCF)
  Step                      ....       0.074 sec  ( 30.2 % of SOSCF)
Grid generation             ....       0.225 sec  (  0.1%)
Finished LeanSCF after 173.6 sec

Maximum memory used throughout the entire LEANSCF-calculation: 47.9 MB
------------------   -----------------
gCP correction             0.010893420
------------------   -----------------

-------------------------   --------------------
FINAL SINGLE POINT ENERGY      -386.120650369659
-------------------------   --------------------


------------------------------------------------------------------------------
                              ORCA PROPERTY CALCULATIONS
------------------------------------------------------------------------------

GBWName                                 ... sp_solv.gbw
Number of atoms                         ...     19
Number of basis functions               ...    339
Max core memory                         ...   1024 MB

Electric properties:
Dipole moment                           ... YES
Quadrupole moment                       ...  NO
Static polarizability (Dipole/Dipole)   ...  NO
Static polarizability (Dipole/Quad.)    ...  NO
Static polarizability (Quad./Quad.)     ...  NO
Static polarizability (Velocity)        ...  NO

Atomic electric properties:
Dipole moment                           ...  NO
Quadrupole moment                       ...  NO
Static polarizability                   ...  NO

Choice of electric origin               ... Center of mass
Position of electric origin             ...    -0.004259    -0.001890    -0.008917

General magnetic properties:
Magnetizability                         ...  NO

EPR properties:
g-Tensor (aka g-matrix)                 ...  NO
Zero-Field splitting spin-orbit         ...  NO
Zero-field splitting spin-spin          ...  NO
Hyperfine couplings                     ...  NO (   0 nuclei)
Quadrupole couplings                    ...  NO (   0 nuclei)
Contact density                         ...  NO (   0 nuclei)

NMR properties:
Chemical shifts                         ...  NO (   0 nuclei)
Spin-rotation constants                 ...  NO (   0 nuclei)
Spin-spin couplings                     ...  NO (   0 nuclei,    0 pairs)

Choice of magnetic origin               ... GIAO
Position of magnetic origin             ...     0.000000     0.000000     0.000000

Properties with geometric perturbations:
SCF Hessian                             ...  NO
IR spectrum                             ...  NO
VCD spectrum                            ...  NO
X-ray spectroscopy properties:
SCF XES/XAS/RIXS spectra                ...  NO


-------------
DIPOLE MOMENT
-------------

Method             : SCF
Type of density    : Electron Density
Multiplicity       :   1
Irrep              :   0
Energy             :  -386.1315437894588172 Eh
Relativity type    : 
Basis              : AO
                                X                 Y                 Z
Electronic contribution:     -2.592621188       0.750250771      -0.840873412
Nuclear contribution   :      2.939248248      -0.657441317       1.813932299
                        -----------------------------------------
Total Dipole Moment    :      0.346627060       0.092809453       0.973058887
                        -----------------------------------------
Magnitude (a.u.)       :      1.037114994
Magnitude (Debye)      :      2.636136817



--------------------
Rotational spectrum 
--------------------
 
Rotational constants in cm-1:             0.111507             0.035562             0.031648 
Rotational constants in MHz :          3342.888530          1066.115697           948.793098 

Dipole components along the rotational axes: 
x,y,z [a.u.] :    -0.384707    -0.144816     0.952175 
x,y,z [Debye]:    -0.977848    -0.368092     2.420235 

 

Dipole moment calculation done in   0.0 sec 

Maximum memory used throughout the entire PROP-calculation: 29.7 MB

--------------------------------
SUGGESTED CITATIONS FOR THIS RUN
--------------------------------

Below you find a list of papers that are relevant to this ORCA run
We neither can nor want to force you to cite these papers, but we appreciate if you do
You receive ORCA, which is the product of decades of hard work by many enthusiastic individuals, for free
The only thing we kindly ask in return is that you cite our papers,
We deeply appreciate it, if you show your appreciation for ORCA by not just citing the generic ORCA reference.

Please note that relegating all ORCA citations to the supporting information does *not* help us.
SI sections are not indexed - citations you put there will not count into any citation statistics
But we need these citations in order to attract the funding resources that allow us to do what we are doing

Therefore, if you are a happy ORCA user, please consider citing a few of the papers listed below in the main body of your paper

In addition to the list printed below, the program has created the file sp_solv.bibtex that contains the list in bibtex format
You can import this file easily into all common literature databanks and citation aid programs


List of essential papers. We consider these as the minimum necessary citations

  1. Neese,F.
     Software update: the ORCA program system, version 5.0
     WIRES Comput. Molec. Sci., 2022 12(1)e1606
     doi.org/10.1002/wcms.1606

List of papers to cite with high priority. The work reported in these papers was absolutely
necessary for this run to complete.
Our perspective: the developers of density functionals and basis sets usually get cited in chemistry papers
Good! But without the algorithms to do something with them, the functionals or basis sets would not do anything.
Hence, in our opinion, the algorithm design and method developments papers are equally worthy of getting cited

  1. Neese,F.
     An improvement of the resolution of the identity approximation for the formation of the Coulomb matrix
     J. Comp. Chem., 2003 24(14)1740-1747
     doi.org/10.1002/jcc.10318
  2. Neese,F.; Wennmohs,F.; Hansen,A.; Becker,U.
     Efficient, approximate and parallel Hartree-Fock and hybrid DFT calculations. A 'chain-of-spheres' algorithm for the Hartree-Fock exchange
     Chem. Phys., 2009 356(1-3)98-109
     doi.org/10.1016/j.chemphys.2008.10.036
  3. Garcia-Rates,M.; Neese,F.
     Effect of the Solute Cavity on the Solvation Energy and its Derivatives within the Framework of the Gaussian Charge Scheme
     J. Comput. Chem., 2020 41 922-939
     doi.org/10.1002/jcc.26139
  4. Helmich-Paris,B.; de Souza,B.; Neese,F.; Izsák,R.
     An improved chain of spheres for exchange algorithm
     J. Chem. Phys., 2021 155 104109
     doi.org/doi: 10.1063/5.0058766.
  5. Neese,F.
     The SHARK Integral Generation and Digestion System
     J. Comp. Chem., 2022  1-16
     doi.org/10.1002/jcc.26942

List of suggested additional citations. These are papers that are important in the 'surrounding' of 
of this run, or papers that preceded the highly important papers. If you like your results we are grateful for a citation.

  1. Izsak,R.; Neese,F.
     An overlap fitted chain of spheres exchange method
     J. Chem. Phys., 2011 135 144105
     doi.org/10.1063/1.3646921
  2. Izsak,R.; Hansen,A.; Neese,F.
     The resolution of identity and chain of spheres approximations for the LPNO-CCSD singles Fock term
     Molec. Phys., 2012 110 2413-2417
     doi.org/10.1080/00268976.2012.687466
  3. Neese,F.
     The ORCA program system
     WIRES Comput. Molec. Sci., 2012 2(1)73-78
     doi.org/10.1002/wcms.81
  4. Izsak,R.; Neese,F.; Klopper,W.
     Robust fitting techniques in the chain of spheres approximation to the Fock exchange: The role of the complementary space
     J. Chem. Phys., 2013 139 
     doi.org/10.1063/1.4819264
  5. Neese,F.
     Software update: the ORCA program system, version 4.0
     WIRES Comput. Molec. Sci., 2018 8(1)1-6
     doi.org/10.1002/wcms.1327
  6. Neese,F.; Wennmohs,F.; Becker,U.; Riplinger,C.
     The ORCA quantum chemistry program package
     J. Chem. Phys., 2020 152 Art. No. L224108
     doi.org/10.1063/5.0004608

List of optional additional citations

  1. Neese,F.
     Approximate second-order SCF convergence for spin unrestricted wavefunctions
     Chem. Phys. Lett., 2000 325(1-3)93-98
     doi.org/10.1016/s0009-2614(00)00662-x

Timings for individual modules:

Sum of individual times          ...      176.513 sec (=   2.942 min)
Startup calculation              ...        2.496 sec (=   0.042 min)   1.4 %
SCF iterations                   ...      173.909 sec (=   2.898 min)  98.5 %
Property calculations            ...        0.108 sec (=   0.002 min)   0.1 %
                             ****ORCA TERMINATED NORMALLY****
TOTAL RUN TIME: 0 days 0 hours 2 minutes 57 seconds 159 msec
