
                                 *****************
                                 * O   R   C   A *
                                 *****************

                                            #,                                       
                                            ###                                      
                                            ####                                     
                                            #####                                    
                                            ######                                   
                                           ########,                                 
                                     ,,################,,,,,                         
                               ,,#################################,,                 
                          ,,##########################################,,             
                       ,#########################################, ''#####,          
                    ,#############################################,,   '####,        
                  ,##################################################,,,,####,       
                ,###########''''           ''''###############################       
              ,#####''   ,,,,##########,,,,          '''####'''          '####       
            ,##' ,,,,###########################,,,                        '##       
           ' ,,###''''                  '''############,,,                           
         ,,##''                                '''############,,,,        ,,,,,,###''
      ,#''                                            '''#######################'''  
     '                                                          ''''####''''         
             ,#######,   #######,   ,#######,      ##                                
            ,#'     '#,  ##    ##  ,#'     '#,    #''#        ,####,   ,####,        
            ##       ##  ##   ,#'  ##            #'  '#       #'       #'  '#        
            ##       ##  #######   ##           ,######,      #####,   #    #        
            '#,     ,#'  ##    ##  '#,     ,#' ,#      #,     #,   #   #,  ,#        
             '#######'   ##     ##  '#######'  #'      '#     '####' # '####'        



                #########################################################
                #                        -***-                          #
                #          Department of theory and spectroscopy        #
                #                                                       #
                #                      Frank Neese                      #
                #                                                       #
                #     Directorship, Architecture, Infrastructure        #
                #                    SHARK, DRIVERS                     #
                #        Core code/Algorithms in most modules           #
                #                                                       #
                #        Max Planck Institute fuer Kohlenforschung      #
                #                Kaiser Wilhelm Platz 1                 #
                #                 D-45470 Muelheim/Ruhr                 #
                #                      Germany                          #
                #                                                       #
                #                  All rights reserved                  #
                #                        -***-                          #
                #########################################################


                         Program Version 6.0.0  -   RELEASE  -


 With contributions from (in alphabetic order):
   Daniel Aravena         : Magnetic Suceptibility
   Michael Atanasov       : Ab Initio Ligand Field Theory (pilot matlab implementation)
   Alexander A. Auer      : GIAO ZORA, VPT2 properties, NMR spectrum
   Ute Becker             : All parallelization in ORCA, NUMFREQ, NUMCALC
   Giovanni Bistoni       : ED, misc. LED, open-shell LED, HFLD
   Martin Brehm           : Molecular dynamics
   Dmytro Bykov           : pre 5.0 version of the SCF Hessian
   Marcos Casanova-Páez   : Triplet and SCS-CIS(D). UHF-(DLPNO)-IP/EA/STEOM-CCSD. UHF-CVS-IP/STEOM-CCSD
   Vijay G. Chilkuri      : MRCI spin determinant printing, contributions to CSF-ICE
   Pauline Colinet        : FMM embedding
   Dipayan Datta          : RHF DLPNO-CCSD density
   Achintya Kumar Dutta   : EOM-CC, STEOM-CC
   Nicolas Foglia         : Exact transition moments, OPA infrastructure, MCD improvements
   Dmitry Ganyushin       : Spin-Orbit,Spin-Spin,Magnetic field MRCI
   Miquel Garcia          : C-PCM and meta-GGA Hessian, CCSD/C-PCM, Gaussian charge scheme
   Tiago L. C. Gouveia    : GS-ROHF, GS-ROCIS
   Yang Guo               : DLPNO-NEVPT2, F12-NEVPT2, CIM, IAO-localization
   Andreas Hansen         : Spin unrestricted coupled pair/coupled cluster methods
   Ingolf Harden          : AUTO-CI MPn and infrastructure 
   Benjamin Helmich-Paris : MC-RPA, TRAH-(SCF,CASSCF), AVAS, COSX integrals, SCF dyn. polar.
   Lee Huntington         : MR-EOM, pCC
   Robert Izsak           : Overlap fitted RIJCOSX, COSX-SCS-MP3, EOM
   Riya Kayal             : Wick's Theorem for AUTO-CI, AUTO-CI UHF-CCSDT
   Emily Kempfer          : AUTO-CI, RHF CISDT and CCSDT
   Christian Kollmar      : KDIIS, OOCD, Brueckner-CCSD(T), CCSD density, CASPT2, CASPT2-K, improved NEVPT2
   Axel Koslowski         : Symmetry handling
   Simone Kossmann        : Meta GGA functionals, TD-DFT gradient, OOMP2, (MP2 Hessian; deprecated post 5.0)
   Lucas Lang             : DCDCAS
   Marvin Lechner         : AUTO-CI (C++ implementation), FIC-MRCC
   Spencer Leger          : CASSCF response
   Dagmar Lenk            : GEPOL surface, SMD, ORCA-2-JSON
   Dimitrios Liakos       : Extrapolation schemes; Compound Job, initial MDCI parallelization
   Dimitrios Manganas     : Further ROCIS development; embedding schemes. LFT, Crystal Embedding
   Dimitrios Pantazis     : SARC Basis sets
   Anastasios Papadopoulos: AUTO-CI, single reference methods and gradients
   Taras Petrenko         : pre 6.0 DFT Hessian and TD-DFT gradient, (ASA, deprecated), ECA, 1-Electron XAS/XES, NRVS
   Peter Pinski           : DLPNO-MP2, DLPNO-MP2 Gradient
   Christoph Reimann      : Effective Core Potentials
   Marius Retegan         : Local ZFS, SOC
   Christoph Riplinger    : Optimizer, TS searches, QM/MM, DLPNO-CCSD(T), (RO)-DLPNO pert. Triples
   Michael Roemelt        : Original ROCIS implementation
   Masaaki Saitow         : Open-shell DLPNO-CCSD energy and density
   Barbara Sandhoefer     : DKH picture change effects
   Kantharuban Sivalingam : CASSCF convergence/infrastructure, NEVPT2 and variants, FIC-MRCI
   Bernardo de Souza      : ESD, SOC TD-DFT
   Georgi Stoychev        : AutoAux, RI-MP2 NMR, DLPNO-MP2 response, X2C
   Van Anh Tran           : RI-MP2 g-tensors
   Willem Van den Heuvel  : Paramagnetic NMR
   Zikuan Wang            : NOTCH, Electric field optimization 
   Frank Wennmohs         : Technical directorship and infrastructure
   Hang Xu                : AUTO-CI-Response properties 


 We gratefully acknowledge several colleagues who have allowed us to
 interface, adapt or use parts of their codes:
   Stefan Grimme, W. Hujo, H. Kruse, P. Pracht,  : VdW corrections, initial TS optimization,
                  C. Bannwarth, S. Ehlert,         DFT functionals, gCP, sTDA/sTD-DF
                  L. Wittmann, M. Mueller
   Ed Valeev, F. Pavosevic, A. Kumar             : LibInt (2-el integral package), F12 methods
   Garnet Chan, S. Sharma, J. Yang, R. Olivares  : DMRG
   Ulf Ekstrom                                   : XCFun DFT Library
   Mihaly Kallay                                 : mrcc  (arbitrary order and MRCC methods)
   Frank Weinhold                                : gennbo (NPA and NBO analysis)
   Simon Mueller                                 : openCOSMO-RS
   Christopher J. Cramer and Donald G. Truhlar   : smd solvation model
   Lars Goerigk                                  : TD-DFT with DH, B97 family of functionals
   V. Asgeirsson, H. Jonsson                     : NEB implementation
   FAccTs GmbH                                   : IRC, NEB, NEB-TS, DLPNO-Multilevel, CI-OPT
                                                   MM, QMMM, 2- and 3-layer-ONIOM, Crystal-QMMM,
                                                   LR-CPCM, SF, NACMEs, symmetry and pop. for TD-DFT,
                                                   nearIR, NL-DFT gradient (VV10), updates on ESD,
                                                   ML-optimized integration grids, MBIS, APM,
                                                   GOAT, DOCKER, SOLVATOR, interface openCOSMO-RS
   S Lehtola, MJT Oliveira, MAL Marques          : LibXC Library
   Liviu Ungur et al                             : ANISO software


 Your calculation uses the libint2 library for the computation of 2-el integrals
 For citations please refer to: http://libint.valeyev.net

 Your ORCA version has been built with support for libXC version: 6.2.2
 For citations please refer to: https://libxc.gitlab.io

 This ORCA versions uses:
   CBLAS   interface :  Fast vector & matrix operations
   LAPACKE interface :  Fast linear algebra routines
   SCALAPACK package :  Parallel linear algebra routines
   Shared memory     :  Shared parallel matrices
   BLAS/LAPACK       :  OpenBLAS 0.3.27  USE64BITINT DYNAMIC_ARCH NO_AFFINITY SkylakeX SINGLE_THREADED
        Core in use  :  SkylakeX
   Copyright (c) 2011-2014, The OpenBLAS Project


Your calculation utilizes the geometrical counterpoise correction gCP
Please cite in your paper:
H.Kruse, S. Grimme J.Chem.Phys., 136, (2012), 154101 
   

Your calculation utilizes the atom-pairwise dispersion correction
based on EEQ partial charges (D4)


================================================================================

----- Orbital basis set information -----
Your calculation utilizes the basis: def2-mTZVPP
   Stefan Grimme, Andreas Hansen, Sebastian Ehlert, and Jan-Michael Mewes 
   J. Chem. Phys. 154, 064103 (2021). DOI: 10.1063/5.0040021

----- AuxJ basis set information -----
Your calculation utilizes the auxiliary basis: def2/J
   F. Weigend, Phys. Chem. Chem. Phys. 8, 1057 (2006).

================================================================================
                                        WARNINGS
                       Please study these warnings very carefully!
================================================================================

Using LibXC functional ID 497 : Re-regularized SCAN exchange by Furness et al
[ 1]  J. W. Furness, A. D. Kaplan, J. Ning, J. P. Perdew, and J. Sun.,  J. Phys. Chem. Lett. 11, 8208-8215 (2020)
[ 2]  J. W. Furness, A. D. Kaplan, J. Ning, J. P. Perdew, and J. Sun.,  J. Phys. Chem. Lett. 11, 9248-9248 (2020)
Using LibXC functional ID 498 : Re-regularized SCAN correlation by Furness et al
[ 1]  J. W. Furness, A. D. Kaplan, J. Ning, J. P. Perdew, and J. Sun.,  J. Phys. Chem. Lett. 11, 8208-8215 (2020)
[ 2]  J. W. Furness, A. D. Kaplan, J. Ning, J. P. Perdew, and J. Sun.,  J. Phys. Chem. Lett. 11, 9248-9248 (2020)
Using LibXC functional ID 497 : Re-regularized SCAN exchange by Furness et al
[ 1]  J. W. Furness, A. D. Kaplan, J. Ning, J. P. Perdew, and J. Sun.,  J. Phys. Chem. Lett. 11, 8208-8215 (2020)
[ 2]  J. W. Furness, A. D. Kaplan, J. Ning, J. P. Perdew, and J. Sun.,  J. Phys. Chem. Lett. 11, 9248-9248 (2020)
Using LibXC functional ID 498 : Re-regularized SCAN correlation by Furness et al
[ 1]  J. W. Furness, A. D. Kaplan, J. Ning, J. P. Perdew, and J. Sun.,  J. Phys. Chem. Lett. 11, 8208-8215 (2020)
[ 2]  J. W. Furness, A. D. Kaplan, J. Ning, J. P. Perdew, and J. Sun.,  J. Phys. Chem. Lett. 11, 9248-9248 (2020)

================================================================================
                                       INPUT FILE
================================================================================
NAME = sp_gas.inp
|  1> ! r2scan-3c def2/J RI DEFGRID2 scfconv6 printgap
|  2> %output
|  3>     printlevel normal
|  4> end
|  5> * xyz 0 1
|  6> C -3.1447056765 -0.1910834434 0.4239824777
|  7> C -2.1602101735 0.4439004489 -0.5521121782
|  8> C -0.8509390589 -0.3386792901 -0.6777082453
|  9> C 0.0686062168 -0.2109484192 0.5411134385
| 10> C 1.227360546 -1.2107638994 0.4869443755
| 11> C 2.2438883818 -0.5724398324 -0.46315408
| 12> C 2.0370593496 0.9469120941 -0.325726716
| 13> C 0.8073455358 1.1308185577 0.5776043192
| 14> H -4.0741896555 0.3731384715 0.4428093442
| 15> H -3.3691264998 -1.2130086413 0.1260607761
| 16> H -2.7404834258 -0.2094827537 1.4328257085
| 17> H -2.6299363188 0.4940781008 -1.5372590581
| 18> H -1.9499277403 1.467826174 -0.2373135652
| 19> H -1.0929530397 -1.3932196118 -0.8314157819
| 20> H -0.3146443674 0.0091164277 -1.5616492777
| 21> H -0.5229856658 -0.3586277621 1.4474754352
| 22> H 1.6624465521 -1.3113937741 1.4827126213
| 23> H 0.9127902334 -2.1982526539 0.1519994723
| 24> H 3.2622883213 -0.8676264648 -0.2141815411
| 25> H 2.0488502618 -0.8917726273 -1.4869417675
| 26> H 2.9112711959 1.4292259115 0.1100144713
| 27> H 1.868406119 1.3998132672 -1.3025455609
| 28> H 1.1241324097 1.3392423597 1.6005366605
| 29> H 0.1821904939 1.9581591022 0.2464612344
| 30> *
| 31> 
| 32>                          ****END OF INPUT****
================================================================================

                       ****************************
                       * Single Point Calculation *
                       ****************************

---------------------------------
CARTESIAN COORDINATES (ANGSTROEM)
---------------------------------
  C     -3.144706   -0.191083    0.423982
  C     -2.160210    0.443900   -0.552112
  C     -0.850939   -0.338679   -0.677708
  C      0.068606   -0.210948    0.541113
  C      1.227361   -1.210764    0.486944
  C      2.243888   -0.572440   -0.463154
  C      2.037059    0.946912   -0.325727
  C      0.807346    1.130819    0.577604
  H     -4.074190    0.373138    0.442809
  H     -3.369126   -1.213009    0.126061
  H     -2.740483   -0.209483    1.432826
  H     -2.629936    0.494078   -1.537259
  H     -1.949928    1.467826   -0.237314
  H     -1.092953   -1.393220   -0.831416
  H     -0.314644    0.009116   -1.561649
  H     -0.522986   -0.358628    1.447475
  H      1.662447   -1.311394    1.482713
  H      0.912790   -2.198253    0.151999
  H      3.262288   -0.867626   -0.214182
  H      2.048850   -0.891773   -1.486942
  H      2.911271    1.429226    0.110014
  H      1.868406    1.399813   -1.302546
  H      1.124132    1.339242    1.600537
  H      0.182190    1.958159    0.246461

----------------------------
CARTESIAN COORDINATES (A.U.)
----------------------------
  NO LB      ZA    FRAG     MASS         X           Y           Z
   0 C     6.0000    0    12.011   -5.942633   -0.361095    0.801211
   1 C     6.0000    0    12.011   -4.082206    0.838850   -1.043341
   2 C     6.0000    0    12.011   -1.608042   -0.640011   -1.280683
   3 C     6.0000    0    12.011    0.129647   -0.398635    1.022556
   4 C     6.0000    0    12.011    2.319375   -2.288012    0.920192
   5 C     6.0000    0    12.011    4.240335   -1.081755   -0.875234
   6 C     6.0000    0    12.011    3.849484    1.789405   -0.615534
   7 C     6.0000    0    12.011    1.525662    2.136937    1.091514
   8 H     1.0000    0     1.008   -7.699103    0.705130    0.836788
   9 H     1.0000    0     1.008   -6.366726   -2.292254    0.238220
  10 H     1.0000    0     1.008   -5.178763   -0.395865    2.707648
  11 H     1.0000    0     1.008   -4.969859    0.933672   -2.904999
  12 H     1.0000    0     1.008   -3.684829    2.773789   -0.448458
  13 H     1.0000    0     1.008   -2.065382   -2.632804   -1.571148
  14 H     1.0000    0     1.008   -0.594592    0.017228   -2.951089
  15 H     1.0000    0     1.008   -0.988300   -0.677708    2.735332
  16 H     1.0000    0     1.008    3.141569   -2.478175    2.801921
  17 H     1.0000    0     1.008    1.724924   -4.154095    0.287237
  18 H     1.0000    0     1.008    6.164831   -1.639576   -0.404744
  19 H     1.0000    0     1.008    3.871766   -1.685206   -2.809913
  20 H     1.0000    0     1.008    5.501505    2.700846    0.207897
  21 H     1.0000    0     1.008    3.530776    2.645264   -2.461454
  22 H     1.0000    0     1.008    2.124302    2.530801    3.024576
  23 H     1.0000    0     1.008    0.344290    3.700384    0.465744

--------------------------------
INTERNAL COORDINATES (ANGSTROEM)
--------------------------------
 C      0   0   0     0.000000000000     0.00000000     0.00000000
 C      1   0   0     1.524859572611     0.00000000     0.00000000
 C      2   1   0     1.530488899499   113.07360221     0.00000000
 C      3   2   1     1.532124337756   113.92349541   287.00486175
 C      4   3   2     1.531429684077   111.81162179   169.10060742
 C      5   4   3     1.530840792052   104.60557088    80.12230273
 C      6   5   4     1.539511222920   105.48003924    28.90149209
 C      4   3   2     1.532124664024   112.41685750   283.12749722
 H      1   2   3     1.087493120610   110.29496413   182.68743246
 H      1   2   3     1.087866332009   110.43026167   302.49293977
 H      1   2   3     1.086967721191   111.16558705    62.80276734
 H      2   1   3     1.092554265611   108.58663701   120.47063816
 H      2   1   3     1.091668795460   109.29041616   237.39158685
 H      3   2   1     1.092818403854   108.39160156    48.50356585
 H      3   2   1     1.090837112594   108.90769363   165.30679168
 H      4   3   2     1.092374575381   108.88948307    46.66394834
 H      5   4   3     1.091320577892   109.24359618   197.71137649
 H      5   4   3     1.089163261413   112.59794405   317.93710971
 H      6   5   4     1.089156053946   111.46980046   150.53449071
 H      6   5   4     1.090025014038   109.99583724   269.81918254
 H      7   6   5     1.089377507100   111.39767729   114.48333639
 H      7   6   5     1.089834134416   110.54284076   233.78770345
 H      8   4   3     1.090955993426   109.24765026   158.21007503
 H      8   4   3     1.088561870358   112.42355896    38.49917797

---------------------------
INTERNAL COORDINATES (A.U.)
---------------------------
 C      0   0   0     0.000000000000     0.00000000     0.00000000
 C      1   0   0     2.881566984924     0.00000000     0.00000000
 C      2   1   0     2.892204871060   113.07360221     0.00000000
 C      3   2   1     2.895295401474   113.92349541   287.00486175
 C      4   3   2     2.893982696264   111.81162179   169.10060742
 C      5   4   3     2.892869851614   104.60557088    80.12230273
 C      6   5   4     2.909254591417   105.48003924    28.90149209
 C      4   3   2     2.895296018031   112.41685750   283.12749722
 H      1   2   3     2.055064170476   110.29496413   182.68743246
 H      1   2   3     2.055769437810   110.43026167   302.49293977
 H      1   2   3     2.054071309464   111.16558705    62.80276734
 H      2   1   3     2.064628348453   108.58663701   120.47063816
 H      2   1   3     2.062955052367   109.29041616   237.39158685
 H      3   2   1     2.065127497393   108.39160156    48.50356585
 H      3   2   1     2.061383399519   108.90769363   165.30679168
 H      4   3   2     2.064288783129   108.88948307    46.66394834
 H      5   4   3     2.062297016528   109.24359618   197.71137649
 H      5   4   3     2.058220279200   112.59794405   317.93710971
 H      6   5   4     2.058206659061   111.46980046   150.53449071
 H      6   5   4     2.059848755655   109.99583724   269.81918254
 H      7   6   5     2.058625144873   111.39767729   114.48333639
 H      7   6   5     2.059488045446   110.54284076   233.78770345
 H      8   4   3     2.061608051736   109.24765026   158.21007503
 H      8   4   3     2.057083814806   112.42355896    38.49917797

---------------------
BASIS SET INFORMATION
---------------------
There are 2 groups of distinct atoms

 Group   1 Type C   : 11s6p1d contracted to 5s3p1d pattern {62111/411/1}
 Group   2 Type H   : 4s1p contracted to 2s1p pattern {31/1}

Atom   0C    basis set group =>   1
Atom   1C    basis set group =>   1
Atom   2C    basis set group =>   1
Atom   3C    basis set group =>   1
Atom   4C    basis set group =>   1
Atom   5C    basis set group =>   1
Atom   6C    basis set group =>   1
Atom   7C    basis set group =>   1
Atom   8H    basis set group =>   2
Atom   9H    basis set group =>   2
Atom  10H    basis set group =>   2
Atom  11H    basis set group =>   2
Atom  12H    basis set group =>   2
Atom  13H    basis set group =>   2
Atom  14H    basis set group =>   2
Atom  15H    basis set group =>   2
Atom  16H    basis set group =>   2
Atom  17H    basis set group =>   2
Atom  18H    basis set group =>   2
Atom  19H    basis set group =>   2
Atom  20H    basis set group =>   2
Atom  21H    basis set group =>   2
Atom  22H    basis set group =>   2
Atom  23H    basis set group =>   2
---------------------------------
AUXILIARY/J BASIS SET INFORMATION
---------------------------------
There are 2 groups of distinct atoms

 Group   1 Type C   : 12s5p4d2f1g contracted to 6s4p3d1f1g pattern {711111/2111/211/2/1}
 Group   2 Type H   : 5s2p1d contracted to 3s1p1d pattern {311/2/1}

Atom   0C    basis set group =>   1
Atom   1C    basis set group =>   1
Atom   2C    basis set group =>   1
Atom   3C    basis set group =>   1
Atom   4C    basis set group =>   1
Atom   5C    basis set group =>   1
Atom   6C    basis set group =>   1
Atom   7C    basis set group =>   1
Atom   8H    basis set group =>   2
Atom   9H    basis set group =>   2
Atom  10H    basis set group =>   2
Atom  11H    basis set group =>   2
Atom  12H    basis set group =>   2
Atom  13H    basis set group =>   2
Atom  14H    basis set group =>   2
Atom  15H    basis set group =>   2
Atom  16H    basis set group =>   2
Atom  17H    basis set group =>   2
Atom  18H    basis set group =>   2
Atom  19H    basis set group =>   2
Atom  20H    basis set group =>   2
Atom  21H    basis set group =>   2
Atom  22H    basis set group =>   2
Atom  23H    basis set group =>   2

Checking for AutoStart:
The File: sp_gas.gbw exists
Trying to determine its content:
     ... Fine, the file contains calculation information
     ... Fine, the calculation information was read
     ... Fine, the file contains a basis set
     ... Fine, the basis set was read
     ... Fine, the file contains a geometry
     ... Fine, the geometry was read
     ... Fine, the file contains a set of orbitals
     ... Fine, the orbitals can be read
     => possible old guess file was deleted
     => GBW file was renamed to GES file
     => GES file is set as startup file
     => Guess is set to MORead
     ... now leaving AutoStart

------------------------------------------------------------------------------
                             ORCA STARTUP CALCULATIONS
                           -- RI-GTO INTEGRALS CHOSEN --
------------------------------------------------------------------------------
------------------------------------------------------------------------------
                   ___                                                        
                  /   \      - P O W E R E D   B Y -                         
                 /     \                                                     
                 |  |  |   _    _      __       _____    __    __             
                 |  |  |  | |  | |    /  \     |  _  \  |  |  /  |          
                  \  \/   | |  | |   /    \    | | | |  |  | /  /          
                 / \  \   | |__| |  /  /\  \   | |_| |  |  |/  /          
                |  |  |   |  __  | /  /__\  \  |    /   |      \           
                |  |  |   | |  | | |   __   |  |    \   |  |\   \          
                \     /   | |  | | |  |  |  |  | |\  \  |  | \   \       
                 \___/    |_|  |_| |__|  |__|  |_| \__\ |__|  \__/        
                                                                              
                      - O R C A' S   B I G   F R I E N D -                    
                                      &                                       
                       - I N T E G R A L  F E E D E R -                       
                                                                              
 v1 FN, 2020, v2 2021, v3 2022-2024                                           
------------------------------------------------------------------------------


----------------------
SHARK INTEGRAL PACKAGE
----------------------

Number of atoms                             ...     24
Number of basis functions                   ...    232
Number of shells                            ...    120
Maximum angular momentum                    ...      2
Integral batch strategy                     ... SHARK/LIBINT Hybrid
RI-J (if used) integral strategy            ... SPLIT-RIJ (Revised 2003 algorithm where possible)
Printlevel                                  ...      1
Contraction scheme used                     ... SEGMENTED contraction
Prescreening option                         ... SCHWARTZ
   Thresh                                   ... 1.000e-10
   Tcut                                     ... 1.000e-11
   Tpresel                                  ... 1.000e-11 
Coulomb Range Separation                    ... NOT USED
Exchange Range Separation                   ... NOT USED
Multipole approximations                    ... NOT USED
Finite Nucleus Model                        ... NOT USED
CABS basis                                  ... NOT available
Auxiliary Coulomb fitting basis             ... AVAILABLE
   # of basis functions in Aux-J            ...    568
   # of shells in Aux-J                     ...    200
   Maximum angular momentum in Aux-J        ...      4
Auxiliary J/K fitting basis                 ... NOT available
Auxiliary Correlation fitting basis         ... NOT available
Auxiliary 'external' fitting basis          ... NOT available

Checking pre-screening integrals            ... done (  0.0 sec) Dimension = 120
Check shell pair data                       ... done (  0.0 sec)
Shell pair information
Shell pair cut-off parameter TPreSel        ...   1.0e-11
Total number of shell pairs                 ...      7260
Shell pairs after pre-screening             ...      6527
Total number of primitive shell pairs       ...     25424
Primitive shell pairs kept                  ...     16292
          la=0 lb=0:   2358 shell pairs
          la=1 lb=0:   2580 shell pairs
          la=1 lb=1:    740 shell pairs
          la=2 lb=0:    524 shell pairs
          la=2 lb=1:    291 shell pairs
          la=2 lb=2:     34 shell pairs

Calculating one electron integrals          ... done (  0.0 sec)
Calculating RI/J V-Matrix + Cholesky decomp.... done (  0.1 sec)
Calculating Nuclear repulsion               ... done (  0.0 sec) ENN=    402.593609712737 Eh

Diagonalization of the overlap matrix:
Smallest eigenvalue                        ... 4.891e-05
Time for diagonalization                   ...    0.006 sec
Threshold for overlap eigenvalues          ... 1.000e-07
Number of eigenvalues below threshold      ... 0
Time for construction of square roots      ...    0.018 sec
Total time needed                          ...    0.032 sec

-------------------
DFT GRID GENERATION
-------------------

General Integration Accuracy     IntAcc      ... 4.388
Radial Grid Type                 RadialGrid  ... OptM3 with GC (2021)
Angular Grid (max. ang.)         AngularGrid ... 4 (Lebedev-302)
Angular grid pruning method      GridPruning ... 4 (adaptive)
Weight generation scheme         WeightScheme... mBecke (2022)
Basis function cutoff            BFCut       ... 1.0000e-10
Integration weight cutoff        WCut        ... 1.0000e-14
Partially contracted basis set               ... off
Rotationally invariant grid construction     ... off
Angular grids for H and He will be reduced by one unit

Total number of grid points                  ...    98641
Total number of batches                      ...     1552
Average number of points per batch           ...       63
Average number of grid points per atom       ...     4110
Initializing property integral containers    ... done (  0.0 sec)

SHARK setup successfully completed in   1.4 seconds

Maximum memory used throughout the entire STARTUP-calculation: 42.1 MB
-------------------------------------------------------------------------------
                                 ORCA GUESS
                   Start orbitals & Density for SCF / CASSCF
-------------------------------------------------------------------------------

------------
SCF SETTINGS
------------
Hamiltonian:
 Density Functional     Method          .... DFT(GTOs)
  Functional kind                       .... Exchange
  Functional name                       .... Re-regularized SCAN exchange by Furness et al
  Functional family                     .... MGGA
  Functional refs                              
    [ 0] J. W. Furness, A. D. Kaplan, J. Ning, J. P. Perdew, and J. Sun.,  J. Phys. Chem. Lett. 11, 8208-8215 (2020), doi: 10.1021/acs.jpclett.0c02405
    [ 1] J. W. Furness, A. D. Kaplan, J. Ning, J. P. Perdew, and J. Sun.,  J. Phys. Chem. Lett. 11, 9248-9248 (2020), doi: 10.1021/acs.jpclett.0c03077
  Functional external parameters        .... 6
    Parameter  0 _c1        =  6.670000e-01 : c1 parameter        
    Parameter  1 _c2        =  8.000000e-01 : c2 parameter        
    Parameter  2 _d         =  1.240000e+00 : d parameter         
    Parameter  3 _k1        =  6.500000e-02 : k1 parameter        
    Parameter  4 _eta       =  1.000000e-03 : eta parameter       
    Parameter  5 _dp2       =  3.610000e-01 : dp2 parameter       
  Functional kind                       .... Correlation
  Functional name                       .... Re-regularized SCAN correlation by Furness et al
  Functional family                     .... MGGA
  Functional refs                              
    [ 0] J. W. Furness, A. D. Kaplan, J. Ning, J. P. Perdew, and J. Sun.,  J. Phys. Chem. Lett. 11, 8208-8215 (2020), doi: 10.1021/acs.jpclett.0c02405
    [ 1] J. W. Furness, A. D. Kaplan, J. Ning, J. P. Perdew, and J. Sun.,  J. Phys. Chem. Lett. 11, 9248-9248 (2020), doi: 10.1021/acs.jpclett.0c03077
  Functional external parameters        .... 1
    Parameter  0 _eta       =  1.000000e-03 : Regularization parameter
 Gradients option       PostSCFGGA      .... off
 RI-approximation to the Coulomb term is turned on
   Number of AuxJ basis functions       .... 568


General Settings:
 Integral files         IntName         .... sp_gas
 Hartree-Fock type      HFTyp           .... RHF
 Total Charge           Charge          ....    0
 Multiplicity           Mult            ....    1
 Number of Electrons    NEL             ....   64
 Basis Dimension        Dim             ....  232
 Nuclear Repulsion      ENuc            ....    402.5936097127 Eh

Convergence Acceleration:
 AO-DIIS                CNVDIIS         .... on
   Start iteration      DIISMaxIt       ....    12
   Startup error        DIISStart       ....  0.200000
   # of expansion vecs  DIISMaxEq       ....     5
   Bias factor          DIISBfac        ....   1.050
   Max. coefficient     DIISMaxC        ....  10.000
 MO-DIIS                CNVKDIIS        .... off
 Trust-Rad. Augm. Hess. CNVTRAH         .... auto
   Auto Start mean grad. ratio tolernc. ....  1.125000
   Auto Start start iteration           ....     1
   Auto Start num. interpolation iter.  ....    10
   Max. Number of Micro iterations      ....    24
   Max. Number of Macro iterations      .... Maxiter - #DIIS iter
   Number of Davidson start vectors     ....     2
   Converg. threshold    (grad. norm)   ....   3.330e-04
   Grad. Scal. Fac. for Micro threshold ....   0.100
   Minimum threshold for Micro iter.    ....   1.000e-02
   NR start threshold (gradient norm)   ....   1.000e-04
   Initial trust radius                 ....   0.400
   Minimum AH scaling param. (alpha)    ....   1.000
   Maximum AH scaling param. (alpha)    .... 1000.000
   Quad. conv. algorithm                .... NR
   White noise on init. David. guess    .... on
   Maximum white noise                  ....   0.010
   Pseudo random numbers                .... off
   Inactive MOs                         .... canonical
   Orbital update algorithm             .... Taylor
   Preconditioner                       .... Diag
   Full preconditioner red. dimension   ....   250
   COSX micro iterations for RIJONX calc.... off
 SOSCF                  CNVSOSCF        .... on
   Start iteration      SOSCFMaxIt      ....   150
   Startup grad/error   SOSCFStart      ....  0.003300
   Hessian update       SOSCFHessUp     .... L-BFGS
 Level Shifting         CNVShift        .... on
   Level shift para.    LevelShift      ....    0.2500
   Turn off err/grad.   ShiftErr        ....    0.0010
 Zerner damping         CNVZerner       .... off
 Static damping         CNVDamp         .... on
   Fraction old density DampFac         ....    0.7000
   Max. Damping (<1)    DampMax         ....    0.9800
   Min. Damping (>=0)   DampMin         ....    0.0000
   Turn off err/grad.   DampErr         ....    0.1000

SCF Procedure:
 Maximum # iterations   MaxIter         ....   125
 SCF integral mode      SCFMode         .... Direct
   Integral package                     .... SHARK and LIBINT hybrid scheme
 Reset frequency        DirectResetFreq ....    20
 Integral Threshold     Thresh          ....  1.000e-10 Eh
 Primitive CutOff       TCut            ....  1.000e-11 Eh

Convergence Tolerance:
 Convergence Check Mode ConvCheckMode   .... Total+1el-Energy
 Convergence forced     ConvForced      .... 0
 Energy Change          TolE            ....  1.000e-06 Eh
 1-El. energy change                    ....  1.000e-03 Eh
 Orbital Gradient       TolG            ....  3.330e-04
 Orbital Rotation angle TolX            ....  3.330e-04
 DIIS Error             TolErr          ....  1.000e-06

---------------------
INITIAL GUESS: MOREAD
---------------------
Guess MOs are being read from file: sp_gas.ges
Input Geometry matches current geometry (good)
Atom 0: N(Shells)= 9 and 6 - projection required
Input basis set needs projection
NBasis(read)= 144
NBasis(calc)= 232
Basis set overlap was calculated
Using GuessMode=FMatrix for the initial guess
C*T matrix was formed
Effective Fockian was calculated
Effective Fockian was diagonalized
Initial density was built
                      ------------------
                      INITIAL GUESS DONE (   0.1 sec)
                      ------------------
             **** ENERGY FILE WAS UPDATED (sp_gas.en.tmp) ****
Finished Guess after   0.3 sec
Maximum memory used throughout the entire GUESS-calculation: 16.7 MB

-------------------------------------------------------------------------------------------
                                      ORCA LEAN-SCF
                              memory conserving SCF solver
-------------------------------------------------------------------------------------------

----------------------------------------D-I-I-S--------------------------------------------
Iteration    Energy (Eh)           Delta-E    RMSDP     MaxDP     DIISErr   Damp  Time(sec)
-------------------------------------------------------------------------------------------
               ***  Starting incremental Fock matrix formation  ***
    1    -314.2206537338475414     0.00e+00  8.62e-03  4.31e-01  2.83e-01  0.700   3.4
    2    -314.2690378764838783    -4.84e-02  6.44e-03  3.02e-01  1.99e-01  0.700   3.1
                               ***Turning on AO-DIIS***
    3    -314.3032695337353175    -3.42e-02  4.61e-03  2.10e-01  1.39e-01  0.700   3.0
    4    -314.3272987027079921    -2.40e-02  3.25e-03  1.46e-01  9.73e-02  0.700   3.0
    5    -314.3441510161168821    -1.69e-02  7.62e-03  3.41e-01  6.81e-02  0.000   2.9
                              *** Initializing SOSCF ***
---------------------------------------S-O-S-C-F--------------------------------------
Iteration    Energy (Eh)           Delta-E    RMSDP     MaxDP     MaxGrad    Time(sec)
--------------------------------------------------------------------------------------
    6    -314.3835931668784838    -3.94e-02  5.58e-05  1.17e-03  1.94e-04     3.1
               *** Restarting incremental Fock matrix formation ***
    7    -314.3835938020959588    -6.35e-07  1.87e-05  4.45e-04  2.50e-05     3.4
                  *** Gradient check signals convergence ***

               *****************************************************
               *                     SUCCESS                       *
               *           SCF CONVERGED AFTER   7 CYCLES          *
               *****************************************************

             **** ENERGY FILE WAS UPDATED (sp_gas.en.tmp) ****

----------------
TOTAL SCF ENERGY
----------------

Total Energy       :       -314.38359380209596 Eh           -8554.81251 eV

Components:
Nuclear Repulsion  :        402.59360971273719 Eh           10955.12907 eV
Electronic Energy  :       -716.97720351483315 Eh          -19509.94157 eV
One Electron Energy:      -1220.15314250981442 Eh          -33202.05497 eV
Two Electron Energy:        503.17593899498127 Eh           13692.11339 eV

Virial components:
Potential Energy   :       -627.30815631933990 Eh          -17069.92275 eV
Kinetic Energy     :        312.92456251724394 Eh            8515.11025 eV
Virial Ratio       :          2.00466256554971

DFT components:
N(Alpha)           :       32.000101566758 electrons
N(Beta)            :       32.000101566758 electrons
N(Total)           :       64.000203133516 electrons
E(X)               :      -47.378625567145 Eh       
E(C)               :       -1.993543025354 Eh       
E(XC)              :      -49.372168592499 Eh       

---------------
SCF CONVERGENCE
---------------

  Last Energy change         ...    6.3522e-07  Tolerance :   1.0000e-06
  Last MAX-Density change    ...    4.4549e-04  Tolerance :   1.0000e-05
  Last RMS-Density change    ...    1.8690e-05  Tolerance :   1.0000e-06
  Last DIIS Error            ...    1.9390e-04  Tolerance :   1.0000e-06
  Last Orbital Gradient      ...    2.4976e-05  Tolerance :   3.3300e-04
  Last Orbital Rotation      ...    4.5375e-05  Tolerance :   3.3300e-04


----------------
ORBITAL ENERGIES
----------------

  NO   OCC          E(Eh)            E(eV) 
   0   2.0000     -10.023661      -272.7577 
   1   2.0000     -10.021660      -272.7032 
   2   2.0000     -10.018182      -272.6086 
   3   2.0000     -10.017849      -272.5995 
   4   2.0000     -10.017340      -272.5857 
   5   2.0000     -10.016835      -272.5719 
   6   2.0000     -10.016325      -272.5581 
   7   2.0000     -10.013220      -272.4736 
   8   2.0000      -0.806247       -21.9391 
   9   2.0000      -0.747128       -20.3304 
  10   2.0000      -0.682459       -18.5707 
  11   2.0000      -0.671163       -18.2633 
  12   2.0000      -0.628690       -17.1075 
  13   2.0000      -0.556537       -15.1441 
  14   2.0000      -0.524853       -14.2820 
  15   2.0000      -0.502701       -13.6792 
  16   2.0000      -0.455610       -12.3978 
  17   2.0000      -0.443052       -12.0561 
  18   2.0000      -0.414453       -11.2778 
  19   2.0000      -0.397000       -10.8029 
  20   2.0000      -0.388955       -10.5840 
  21   2.0000      -0.368742       -10.0340 
  22   2.0000      -0.353583        -9.6215 
  23   2.0000      -0.322092        -8.7646 
  24   2.0000      -0.315502        -8.5852 
  25   2.0000      -0.312001        -8.4900 
  26   2.0000      -0.301879        -8.2145 
  27   2.0000      -0.298915        -8.1339 
  28   2.0000      -0.284856        -7.7513 
  29   2.0000      -0.280474        -7.6321 
  30   2.0000      -0.273728        -7.4485 
  31   2.0000      -0.268012        -7.2930 
  32   0.0000       0.075865         2.0644 
  33   0.0000       0.094794         2.5795 
  34   0.0000       0.103187         2.8079 
  35   0.0000       0.114047         3.1034 
  36   0.0000       0.123018         3.3475 
  37   0.0000       0.126661         3.4466 
  38   0.0000       0.128486         3.4963 
  39   0.0000       0.133506         3.6329 
  40   0.0000       0.144994         3.9455 
  41   0.0000       0.148684         4.0459 
  42   0.0000       0.168741         4.5917 
*Only the first 10 virtual orbitals were printed.

                    ********************************
                    * MULLIKEN POPULATION ANALYSIS *
                    ********************************

-----------------------
MULLIKEN ATOMIC CHARGES
-----------------------
   0 C :   -0.490839
   1 C :   -0.221695
   2 C :   -0.315540
   3 C :    0.023061
   4 C :   -0.354581
   5 C :   -0.317485
   6 C :   -0.340698
   7 C :   -0.374721
   8 H :    0.146796
   9 H :    0.142789
  10 H :    0.144665
  11 H :    0.143119
  12 H :    0.128137
  13 H :    0.141683
  14 H :    0.149517
  15 H :    0.153725
  16 H :    0.158374
  17 H :    0.151629
  18 H :    0.151649
  19 H :    0.159831
  20 H :    0.152060
  21 H :    0.160807
  22 H :    0.157217
  23 H :    0.150502
Sum of atomic charges:    0.0000000

--------------------------------
MULLIKEN REDUCED ORBITAL CHARGES
--------------------------------
  0 C s       :     3.333214  s :     3.333214
      pz      :     1.026226  p :     3.130451
      px      :     1.044731
      py      :     1.059494
      dz2     :     0.008061  d :     0.027173
      dxz     :     0.005122
      dyz     :     0.002771
      dx2y2   :     0.005473
      dxy     :     0.005746

  1 C s       :     3.185126  s :     3.185126
      pz      :     1.045077  p :     2.999415
      px      :     0.946499
      py      :     1.007838
      dz2     :     0.008028  d :     0.037154
      dxz     :     0.009120
      dyz     :     0.003777
      dx2y2   :     0.008830
      dxy     :     0.007400

  2 C s       :     3.209699  s :     3.209699
      pz      :     1.015384  p :     3.069127
      px      :     0.981181
      py      :     1.072562
      dz2     :     0.007680  d :     0.036714
      dxz     :     0.010235
      dyz     :     0.003721
      dx2y2   :     0.008240
      dxy     :     0.006837

  3 C s       :     3.029573  s :     3.029573
      pz      :     1.051312  p :     2.901750
      px      :     0.959675
      py      :     0.890762
      dz2     :     0.008901  d :     0.045617
      dxz     :     0.011915
      dyz     :     0.005336
      dx2y2   :     0.007750
      dxy     :     0.011715

  4 C s       :     3.291688  s :     3.291688
      pz      :     1.037892  p :     3.026507
      px      :     0.955331
      py      :     1.033284
      dz2     :     0.008149  d :     0.036386
      dxz     :     0.007984
      dyz     :     0.004254
      dx2y2   :     0.007427
      dxy     :     0.008573

  5 C s       :     3.246713  s :     3.246713
      pz      :     1.039376  p :     3.035339
      px      :     1.077916
      py      :     0.918047
      dz2     :     0.008655  d :     0.035432
      dxz     :     0.004570
      dyz     :     0.006307
      dx2y2   :     0.009375
      dxy     :     0.006525

  6 C s       :     3.281728  s :     3.281728
      pz      :     1.054230  p :     3.023981
      px      :     1.018594
      py      :     0.951157
      dz2     :     0.006830  d :     0.034989
      dxz     :     0.006102
      dyz     :     0.006614
      dx2y2   :     0.008434
      dxy     :     0.007010

  7 C s       :     3.274576  s :     3.274576
      pz      :     1.068513  p :     3.064336
      px      :     0.980818
      py      :     1.015005
      dz2     :     0.008463  d :     0.035809
      dxz     :     0.007141
      dyz     :     0.004164
      dx2y2   :     0.006556
      dxy     :     0.009485

  8 H s       :     0.834911  s :     0.834911
      pz      :     0.003731  p :     0.018293
      px      :     0.009030
      py      :     0.005533

  9 H s       :     0.838996  s :     0.838996
      pz      :     0.004141  p :     0.018215
      px      :     0.003950
      py      :     0.010124

 10 H s       :     0.836889  s :     0.836889
      pz      :     0.009976  p :     0.018446
      px      :     0.004747
      py      :     0.003722

 11 H s       :     0.839067  s :     0.839067
      pz      :     0.009404  p :     0.017815
      px      :     0.004818
      py      :     0.003593

 12 H s       :     0.853789  s :     0.853789
      pz      :     0.004123  p :     0.018074
      px      :     0.003792
      py      :     0.010159

 13 H s       :     0.840447  s :     0.840447
      pz      :     0.003698  p :     0.017870
      px      :     0.003731
      py      :     0.010441

 14 H s       :     0.832431  s :     0.832431
      pz      :     0.008410  p :     0.018052
      px      :     0.005397
      py      :     0.004245

 15 H s       :     0.828320  s :     0.828320
      pz      :     0.008627  p :     0.017955
      px      :     0.005657
      py      :     0.003671

 16 H s       :     0.823764  s :     0.823764
      pz      :     0.009580  p :     0.017861
      px      :     0.004758
      py      :     0.003523

 17 H s       :     0.830221  s :     0.830221
      pz      :     0.004255  p :     0.018150
      px      :     0.004187
      py      :     0.009708

 18 H s       :     0.830128  s :     0.830128
      pz      :     0.004016  p :     0.018223
      px      :     0.010055
      py      :     0.004152

 19 H s       :     0.822140  s :     0.822140
      pz      :     0.009989  p :     0.018029
      px      :     0.003860
      py      :     0.004181

 20 H s       :     0.829694  s :     0.829694
      pz      :     0.004817  p :     0.018246
      px      :     0.008372
      py      :     0.005057

 21 H s       :     0.821067  s :     0.821067
      pz      :     0.009444  p :     0.018125
      px      :     0.003833
      py      :     0.004848

 22 H s       :     0.824853  s :     0.824853
      pz      :     0.009931  p :     0.017930
      px      :     0.004174
      py      :     0.003825

 23 H s       :     0.831132  s :     0.831132
      pz      :     0.004257  p :     0.018366
      px      :     0.006174
      py      :     0.007935


------------------------
MULLIKEN OVERLAP CHARGES
------------------------
B(  0-C ,  1-C ) :   0.4954 B(  0-C ,  2-C ) :  -0.2306 B(  0-C ,  8-H ) :   0.8017 
B(  0-C ,  9-H ) :   0.8438 B(  0-C , 10-H ) :   0.8635 B(  0-C , 12-H ) :  -0.0709 
B(  1-C ,  2-C ) :   0.4516 B(  1-C ,  3-C ) :  -0.1690 B(  1-C ,  8-H ) :  -0.0812 
B(  1-C ,  9-H ) :  -0.0901 B(  1-C , 10-H ) :  -0.1053 B(  1-C , 11-H ) :   0.8189 
B(  1-C , 12-H ) :   0.8684 B(  1-C , 13-H ) :  -0.0741 B(  1-C , 14-H ) :  -0.0527 
B(  2-C ,  3-C ) :   0.4648 B(  2-C ,  4-C ) :  -0.1602 B(  2-C ,  7-C ) :  -0.2018 
B(  2-C , 11-H ) :  -0.0963 B(  2-C , 12-H ) :  -0.1119 B(  2-C , 13-H ) :   0.8557 
B(  2-C , 14-H ) :   0.8017 B(  2-C , 15-H ) :  -0.0966 B(  3-C ,  4-C ) :   0.4307 
B(  3-C ,  5-C ) :  -0.2742 B(  3-C ,  6-C ) :  -0.2266 B(  3-C ,  7-C ) :   0.4038 
B(  3-C , 13-H ) :  -0.1351 B(  3-C , 14-H ) :  -0.0718 B(  3-C , 15-H ) :   0.8267 
B(  3-C , 16-H ) :  -0.1097 B(  3-C , 17-H ) :  -0.0785 B(  3-C , 22-H ) :  -0.0832 
B(  3-C , 23-H ) :  -0.0805 B(  4-C ,  5-C ) :   0.4219 B(  4-C ,  6-C ) :  -0.1455 
B(  4-C ,  7-C ) :  -0.3154 B(  4-C , 15-H ) :  -0.0535 B(  4-C , 16-H ) :   0.8638 
B(  4-C , 17-H ) :   0.8034 B(  4-C , 18-H ) :  -0.0607 B(  4-C , 19-H ) :  -0.0946 
B(  5-C ,  6-C ) :   0.4690 B(  5-C ,  7-C ) :  -0.0752 B(  5-C , 16-H ) :  -0.0849 
B(  5-C , 17-H ) :  -0.0501 B(  5-C , 18-H ) :   0.7904 B(  5-C , 19-H ) :   0.8858 
B(  5-C , 21-H ) :  -0.0968 B(  6-C ,  7-C ) :   0.3591 B(  6-C , 19-H ) :  -0.0864 
B(  6-C , 20-H ) :   0.8037 B(  6-C , 21-H ) :   0.8816 B(  7-C , 15-H ) :  -0.0613 
B(  7-C , 20-H ) :  -0.0611 B(  7-C , 21-H ) :  -0.0826 B(  7-C , 22-H ) :   0.7998 
B(  7-C , 23-H ) :   0.7983 B(  9-H , 10-H ) :  -0.0503 


                     *******************************
                     * LOEWDIN POPULATION ANALYSIS *
                     *******************************

----------------------
LOEWDIN ATOMIC CHARGES
----------------------
   0 C :   -0.426273
   1 C :   -0.314281
   2 C :   -0.295632
   3 C :   -0.229011
   4 C :   -0.297355
   5 C :   -0.308553
   6 C :   -0.310500
   7 C :   -0.299428
   8 H :    0.150241
   9 H :    0.149536
  10 H :    0.147574
  11 H :    0.151537
  12 H :    0.151686
  13 H :    0.157540
  14 H :    0.160876
  15 H :    0.159947
  16 H :    0.157105
  17 H :    0.158037
  18 H :    0.155346
  19 H :    0.154867
  20 H :    0.156336
  21 H :    0.155071
  22 H :    0.157483
  23 H :    0.157850

-------------------------------
LOEWDIN REDUCED ORBITAL CHARGES
-------------------------------
  0 C s       :     2.973410  s :     2.973410
      pz      :     1.128117  p :     3.389292
      px      :     1.118317
      py      :     1.142859
      dz2     :     0.018661  d :     0.063571
      dxz     :     0.012211
      dyz     :     0.006302
      dx2y2   :     0.012759
      dxy     :     0.013638

  1 C s       :     2.936898  s :     2.936898
      pz      :     1.116048  p :     3.297340
      px      :     1.064682
      py      :     1.116611
      dz2     :     0.017442  d :     0.080043
      dxz     :     0.019823
      dyz     :     0.008111
      dx2y2   :     0.018656
      dxy     :     0.016011

  2 C s       :     2.930051  s :     2.930051
      pz      :     1.101934  p :     3.285821
      px      :     1.061000
      py      :     1.122888
      dz2     :     0.016861  d :     0.079759
      dxz     :     0.022642
      dyz     :     0.007511
      dx2y2   :     0.017990
      dxy     :     0.014755

  3 C s       :     2.903876  s :     2.903876
      pz      :     1.104699  p :     3.230354
      px      :     1.066829
      py      :     1.058827
      dz2     :     0.018970  d :     0.094782
      dxz     :     0.026155
      dyz     :     0.009181
      dx2y2   :     0.014603
      dxy     :     0.025872

  4 C s       :     2.935376  s :     2.935376
      pz      :     1.119272  p :     3.282300
      px      :     1.064659
      py      :     1.098369
      dz2     :     0.018080  d :     0.079678
      dxz     :     0.017738
      dyz     :     0.009105
      dx2y2   :     0.014869
      dxy     :     0.019886

  5 C s       :     2.935737  s :     2.935737
      pz      :     1.123576  p :     3.295519
      px      :     1.115054
      py      :     1.056889
      dz2     :     0.019772  d :     0.077298
      dxz     :     0.010250
      dyz     :     0.012757
      dx2y2   :     0.021398
      dxy     :     0.013121

  6 C s       :     2.936942  s :     2.936942
      pz      :     1.127421  p :     3.297405
      px      :     1.098483
      py      :     1.071501
      dz2     :     0.014924  d :     0.076153
      dxz     :     0.014353
      dyz     :     0.013702
      dx2y2   :     0.019299
      dxy     :     0.013875

  7 C s       :     2.934066  s :     2.934066
      pz      :     1.123754  p :     3.286884
      px      :     1.076121
      py      :     1.087009
      dz2     :     0.019133  d :     0.078478
      dxz     :     0.015991
      dyz     :     0.008333
      dx2y2   :     0.013707
      dxy     :     0.021314

  8 H s       :     0.806304  s :     0.806304
      pz      :     0.008293  p :     0.043454
      px      :     0.022043
      py      :     0.013118

  9 H s       :     0.807150  s :     0.807150
      pz      :     0.009489  p :     0.043313
      px      :     0.008785
      py      :     0.025040

 10 H s       :     0.808400  s :     0.808400
      pz      :     0.024661  p :     0.044026
      px      :     0.011211
      py      :     0.008155

 11 H s       :     0.805391  s :     0.805391
      pz      :     0.023199  p :     0.043072
      px      :     0.011621
      py      :     0.008251

 12 H s       :     0.804809  s :     0.804809
      pz      :     0.009771  p :     0.043505
      px      :     0.008920
      py      :     0.024814

 13 H s       :     0.799152  s :     0.799152
      pz      :     0.008659  p :     0.043308
      px      :     0.008762
      py      :     0.025888

 14 H s       :     0.795134  s :     0.795134
      pz      :     0.020798  p :     0.043990
      px      :     0.013122
      py      :     0.010071

 15 H s       :     0.795689  s :     0.795689
      pz      :     0.021151  p :     0.044364
      px      :     0.014137
      py      :     0.009075

 16 H s       :     0.799163  s :     0.799163
      pz      :     0.023762  p :     0.043733
      px      :     0.011504
      py      :     0.008467

 17 H s       :     0.797992  s :     0.797992
      pz      :     0.010069  p :     0.043971
      px      :     0.009882
      py      :     0.024020

 18 H s       :     0.800634  s :     0.800634
      pz      :     0.009495  p :     0.044020
      px      :     0.024737
      py      :     0.009789

 19 H s       :     0.801055  s :     0.801055
      pz      :     0.024854  p :     0.044078
      px      :     0.009285
      py      :     0.009939

 20 H s       :     0.799642  s :     0.799642
      pz      :     0.011502  p :     0.044022
      px      :     0.020391
      py      :     0.012128

 21 H s       :     0.800821  s :     0.800821
      pz      :     0.023336  p :     0.044108
      px      :     0.009066
      py      :     0.011705

 22 H s       :     0.798604  s :     0.798604
      pz      :     0.024636  p :     0.043913
      px      :     0.009949
      py      :     0.009328

 23 H s       :     0.797592  s :     0.797592
      pz      :     0.010125  p :     0.044558
      px      :     0.014929
      py      :     0.019504


---------------------------------
LOEWDIN BOND ORDERS (THRESH 0.050000)
---------------------------------
B(  0-C ,  1-C ) :   1.1418 B(  0-C ,  2-C ) :   0.0656 B(  0-C ,  8-H ) :   0.9309 
B(  0-C ,  9-H ) :   0.9302 B(  0-C , 10-H ) :   0.9284 B(  1-C ,  2-C ) :   1.1060 
B(  1-C ,  3-C ) :   0.0626 B(  1-C , 11-H ) :   0.8950 B(  1-C , 12-H ) :   0.8912 
B(  2-C ,  3-C ) :   1.0626 B(  2-C ,  4-C ) :   0.0691 B(  2-C ,  7-C ) :   0.0604 
B(  2-C , 13-H ) :   0.8828 B(  2-C , 14-H ) :   0.8782 B(  3-C ,  4-C ) :   1.0668 
B(  3-C ,  5-C ) :   0.0698 B(  3-C ,  6-C ) :   0.0664 B(  3-C ,  7-C ) :   1.0649 
B(  3-C , 15-H ) :   0.8569 B(  4-C ,  5-C ) :   1.0922 B(  4-C ,  6-C ) :   0.0655 
B(  4-C ,  7-C ) :   0.0769 B(  4-C , 16-H ) :   0.8884 B(  4-C , 17-H ) :   0.8940 
B(  5-C ,  6-C ) :   1.0855 B(  5-C ,  7-C ) :   0.0635 B(  5-C , 18-H ) :   0.9033 
B(  5-C , 19-H ) :   0.8995 B(  6-C ,  7-C ) :   1.0867 B(  6-C , 20-H ) :   0.9036 
B(  6-C , 21-H ) :   0.9031 B(  7-C , 22-H ) :   0.8918 B(  7-C , 23-H ) :   0.8915 


------------------------------------------
LOEWDIN REDUCED ORBITAL POPULATIONS PER MO
-------------------------------------------
THRESHOLD FOR PRINTING IS 0.1%%
                      0         1         2         3         4         5   
                 -10.02366 -10.02166 -10.01818 -10.01785 -10.01734 -10.01684
                   2.00000   2.00000   2.00000   2.00000   2.00000   2.00000
                  --------  --------  --------  --------  --------  --------
 1 C  s               0.0      99.6       0.1       0.0       0.0       0.0
 2 C  s               0.0       0.1      99.6       0.0       0.0       0.0
 3 C  s              99.6       0.0       0.0       0.0       0.0       0.0
 4 C  s               0.0       0.0       0.0       0.0       0.4       0.0
 5 C  s               0.0       0.0       0.0       1.3      97.9       0.0
 6 C  s               0.0       0.0       0.0      98.0       1.3       0.4
 7 C  s               0.0       0.0       0.0       0.4       0.0      99.3

                      6         7         8         9        10        11   
                 -10.01633 -10.01322  -0.80625  -0.74713  -0.68246  -0.67116
                   2.00000   2.00000   2.00000   2.00000   2.00000   2.00000
                  --------  --------  --------  --------  --------  --------
 0 C  s               0.0      99.7       0.6      14.0      12.5       0.3
 0 C  pz              0.0       0.0       0.1       1.0       0.1       0.0
 0 C  px              0.0       0.0       0.3       1.3       0.0       0.0
 0 C  py              0.0       0.0       0.0       0.3       0.1       0.0
 1 C  s               0.0       0.0       2.3      23.6       3.6       0.0
 1 C  pz              0.0       0.0       0.0       0.3       0.6       0.0
 1 C  px              0.0       0.0       0.6       0.0       4.1       0.1
 1 C  py              0.0       0.0       0.2       1.0       0.0       0.0
 2 C  s               0.0       0.0       6.7      13.0       4.6       0.0
 2 C  pz              0.0       0.0       1.2       0.1       0.7       0.0
 2 C  px              0.0       0.0       0.6       3.0       2.9       0.0
 2 C  py              0.0       0.0       0.1       0.6       0.2       0.5
 3 C  s               0.0       0.0      16.8       0.5      11.5       0.1
 3 C  pz              0.0       0.0       0.6       0.8       0.1       0.0
 3 C  px              0.0       0.0       1.3       4.2       0.4       0.3
 3 C  py              0.0       0.0       0.1       0.0       0.3       9.2
 3 C  dxy             0.0       0.0       0.0       0.0       0.0       0.3
 4 C  s              99.3       0.0      12.0       1.4       0.9      16.6
 4 C  pz              0.0       0.0       0.4       0.1       0.7       0.4
 4 C  px              0.0       0.0       0.1       1.0       4.4       0.8
 4 C  py              0.0       0.0       2.6       0.1       0.0       0.6
 4 C  dxy             0.0       0.0       0.0       0.0       0.1       0.0
 5 C  s               0.4       0.0       9.7       4.6       8.2       8.5
 5 C  pz              0.0       0.0       0.7       0.1       0.2       0.4
 5 C  px              0.0       0.0       1.5       0.1       0.5       0.3
 5 C  py              0.0       0.0       0.4       0.3       1.7       4.8
 6 C  s               0.0       0.0       9.5       4.3      11.3       5.7
 6 C  pz              0.0       0.0       0.4       0.0       0.2       0.9
 6 C  px              0.0       0.0       1.0       0.0       0.6       1.9
 6 C  py              0.0       0.0       1.2       0.4       0.4       4.0
 6 C  dx2y2           0.0       0.0       0.0       0.0       0.0       0.1
 7 C  s               0.0       0.0      11.9       1.0       0.0      18.8
 7 C  pz              0.0       0.0       0.5       0.1       0.7       0.1
 7 C  px              0.0       0.0       0.0       1.3       3.8       0.1
 7 C  py              0.0       0.0       2.5       0.0       1.1       0.8
 8 H  s               0.0       0.0       0.1       2.0       2.6       0.1
 8 H  px              0.0       0.0       0.0       0.1       0.2       0.0
 9 H  s               0.0       0.0       0.1       2.0       2.4       0.1
 9 H  py              0.0       0.0       0.0       0.2       0.2       0.0
10 H  s               0.0       0.0       0.1       2.0       2.3       0.1
10 H  pz              0.0       0.0       0.0       0.2       0.2       0.0
11 H  s               0.0       0.0       0.2       3.4       0.8       0.0
11 H  pz              0.0       0.0       0.0       0.2       0.1       0.0
12 H  s               0.0       0.0       0.3       3.3       0.6       0.0
12 H  py              0.0       0.0       0.0       0.3       0.0       0.0
13 H  s               0.0       0.0       0.7       1.9       0.8       0.0
13 H  py              0.0       0.0       0.1       0.2       0.1       0.0
14 H  s               0.0       0.0       0.8       1.7       0.8       0.0
15 H  s               0.0       0.0       1.7       0.1       2.2       0.0
15 H  pz              0.0       0.0       0.1       0.0       0.2       0.0
16 H  s               0.0       0.0       1.3       0.2       0.2       3.3
16 H  pz              0.0       0.0       0.1       0.0       0.0       0.3
17 H  s               0.0       0.0       1.2       0.1       0.2       3.8
17 H  py              0.0       0.0       0.1       0.0       0.0       0.3
18 H  s               0.0       0.0       1.0       0.6       1.7       1.9
18 H  px              0.0       0.0       0.1       0.1       0.1       0.2
19 H  s               0.0       0.0       1.0       0.6       1.5       1.8
19 H  pz              0.0       0.0       0.1       0.0       0.1       0.2
20 H  s               0.0       0.0       1.0       0.6       2.3       1.3
20 H  px              0.0       0.0       0.1       0.0       0.1       0.1
21 H  s               0.0       0.0       0.9       0.6       2.2       1.3
21 H  pz              0.0       0.0       0.1       0.0       0.1       0.1
22 H  s               0.0       0.0       1.2       0.1       0.0       3.9
22 H  pz              0.0       0.0       0.1       0.0       0.0       0.3
23 H  s               0.0       0.0       1.2       0.1       0.0       4.3
23 H  px              0.0       0.0       0.0       0.0       0.0       0.1
23 H  py              0.0       0.0       0.1       0.0       0.0       0.2

                     12        13        14        15        16        17   
                  -0.62869  -0.55654  -0.52485  -0.50270  -0.45561  -0.44305
                   2.00000   2.00000   2.00000   2.00000   2.00000   2.00000
                  --------  --------  --------  --------  --------  --------
 0 C  s              13.2       6.1       0.0       0.7       0.1       0.0
 0 C  pz              0.6       3.4       0.2       0.2       0.1       1.3
 0 C  px              0.7       1.6       0.0       0.9       1.8       0.1
 0 C  py              0.0       2.4       0.0       1.4       0.8       1.2
 1 C  s               1.0      13.1       0.2       1.7       0.1       0.0
 1 C  pz              2.8       2.4       0.3       0.5       0.6       3.1
 1 C  px              6.4       0.0       0.1       0.3       1.2       0.4
 1 C  py              0.0       4.7       0.0       2.7       2.6       3.5
 1 C  dxy             0.1       0.0       0.0       0.0       0.0       0.0
 2 C  s              12.2       3.0       0.0       3.6       0.3       0.3
 2 C  pz              1.9       0.4       0.2       8.0       1.7       2.4
 2 C  px              0.3       4.2       0.2       0.0       4.6       1.3
 2 C  py              0.0       3.5       0.7       1.4       1.8       1.2
 2 C  dxy             0.0       0.1       0.0       0.0       0.0       0.0
 3 C  s               2.3       1.5       0.3       9.0       0.2       0.1
 3 C  pz              4.3       1.3       0.0       4.4       8.3       0.6
 3 C  px              2.7       2.6       0.6       1.5       7.1       4.1
 3 C  py              0.0       0.7       6.4       0.2       0.4       0.1
 3 C  dxy             0.0       0.0       0.1       0.0       0.0       0.0
 4 C  s               3.2       2.5       5.6       1.7       0.2       0.7
 4 C  pz              1.5       0.6       3.3       0.4       3.7       1.7
 4 C  px              0.7       1.2       2.0       2.3       0.7       0.7
 4 C  py              0.0       0.3       2.1       3.2       3.5      11.7
 4 C  dxz             0.0       0.0       0.1       0.0       0.0       0.0
 5 C  s               3.3       0.0      10.6       0.1       0.5       0.1
 5 C  pz              1.0       1.0       2.6       0.5       0.5       6.2
 5 C  px              0.6       0.1       2.0       0.5      11.4       0.1
 5 C  py              0.9       1.4       2.5       3.2       0.7       2.6
 6 C  s               3.2       1.4       8.6       1.2       0.2       0.2
 6 C  pz              1.1       1.2       0.1       1.7       1.4       8.0
 6 C  px              1.0       0.5       0.6       2.6       7.8       0.4
 6 C  py              0.3       0.0       6.4       0.5       1.7       4.7
 7 C  s               3.2       2.4       2.2       4.8       0.3       0.1
 7 C  pz              1.4       0.9       1.4       0.1       7.3       3.5
 7 C  px              0.6       0.0       5.6       0.3       0.1       4.4
 7 C  py              0.2       0.6       0.0       6.3       3.9       8.0
 7 C  dxy             0.0       0.0       0.0       0.1       0.0       0.0
 8 H  s               3.8       2.3       0.0       0.4       0.9       0.0
 8 H  px              0.2       0.1       0.0       0.0       0.0       0.0
 9 H  s               3.3       3.3       0.0       1.1       0.0       0.6
 9 H  py              0.2       0.2       0.0       0.0       0.0       0.0
10 H  s               3.6       3.4       0.1       0.2       0.1       0.5
10 H  pz              0.2       0.2       0.0       0.0       0.0       0.0
11 H  s               0.3       6.4       0.2       0.4       0.6       0.9
11 H  pz              0.0       0.4       0.0       0.0       0.0       0.0
12 H  s               0.2       6.5       0.0       2.1       0.5       2.0
12 H  py              0.0       0.4       0.0       0.1       0.0       0.1
13 H  s               2.9       2.0       0.3       3.6       1.4       1.1
13 H  py              0.3       0.1       0.0       0.2       0.1       0.1
14 H  s               3.8       1.0       0.0       4.0       1.2       0.2
14 H  pz              0.2       0.1       0.0       0.1       0.0       0.0
15 H  s               0.9       0.6       0.2       8.1       4.4       0.1
15 H  pz              0.0       0.0       0.0       0.3       0.1       0.0
15 H  px              0.0       0.0       0.0       0.1       0.0       0.0
16 H  s               1.1       1.7       3.4       0.9       1.7       0.0
16 H  pz              0.1       0.1       0.2       0.1       0.0       0.0
17 H  s               0.6       0.7       3.4       2.2       0.3       6.2
17 H  py              0.0       0.0       0.2       0.1       0.0       0.2
18 H  s               0.9       0.0       5.9       0.0       4.8       0.0
18 H  px              0.1       0.0       0.3       0.0       0.2       0.0
19 H  s               1.1       0.1       6.4       0.0       0.0       2.5
19 H  pz              0.1       0.0       0.4       0.0       0.0       0.1
20 H  s               0.9       0.5       5.4       0.7       3.5       0.0
20 H  px              0.0       0.0       0.3       0.0       0.1       0.0
21 H  s               1.1       0.9       4.6       0.8       0.1       4.6
21 H  pz              0.1       0.0       0.3       0.0       0.0       0.1
22 H  s               1.1       1.5       1.0       2.9       3.5       0.6
22 H  pz              0.1       0.1       0.0       0.2       0.1       0.0
23 H  s               0.6       1.2       1.5       3.9       0.4       5.8
23 H  px              0.0       0.0       0.0       0.1       0.0       0.1
23 H  py              0.0       0.0       0.1       0.1       0.0       0.1

                     18        19        20        21        22        23   
                  -0.41445  -0.39700  -0.38895  -0.36874  -0.35358  -0.32209
                   2.00000   2.00000   2.00000   2.00000   2.00000   2.00000
                  --------  --------  --------  --------  --------  --------
 0 C  s               0.1       0.1       0.0       0.0       0.0       0.1
 0 C  pz             11.9       0.2       0.4      11.9       0.2      13.4
 0 C  px              0.3      21.2       0.0       1.0       0.0       3.3
 0 C  py              1.9       2.5      11.5       0.2      18.2       2.4
 0 C  dz2             0.0       0.0       0.0       0.1       0.0       0.3
 0 C  dxz             0.1       0.0       0.0       0.1       0.0       0.2
 0 C  dx2y2           0.0       0.0       0.0       0.0       0.1       0.0
 0 C  dxy             0.0       0.1       0.0       0.0       0.0       0.0
 1 C  s               0.1       0.5       0.0       0.0       0.0       0.2
 1 C  pz              6.7       8.0       2.8       0.1       2.4       9.3
 1 C  px              7.8       1.7       1.4       2.5       3.4       1.2
 1 C  py              4.8       5.2       3.9       0.5       0.1       2.7
 1 C  dz2             0.0       0.0       0.0       0.0       0.0       0.3
 1 C  dxz             0.0       0.0       0.0       0.0       0.0       0.1
 1 C  dx2y2           0.0       0.1       0.0       0.0       0.0       0.1
 2 C  s               0.7       0.2       0.0       0.1       0.2       0.9
 2 C  pz              0.0       6.3       0.7       9.8       0.0       1.4
 2 C  px              1.0       7.2       1.5       1.1       0.4       0.4
 2 C  py              7.6       1.0       5.8       0.2      13.8       4.1
 2 C  dxz             0.0       0.0       0.0       0.2       0.0       0.1
 2 C  dx2y2           0.0       0.0       0.0       0.0       0.1       0.0
 3 C  s               0.4       0.7       0.0       0.6       0.2       0.2
 3 C  pz              1.6       0.5       1.8       9.0       0.5       0.2
 3 C  px              0.1       0.1       0.0       1.4       0.0       1.0
 3 C  py              1.6       0.0       3.5       0.1       0.3       3.8
 3 C  dxz             0.1       0.0       0.0       0.0       0.0       0.1
 3 C  dyz             0.0       0.0       0.1       0.0       0.0       0.0
 4 C  s               0.1       0.1       0.1       0.0       0.1       0.0
 4 C  pz              2.3       2.0       9.5       1.4       7.0       0.5
 4 C  px              5.2       0.2       3.6       0.5       1.3       2.5
 4 C  py              0.3       0.4       0.0       0.1       1.7       1.4
 5 C  s               0.1       0.1       0.0       0.0       0.1       0.1
 5 C  pz              9.7       0.1       0.1       9.7       0.3       1.7
 5 C  px              0.9       6.0       0.4       3.5       0.6       2.8
 5 C  py              0.2       0.1       0.1       0.5       0.7       0.0
 6 C  s               0.0       0.1       0.0       0.0       0.0       0.0
 6 C  pz              2.4       0.1       9.5       3.5       4.0       0.4
 6 C  px              0.6       4.4       1.6       0.3       4.4       0.2
 6 C  py              0.2       0.9       0.0       0.3       0.7       0.1
 7 C  s               0.3       0.1       0.1       0.0       0.1       0.0
 7 C  pz              0.7       1.1       4.9       8.9       1.6       5.2
 7 C  px              0.0       1.1       6.0       1.1       0.5       0.3
 7 C  py              0.4       0.1       0.2       0.5       0.6       2.2
 7 C  dz2             0.0       0.0       0.0       0.1       0.0       0.1
 8 H  s               0.1      10.1       1.1       0.1       2.6       3.9
 8 H  pz              0.1       0.0       0.0       0.1       0.0       0.1
 8 H  px              0.0       0.1       0.1       0.0       0.1       0.0
 9 H  s               1.5       0.0       4.9       1.1       7.8       0.0
 9 H  pz              0.0       0.0       0.0       0.0       0.1       0.1
 9 H  px              0.0       0.1       0.0       0.0       0.0       0.0
10 H  s               4.6       1.2       0.1       6.4       0.2      10.4
10 H  pz              0.1       0.1       0.0       0.1       0.0       0.1
10 H  py              0.0       0.0       0.1       0.0       0.1       0.0
11 H  s               5.2       2.8       0.2       0.0       0.4       7.3
11 H  pz              0.2       0.0       0.0       0.0       0.0       0.0
12 H  s               2.9       0.1       1.9       0.2       0.0       0.3
12 H  py              0.1       0.0       0.1       0.0       0.0       0.0
13 H  s               1.7       0.3       1.7       0.0       8.1       1.0
13 H  py              0.0       0.0       0.0       0.0       0.2       0.0
14 H  s               1.6       6.1       0.3       3.2       0.5       0.0
14 H  pz              0.1       0.1       0.0       0.0       0.0       0.0
15 H  s               0.9       0.6       0.4       1.2       0.0       0.4
16 H  s               2.3       0.5       6.0       0.4       3.4       1.4
16 H  pz              0.1       0.0       0.1       0.0       0.0       0.0
17 H  s               0.7       0.0       0.8       0.0       2.9       0.2
18 H  s               0.6       2.2       0.1       3.3       0.3       2.9
19 H  s               4.2       0.0       0.1       4.6       0.2       1.1
19 H  pz              0.1       0.0       0.0       0.0       0.0       0.0
20 H  s               0.4       1.6       2.0       0.8       4.8       0.0
21 H  s               0.9       0.1       3.8       1.2       1.4       0.3
22 H  s               0.6       0.2       3.8       4.2       0.5       2.4
22 H  pz              0.0       0.0       0.1       0.0       0.0       0.0
23 H  s               0.1       0.0       0.9       1.9       1.4       3.2

                     24        25        26        27        28        29   
                  -0.31550  -0.31200  -0.30188  -0.29891  -0.28486  -0.28047
                   2.00000   2.00000   2.00000   2.00000   2.00000   2.00000
                  --------  --------  --------  --------  --------  --------
 0 C  s               0.5       0.1       0.0       0.0       0.1       0.0
 0 C  pz              3.5       1.3       0.2       0.2       0.5       2.5
 0 C  px             16.8       2.0       0.2       0.3       0.8       2.9
 0 C  py              0.0       9.6       0.6       1.3       1.3       0.5
 0 C  dz2             0.0       0.2       0.0       0.0       0.0       0.0
 0 C  dx2y2           0.0       0.2       0.0       0.0       0.0       0.1
 0 C  dxy             0.2       0.1       0.0       0.0       0.0       0.1
 1 C  s               0.1       0.1       0.0       0.0       0.0       0.2
 1 C  pz              6.8       1.6       0.2       0.3       0.0       0.7
 1 C  px              7.5       1.8       0.1       0.4       0.6       8.1
 1 C  py              0.3      11.4       0.7       2.2       4.2       2.0
 1 C  dz2             0.0       0.2       0.0       0.0       0.0       0.0
 1 C  dxz             0.1       0.0       0.0       0.0       0.0       0.0
 1 C  dx2y2           0.0       0.3       0.0       0.0       0.2       0.0
 1 C  dxy             0.2       0.1       0.0       0.0       0.0       0.2
 2 C  s               0.1       0.0       0.0       0.0       0.0       0.2
 2 C  pz              2.6       0.3       0.1       0.3       0.0       2.3
 2 C  px              7.9       0.2       0.2       0.1       0.9      10.3
 2 C  py              0.0       1.8       0.0       0.0       5.2       0.1
 2 C  dz2             0.0       0.0       0.0       0.0       0.1       0.4
 2 C  dxz             0.1       0.0       0.0       0.0       0.0       0.1
 2 C  dx2y2           0.1       0.1       0.0       0.0       0.2       0.0
 2 C  dxy             0.1       0.0       0.0       0.0       0.0       0.1
 3 C  s               0.1       0.4       0.2       0.0       0.1       0.4
 3 C  pz              2.5       0.2       0.1       0.0       0.0       3.0
 3 C  px              7.5       0.1       0.0       0.0       1.7      12.2
 3 C  py              0.1       4.3       3.2       1.0       7.2       0.1
 3 C  dz2             0.0       0.0       0.0       0.0       0.1       0.5
 3 C  dxz             0.1       0.0       0.0       0.0       0.0       0.2
 3 C  dyz             0.0       0.0       0.0       0.1       0.1       0.0
 3 C  dx2y2           0.1       0.0       0.2       0.0       0.0       0.0
 3 C  dxy             0.0       0.1       0.1       0.1       0.2       0.1
 4 C  s               0.0       0.1       0.2       0.9       0.0       0.3
 4 C  pz              2.1       1.8       0.1       5.6       4.3       1.7
 4 C  px              2.4       1.1       4.1       2.3       0.9       7.3
 4 C  py              0.3       1.7      17.1       3.2       0.7       2.4
 4 C  dz2             0.0       0.0       0.1       0.0       0.1       0.0
 4 C  dxz             0.1       0.0       0.1       0.1       0.0       0.0
 4 C  dx2y2           0.0       0.0       0.4       0.0       0.0       0.0
 4 C  dxy             0.2       0.0       0.1       0.0       0.0       0.2
 5 C  s               0.5       0.2       0.0       0.2       0.2       0.1
 5 C  pz              1.5       0.1       0.1       4.6       4.0       5.4
 5 C  px              5.0       0.3       2.6       9.5       1.3       2.2
 5 C  py              0.1       8.2      20.1       0.9       2.3       0.1
 5 C  dz2             0.0       0.0       0.3       0.0       0.1       0.0
 5 C  dxz             0.0       0.0       0.0       0.1       0.0       0.0
 5 C  dyz             0.0       0.0       0.0       0.1       0.2       0.0
 5 C  dx2y2           0.1       0.0       0.3       0.0       0.0       0.1
 5 C  dxy             0.0       0.0       0.0       0.3       0.0       0.0
 6 C  s               0.5       0.0       0.4       0.1       0.0       0.3
 6 C  pz              1.2       0.8       0.0       3.3       8.4       0.0
 6 C  px              3.0       1.2       0.5      16.6       0.1       2.9
 6 C  py              1.2       5.7      20.9       0.4       1.9       1.3
 6 C  dz2             0.0       0.0       0.1       0.0       0.2       0.0
 6 C  dxz             0.0       0.0       0.0       0.3       0.0       0.0
 6 C  dyz             0.0       0.0       0.0       0.0       0.3       0.0
 6 C  dx2y2           0.0       0.2       0.0       0.1       0.0       0.1
 6 C  dxy             0.0       0.0       0.1       0.1       0.0       0.0
 7 C  s               0.0       0.2       0.5       0.5       0.1       0.2
 7 C  pz              1.2       1.6       0.0       3.6       3.3       0.3
 7 C  px              1.5       0.8       2.9      17.5       0.8       1.7
 7 C  py              0.6       5.6       2.0       2.6      11.3       0.3
 7 C  dxz             0.1       0.1       0.0       0.1       0.0       0.0
 7 C  dx2y2           0.1       0.0       0.0       0.1       0.0       0.1
 7 C  dxy             0.0       0.2       0.0       0.0       0.3       0.0
 8 H  s               7.1       0.2       0.0       0.0       0.0       2.3
 9 H  s               0.0       8.5       0.6       1.2       0.9       0.7
 9 H  px              0.2       0.0       0.0       0.0       0.0       0.0
10 H  s               0.0       2.1       0.3       0.3       0.0       0.1
10 H  px              0.1       0.0       0.0       0.0       0.0       0.1
11 H  s               0.7       2.0       0.2       0.4       0.1       0.1
11 H  px              0.1       0.0       0.0       0.0       0.0       0.1
11 H  py              0.0       0.1       0.0       0.0       0.0       0.0
12 H  s               0.0      11.0       0.6       1.6       3.4       0.3
12 H  px              0.1       0.0       0.0       0.0       0.0       0.1
13 H  s               0.2       1.3       0.0       0.0       5.1       0.1
14 H  s               3.5       0.3       0.0       0.0       1.8       6.2
15 H  s               4.0       0.6       0.4       0.0       1.0       8.7
15 H  py              0.0       0.0       0.0       0.0       0.1       0.0
16 H  s               0.5       0.6       0.2       0.8       1.8       0.1
16 H  px              0.0       0.0       0.0       0.0       0.1       0.1
16 H  py              0.0       0.0       0.2       0.0       0.0       0.0
17 H  s               0.1       0.7      12.7       0.4       1.4       0.3
18 H  s               1.7       0.8       0.0       4.2       1.9       0.3
18 H  pz              0.0       0.0       0.0       0.1       0.0       0.1
18 H  py              0.0       0.1       0.2       0.0       0.0       0.0
19 H  s               0.2       0.0       1.7       1.5       3.3       2.0
[...]
 5 C  s               0.1       0.0       7.1       7.0      19.0      13.1
 5 C  pz              1.0       2.8       0.0       0.0       0.0       0.0
 5 C  px              0.1       2.6       0.0       0.0       0.0       0.0
 5 C  dz2             1.1       4.0       0.0       0.0       0.0       0.0
 5 C  dxz             0.0       0.1       0.0       0.0       0.0       0.0
 5 C  dyz             0.7       0.7       0.0       0.0       0.0       0.0
 5 C  dx2y2           0.8       2.2       0.0       0.0       0.0       0.0
 5 C  dxy             0.1       0.6       0.0       0.0       0.0       0.0
 6 C  s               0.0       0.0      22.6      19.6       1.1       3.0
 6 C  pz              0.0       3.9       0.0       0.0       0.0       0.0
 6 C  px              0.1       2.6       0.0       0.0       0.0       0.0
 6 C  dz2             0.0       2.9       0.0       0.0       0.0       0.0
 6 C  dxz             0.0       0.5       0.0       0.0       0.0       0.0
 6 C  dyz             0.0       3.0       0.0       0.0       0.0       0.0
 6 C  dx2y2           0.0       1.4       0.0       0.0       0.0       0.0
 6 C  dxy             0.0       2.1       0.0       0.0       0.0       0.0
 7 C  s               0.1       0.0      19.3       0.4      17.2       1.2
 7 C  pz              0.9       2.9       0.0       0.0       0.0       0.0
 7 C  px              0.6       1.3       0.0       0.0       0.0       0.0
 7 C  py              0.1       0.4       0.0       0.0       0.0       0.0
 7 C  dz2             2.5       2.4       0.0       0.0       0.0       0.0
 7 C  dyz             0.4       1.6       0.0       0.0       0.0       0.0
 7 C  dx2y2           0.4       0.2       0.0       0.0       0.0       0.0
 7 C  dxy             0.1       1.7       0.0       0.0       0.0       0.0
 9 H  py              0.2       0.0       0.0       0.0       0.0       0.0
10 H  px              0.1       0.0       0.0       0.0       0.0       0.0
11 H  s               0.2       0.0       0.0       0.0       0.0       0.0
11 H  pz              0.2       0.0       0.0       0.0       0.0       0.0
12 H  s               0.5       0.0       0.0       0.0       0.0       0.0
12 H  py              1.2       0.0       0.0       0.0       0.0       0.0
13 H  s               0.3       0.3       0.0       0.0       0.0       0.0
13 H  pz              0.1       0.0       0.0       0.0       0.0       0.0
13 H  py              0.4       0.3       0.0       0.0       0.0       0.0
14 H  s               1.3       0.3       0.0       0.0       0.0       0.0
14 H  pz              2.3       0.4       0.0       0.0       0.0       0.0
14 H  px              0.7       0.2       0.0       0.0       0.0       0.0
14 H  py              0.4       0.0       0.0       0.0       0.0       0.0
15 H  s               6.5       0.2       0.0       0.0       0.0       0.0
15 H  pz             10.0       0.3       0.0       0.0       0.0       0.0
15 H  px              5.6       0.3       0.0       0.0       0.0       0.0
15 H  py              0.6       0.0       0.0       0.0       0.0       0.0
16 H  s               1.3       0.5       0.0       0.0       0.0       0.0
16 H  pz              2.1       0.6       0.0       0.0       0.0       0.0
16 H  px              0.3       0.1       0.0       0.0       0.0       0.0
17 H  s               1.8       1.1       0.0       0.0       0.0       0.0
17 H  px              0.2       0.0       0.0       0.0       0.0       0.0
17 H  py              3.9       2.5       0.0       0.0       0.0       0.0
18 H  s               0.5       2.9       0.0       0.0       0.0       0.0
18 H  px              0.9       5.0       0.0       0.0       0.0       0.0
18 H  py              0.3       0.6       0.0       0.0       0.0       0.0
19 H  s               0.7       2.3       0.0       0.0       0.0       0.0
19 H  pz              0.8       3.7       0.0       0.0       0.0       0.0
19 H  px              0.3       0.0       0.0       0.0       0.0       0.0
19 H  py              0.1       0.4       0.0       0.0       0.0       0.0
20 H  s               0.0       3.4       0.0       0.0       0.0       0.0
20 H  pz              0.0       0.5       0.0       0.0       0.0       0.0
20 H  px              0.0       3.7       0.0       0.0       0.0       0.0
20 H  py              0.0       1.8       0.0       0.0       0.0       0.0
21 H  s               0.0       3.0       0.0       0.0       0.0       0.0
21 H  pz              0.0       3.8       0.0       0.0       0.0       0.0
21 H  py              0.0       1.2       0.0       0.0       0.0       0.0
22 H  s               0.8       2.1       0.0       0.0       0.0       0.0
22 H  pz              1.4       3.0       0.0       0.0       0.0       0.0
22 H  px              0.2       0.3       0.0       0.0       0.0       0.0
22 H  py              0.0       0.3       0.0       0.0       0.0       0.0
23 H  s               0.6       2.3       0.0       0.0       0.0       0.0
23 H  px              0.5       1.2       0.0       0.0       0.0       0.0
23 H  py              0.9       3.6       0.0       0.0       0.0       0.0

                    228       229       230       231   
                  22.10698  22.12705  22.17527  22.21329
                   0.00000   0.00000   0.00000   0.00000
                  --------  --------  --------  --------
 0 C  s               0.4       0.2       0.2       0.0
 1 C  s               1.5       6.4       1.6       0.6
 2 C  s               0.7      54.0       0.0      11.0
 3 C  s               0.8       0.3      48.6      32.0
 4 C  s               8.0      24.1      11.2      28.6
 5 C  s              29.3      13.3       9.1       1.6
 6 C  s              52.1       0.0       0.9       0.3
 7 C  s               6.8       1.2      27.9      25.6


                      *****************************
                      * MAYER POPULATION ANALYSIS *
                      *****************************

  NA   - Mulliken gross atomic population
  ZA   - Total nuclear charge
  QA   - Mulliken gross atomic charge
  VA   - Mayer's total valence
  BVA  - Mayer's bonded valence
  FA   - Mayer's free valence

  ATOM       NA         ZA         QA         VA         BVA        FA
  0 C      6.4908     6.0000    -0.4908     3.8192     3.8192    -0.0000
  1 C      6.2217     6.0000    -0.2217     3.6659     3.6659    -0.0000
  2 C      6.3155     6.0000    -0.3155     3.7020     3.7020     0.0000
  3 C      5.9769     6.0000     0.0231     3.4036     3.4036     0.0000
  4 C      6.3546     6.0000    -0.3546     3.6123     3.6123     0.0000
  5 C      6.3175     6.0000    -0.3175     3.6876     3.6876    -0.0000
  6 C      6.3407     6.0000    -0.3407     3.7173     3.7173    -0.0000
  7 C      6.3747     6.0000    -0.3747     3.6486     3.6486    -0.0000
  8 H      0.8532     1.0000     0.1468     0.9623     0.9623     0.0000
  9 H      0.8572     1.0000     0.1428     0.9647     0.9647    -0.0000
 10 H      0.8553     1.0000     0.1447     0.9653     0.9653     0.0000
 11 H      0.8569     1.0000     0.1431     0.9607     0.9607    -0.0000
 12 H      0.8719     1.0000     0.1281     0.9709     0.9709    -0.0000
 13 H      0.8583     1.0000     0.1417     0.9662     0.9662     0.0000
 14 H      0.8505     1.0000     0.1495     0.9628     0.9628     0.0000
 15 H      0.8463     1.0000     0.1537     0.9599     0.9599     0.0000
 16 H      0.8416     1.0000     0.1584     0.9621     0.9621     0.0000
 17 H      0.8484     1.0000     0.1516     0.9657     0.9657    -0.0000
 18 H      0.8484     1.0000     0.1516     0.9642     0.9642    -0.0000
 19 H      0.8402     1.0000     0.1598     0.9627     0.9627    -0.0000
 20 H      0.8479     1.0000     0.1521     0.9641     0.9641    -0.0000
 21 H      0.8392     1.0000     0.1608     0.9620     0.9620     0.0000
 22 H      0.8428     1.0000     0.1572     0.9626     0.9626    -0.0000
 23 H      0.8495     1.0000     0.1505     0.9661     0.9661    -0.0000

  Mayer bond orders larger than 0.100000
B(  0-C ,  1-C ) :   0.9063 B(  0-C ,  8-H ) :   0.9727 B(  0-C ,  9-H ) :   0.9807 
B(  0-C , 10-H ) :   0.9843 B(  1-C ,  2-C ) :   0.9063 B(  1-C , 11-H ) :   0.9672 
B(  1-C , 12-H ) :   0.9797 B(  2-C ,  3-C ) :   0.9510 B(  2-C , 13-H ) :   0.9796 
B(  2-C , 14-H ) :   0.9600 B(  3-C ,  4-C ) :   0.8702 B(  3-C ,  7-C ) :   0.8710 
B(  3-C , 15-H ) :   0.9516 B(  4-C ,  5-C ) :   0.9022 B(  4-C , 16-H ) :   0.9917 
B(  4-C , 17-H ) :   0.9761 B(  5-C ,  6-C ) :   0.9194 B(  5-C , 18-H ) :   0.9654 
B(  5-C , 19-H ) :   0.9923 B(  6-C ,  7-C ) :   0.9154 B(  6-C , 20-H ) :   0.9723 
B(  6-C , 21-H ) :   0.9947 B(  7-C , 22-H ) :   0.9730 B(  7-C , 23-H ) :   0.9724 


-------
TIMINGS
-------

Total SCF time: 0 days 0 hours 0 min 22 sec 

Total time                  ....      22.339 sec
Sum of individual times     ....      21.978 sec  ( 98.4%)

SCF preparation             ....       0.215 sec  (  1.0%)
Fock matrix formation       ....      20.936 sec  ( 93.7%)
  Startup                   ....       0.061 sec  (  0.3% of F)
  Split-RI-J                ....       4.111 sec  ( 19.6% of F)
  XC integration            ....      16.341 sec  ( 78.0% of F)
    Basis function eval.    ....       2.819 sec  ( 17.3% of XC)
    Density eval.           ....       5.341 sec  ( 32.7% of XC)
    XC-Functional eval.     ....       1.909 sec  ( 11.7% of XC)
    XC-Potential eval.      ....       5.539 sec  ( 33.9% of XC)
Diagonalization             ....       0.000 sec  (  0.0%)
Density matrix formation    ....       0.184 sec  (  0.8%)
Total Energy calculation    ....       0.024 sec  (  0.1%)
Population analysis         ....       0.138 sec  (  0.6%)
Orbital Transformation      ....       0.061 sec  (  0.3%)
Orbital Orthonormalization  ....       0.000 sec  (  0.0%)
DIIS solution               ....       0.362 sec  (  1.6%)
  MO trafo                  ....       0.000 sec  (  0.0 % of DIIS)
  Orb grad                  ....       0.000 sec  (  0.0 % of DIIS)
  Energy W gradient         ....       0.000 sec  (  0.0 % of DIIS)
  DIIS error                ....       0.010 sec  (  2.8 % of DIIS)
  DIIS work                 ....       0.301 sec  ( 83.1 % of DIIS)
  Form Q                    ....       0.000 sec  (  0.0 % of DIIS)
  Form QpQm                 ....       0.000 sec  (  0.0 % of DIIS)
  Exp/Cayley                ....       0.000 sec  (  0.0 % of DIIS)
  Orb update                ....       0.000 sec  (  0.0 % of DIIS)
  Wake-sleep                ....       0.018 sec  (  5.1 % of DIIS)
SOSCF solution              ....       0.057 sec  (  0.3%)
  MO trafo                  ....       0.041 sec  ( 72.6 % of SOSCF)
  Orb grad                  ....       0.001 sec  (  1.0 % of SOSCF)
  Rot update                ....       0.000 sec  (  0.1 % of SOSCF)
  Step                      ....       0.015 sec  ( 26.2 % of SOSCF)
Finished LeanSCF after  22.4 sec

Maximum memory used throughout the entire LEANSCF-calculation: 26.9 MB


-------------------------------------------------------------------------------
                          DFT DISPERSION CORRECTION                            
                                                                               
                                DFTD4 V3.4.0                                   
-------------------------------------------------------------------------------
The R2SCAN3C composite method is recognized
Using three-body term ABC
Active option DFTDOPT                   ...         5   

-------------------------   ----------------
Dispersion correction           -0.007143374
-------------------------   ----------------

------------------   -----------------
gCP correction             0.010335534
------------------   -----------------

-------------------------   --------------------
FINAL SINGLE POINT ENERGY      -314.380401642679
-------------------------   --------------------


------------------------------------------------------------------------------
                              ORCA PROPERTY CALCULATIONS
------------------------------------------------------------------------------

GBWName                                 ... sp_gas.gbw
Number of atoms                         ...     24
Number of basis functions               ...    232
Max core memory                         ...   1024 MB

Electric properties:
Dipole moment                           ... YES
Quadrupole moment                       ...  NO
Static polarizability (Dipole/Dipole)   ...  NO
Static polarizability (Dipole/Quad.)    ...  NO
Static polarizability (Quad./Quad.)     ...  NO
Static polarizability (Velocity)        ...  NO

Atomic electric properties:
Dipole moment                           ...  NO
Quadrupole moment                       ...  NO
Static polarizability                   ...  NO

Choice of electric origin               ... Center of mass
Position of electric origin             ...    -0.000005     0.000000    -0.000000

General magnetic properties:
Magnetizability                         ...  NO

EPR properties:
g-Tensor (aka g-matrix)                 ...  NO
Zero-Field splitting spin-orbit         ...  NO
Zero-field splitting spin-spin          ...  NO
Hyperfine couplings                     ...  NO (   0 nuclei)
Quadrupole couplings                    ...  NO (   0 nuclei)
Contact density                         ...  NO (   0 nuclei)

NMR properties:
Chemical shifts                         ...  NO (   0 nuclei)
Spin-rotation constants                 ...  NO (   0 nuclei)
Spin-spin couplings                     ...  NO (   0 nuclei,    0 pairs)

Choice of magnetic origin               ... GIAO
Position of magnetic origin             ...     0.000000     0.000000     0.000000

Properties with geometric perturbations:
SCF Hessian                             ...  NO
IR spectrum                             ...  NO
VCD spectrum                            ...  NO
X-ray spectroscopy properties:
SCF XES/XAS/RIXS spectra                ...  NO


-------------
DIPOLE MOMENT
-------------

Method             : SCF
Type of density    : Electron Density
Multiplicity       :   1
Irrep              :   0
Energy             :  -314.3835938020959588 Eh
Relativity type    : 
Basis              : AO
                                X                 Y                 Z
Electronic contribution:      2.542216838      -0.017021756       0.121554063
Nuclear contribution   :     -2.553558889       0.025532600      -0.122346619
                        -----------------------------------------
Total Dipole Moment    :     -0.011342051       0.008510845      -0.000792556
                        -----------------------------------------
Magnitude (a.u.)       :      0.014202279
Magnitude (Debye)      :      0.036099325



--------------------
Rotational spectrum 
--------------------
 
Rotational constants in cm-1:             0.139542             0.037961             0.035367 
Rotational constants in MHz :          4183.372943          1138.040760          1060.282806 

Dipole components along the rotational axes: 
x,y,z [a.u.] :    -0.011322    -0.008573    -0.000177 
x,y,z [Debye]:    -0.028777    -0.021790    -0.000451 

 

Dipole moment calculation done in   0.0 sec 

Maximum memory used throughout the entire PROP-calculation: 15.2 MB

--------------------------------
SUGGESTED CITATIONS FOR THIS RUN
--------------------------------

Below you find a list of papers that are relevant to this ORCA run
We neither can nor want to force you to cite these papers, but we appreciate if you do
You receive ORCA, which is the product of decades of hard work by many enthusiastic individuals, for free
The only thing we kindly ask in return is that you cite our papers,
We deeply appreciate it, if you show your appreciation for ORCA by not just citing the generic ORCA reference.

Please note that relegating all ORCA citations to the supporting information does *not* help us.
SI sections are not indexed - citations you put there will not count into any citation statistics
But we need these citations in order to attract the funding resources that allow us to do what we are doing

Therefore, if you are a happy ORCA user, please consider citing a few of the papers listed below in the main body of your paper

In addition to the list printed below, the program has created the file sp_gas.bibtex that contains the list in bibtex format
You can import this file easily into all common literature databanks and citation aid programs


List of essential papers. We consider these as the minimum necessary citations

  1. Neese,F.
     Software update: the ORCA program system, version 5.0
     WIRES Comput. Molec. Sci., 2022 12(1)e1606
     doi.org/10.1002/wcms.1606
  2. Grimme,S.; Hansen,A.; Ehlert,S.; Mewes,J.
     r2SCAN-3c: A 'Swiss army knife' composite electronic-structure method
     J. Chem. Phys., 2021 154 064103
     doi.org/10.1063/5.0040021

List of papers to cite with high priority. The work reported in these papers was absolutely
necessary for this run to complete.
Our perspective: the developers of density functionals and basis sets usually get cited in chemistry papers
Good! But without the algorithms to do something with them, the functionals or basis sets would not do anything.
Hence, in our opinion, the algorithm design and method developments papers are equally worthy of getting cited

  1. Neese,F.
     An improvement of the resolution of the identity approximation for the formation of the Coulomb matrix
     J. Comp. Chem., 2003 24(14)1740-1747
     doi.org/10.1002/jcc.10318
  2. Neese,F.
     The SHARK Integral Generation and Digestion System
     J. Comp. Chem., 2022  1-16
     doi.org/10.1002/jcc.26942
  3. Lehtola,S.; Steigemann,C.; Oliveira,M.; Marques,M.
     Recent developments in Libxc - A comprehensive library of functionals for density functional theory
     Software X, 2018 7 
     doi.org/10.1016/j.softx.2017.11.002
  4. Caldeweyher,E.; Bannwarth,C.; Grimme,S.
     Extension of the D3 dispersion coefficient model
     J. Chem. Phys., 2017 147 034112-XXXX
     doi.org/10.1063/1.4993215
  5. Caldeweyher,E.; Ehlert,S.; Hansen,A.; Neugebauer,H.; Spicher,S.; Bannwarth,C.; Grimme,S.
     A generally applicable atomic-charge dependent London dispersion correction
     J. Chem. Phys., 2019 150 154122-XXXX
     doi.org/10.1063/1.5090222
  6. Caldeweyher,E.; Mewes,J.; Ehlert,S.; Grimme,S.
     Extension and evaluation of the D4 London-dispersion model for periodic systems
     Phys. Chem. Chem. Phys., 2020 22(16)8499-8512
     doi.org/10.1039/D0CP00502A

List of suggested additional citations. These are papers that are important in the 'surrounding' of 
of this run, or papers that preceded the highly important papers. If you like your results we are grateful for a citation.

  1. Neese,F.
     The ORCA program system
     WIRES Comput. Molec. Sci., 2012 2(1)73-78
     doi.org/10.1002/wcms.81
  2. Neese,F.
     Software update: the ORCA program system, version 4.0
     WIRES Comput. Molec. Sci., 2018 8(1)1-6
     doi.org/10.1002/wcms.1327
  3. Neese,F.; Wennmohs,F.; Becker,U.; Riplinger,C.
     The ORCA quantum chemistry program package
     J. Chem. Phys., 2020 152 Art. No. L224108
     doi.org/10.1063/5.0004608

List of optional additional citations

  1. Neese,F.
     Approximate second-order SCF convergence for spin unrestricted wavefunctions
     Chem. Phys. Lett., 2000 325(1-3)93-98
     doi.org/10.1016/s0009-2614(00)00662-x

Timings for individual modules:

Sum of individual times          ...       24.365 sec (=   0.406 min)
Startup calculation              ...        1.442 sec (=   0.024 min)   5.9 %
SCF iterations                   ...       22.813 sec (=   0.380 min)  93.6 %
Property calculations            ...        0.110 sec (=   0.002 min)   0.5 %
                             ****ORCA TERMINATED NORMALLY****
TOTAL RUN TIME: 0 days 0 hours 0 minutes 25 seconds 114 msec
