
                                 *****************
                                 * O   R   C   A *
                                 *****************

                                            #,                                       
                                            ###                                      
                                            ####                                     
                                            #####                                    
                                            ######                                   
                                           ########,                                 
                                     ,,################,,,,,                         
                               ,,#################################,,                 
                          ,,##########################################,,             
                       ,#########################################, ''#####,          
                    ,#############################################,,   '####,        
                  ,##################################################,,,,####,       
                ,###########''''           ''''###############################       
              ,#####''   ,,,,##########,,,,          '''####'''          '####       
            ,##' ,,,,###########################,,,                        '##       
           ' ,,###''''                  '''############,,,                           
         ,,##''                                '''############,,,,        ,,,,,,###''
      ,#''                                            '''#######################'''  
     '                                                          ''''####''''         
             ,#######,   #######,   ,#######,      ##                                
            ,#'     '#,  ##    ##  ,#'     '#,    #''#        ,####,   ,####,        
            ##       ##  ##   ,#'  ##            #'  '#       #'       #'  '#        
            ##       ##  #######   ##           ,######,      #####,   #    #        
            '#,     ,#'  ##    ##  '#,     ,#' ,#      #,     #,   #   #,  ,#        
             '#######'   ##     ##  '#######'  #'      '#     '####' # '####'        



                #########################################################
                #                        -***-                          #
                #          Department of theory and spectroscopy        #
                #                                                       #
                #                      Frank Neese                      #
                #                                                       #
                #     Directorship, Architecture, Infrastructure        #
                #                    SHARK, DRIVERS                     #
                #        Core code/Algorithms in most modules           #
                #                                                       #
                #        Max Planck Institute fuer Kohlenforschung      #
                #                Kaiser Wilhelm Platz 1                 #
                #                 D-45470 Muelheim/Ruhr                 #
                #                      Germany                          #
                #                                                       #
                #                  All rights reserved                  #
                #                        -***-                          #
                #########################################################


                         Program Version 6.0.0  -   RELEASE  -


 With contributions from (in alphabetic order):
   Daniel Aravena         : Magnetic Suceptibility
   Michael Atanasov       : Ab Initio Ligand Field Theory (pilot matlab implementation)
   Alexander A. Auer      : GIAO ZORA, VPT2 properties, NMR spectrum
   Ute Becker             : All parallelization in ORCA, NUMFREQ, NUMCALC
   Giovanni Bistoni       : ED, misc. LED, open-shell LED, HFLD
   Martin Brehm           : Molecular dynamics
   Dmytro Bykov           : pre 5.0 version of the SCF Hessian
   Marcos Casanova-Páez   : Triplet and SCS-CIS(D). UHF-(DLPNO)-IP/EA/STEOM-CCSD. UHF-CVS-IP/STEOM-CCSD
   Vijay G. Chilkuri      : MRCI spin determinant printing, contributions to CSF-ICE
   Pauline Colinet        : FMM embedding
   Dipayan Datta          : RHF DLPNO-CCSD density
   Achintya Kumar Dutta   : EOM-CC, STEOM-CC
   Nicolas Foglia         : Exact transition moments, OPA infrastructure, MCD improvements
   Dmitry Ganyushin       : Spin-Orbit,Spin-Spin,Magnetic field MRCI
   Miquel Garcia          : C-PCM and meta-GGA Hessian, CCSD/C-PCM, Gaussian charge scheme
   Tiago L. C. Gouveia    : GS-ROHF, GS-ROCIS
   Yang Guo               : DLPNO-NEVPT2, F12-NEVPT2, CIM, IAO-localization
   Andreas Hansen         : Spin unrestricted coupled pair/coupled cluster methods
   Ingolf Harden          : AUTO-CI MPn and infrastructure 
   Benjamin Helmich-Paris : MC-RPA, TRAH-(SCF,CASSCF), AVAS, COSX integrals, SCF dyn. polar.
   Lee Huntington         : MR-EOM, pCC
   Robert Izsak           : Overlap fitted RIJCOSX, COSX-SCS-MP3, EOM
   Riya Kayal             : Wick's Theorem for AUTO-CI, AUTO-CI UHF-CCSDT
   Emily Kempfer          : AUTO-CI, RHF CISDT and CCSDT
   Christian Kollmar      : KDIIS, OOCD, Brueckner-CCSD(T), CCSD density, CASPT2, CASPT2-K, improved NEVPT2
   Axel Koslowski         : Symmetry handling
   Simone Kossmann        : Meta GGA functionals, TD-DFT gradient, OOMP2, (MP2 Hessian; deprecated post 5.0)
   Lucas Lang             : DCDCAS
   Marvin Lechner         : AUTO-CI (C++ implementation), FIC-MRCC
   Spencer Leger          : CASSCF response
   Dagmar Lenk            : GEPOL surface, SMD, ORCA-2-JSON
   Dimitrios Liakos       : Extrapolation schemes; Compound Job, initial MDCI parallelization
   Dimitrios Manganas     : Further ROCIS development; embedding schemes. LFT, Crystal Embedding
   Dimitrios Pantazis     : SARC Basis sets
   Anastasios Papadopoulos: AUTO-CI, single reference methods and gradients
   Taras Petrenko         : pre 6.0 DFT Hessian and TD-DFT gradient, (ASA, deprecated), ECA, 1-Electron XAS/XES, NRVS
   Peter Pinski           : DLPNO-MP2, DLPNO-MP2 Gradient
   Christoph Reimann      : Effective Core Potentials
   Marius Retegan         : Local ZFS, SOC
   Christoph Riplinger    : Optimizer, TS searches, QM/MM, DLPNO-CCSD(T), (RO)-DLPNO pert. Triples
   Michael Roemelt        : Original ROCIS implementation
   Masaaki Saitow         : Open-shell DLPNO-CCSD energy and density
   Barbara Sandhoefer     : DKH picture change effects
   Kantharuban Sivalingam : CASSCF convergence/infrastructure, NEVPT2 and variants, FIC-MRCI
   Bernardo de Souza      : ESD, SOC TD-DFT
   Georgi Stoychev        : AutoAux, RI-MP2 NMR, DLPNO-MP2 response, X2C
   Van Anh Tran           : RI-MP2 g-tensors
   Willem Van den Heuvel  : Paramagnetic NMR
   Zikuan Wang            : NOTCH, Electric field optimization 
   Frank Wennmohs         : Technical directorship and infrastructure
   Hang Xu                : AUTO-CI-Response properties 


 We gratefully acknowledge several colleagues who have allowed us to
 interface, adapt or use parts of their codes:
   Stefan Grimme, W. Hujo, H. Kruse, P. Pracht,  : VdW corrections, initial TS optimization,
                  C. Bannwarth, S. Ehlert,         DFT functionals, gCP, sTDA/sTD-DF
                  L. Wittmann, M. Mueller
   Ed Valeev, F. Pavosevic, A. Kumar             : LibInt (2-el integral package), F12 methods
   Garnet Chan, S. Sharma, J. Yang, R. Olivares  : DMRG
   Ulf Ekstrom                                   : XCFun DFT Library
   Mihaly Kallay                                 : mrcc  (arbitrary order and MRCC methods)
   Frank Weinhold                                : gennbo (NPA and NBO analysis)
   Simon Mueller                                 : openCOSMO-RS
   Christopher J. Cramer and Donald G. Truhlar   : smd solvation model
   Lars Goerigk                                  : TD-DFT with DH, B97 family of functionals
   V. Asgeirsson, H. Jonsson                     : NEB implementation
   FAccTs GmbH                                   : IRC, NEB, NEB-TS, DLPNO-Multilevel, CI-OPT
                                                   MM, QMMM, 2- and 3-layer-ONIOM, Crystal-QMMM,
                                                   LR-CPCM, SF, NACMEs, symmetry and pop. for TD-DFT,
                                                   nearIR, NL-DFT gradient (VV10), updates on ESD,
                                                   ML-optimized integration grids, MBIS, APM,
                                                   GOAT, DOCKER, SOLVATOR, interface openCOSMO-RS
   S Lehtola, MJT Oliveira, MAL Marques          : LibXC Library
   Liviu Ungur et al                             : ANISO software


 Your calculation uses the libint2 library for the computation of 2-el integrals
 For citations please refer to: http://libint.valeyev.net

 Your ORCA version has been built with support for libXC version: 6.2.2
 For citations please refer to: https://libxc.gitlab.io

 This ORCA versions uses:
   CBLAS   interface :  Fast vector & matrix operations
   LAPACKE interface :  Fast linear algebra routines
   SCALAPACK package :  Parallel linear algebra routines
   Shared memory     :  Shared parallel matrices
   BLAS/LAPACK       :  OpenBLAS 0.3.27  USE64BITINT DYNAMIC_ARCH NO_AFFINITY SkylakeX SINGLE_THREADED
        Core in use  :  SkylakeX
   Copyright (c) 2011-2014, The OpenBLAS Project


Your calculation utilizes the geometrical counterpoise correction gCP
Please cite in your paper:
H.Kruse, S. Grimme J.Chem.Phys., 136, (2012), 154101 
   

Your calculation utilizes the atom-pairwise dispersion correction
based on EEQ partial charges (D4)


================================================================================

----- Orbital basis set information -----
Your calculation utilizes the basis: def2-SV(P)
   F. Weigend and R. Ahlrichs, Phys. Chem. Chem. Phys. 7, 3297 (2005).

----- AuxJ basis set information -----
Your calculation utilizes the auxiliary basis: def2/J
   F. Weigend, Phys. Chem. Chem. Phys. 8, 1057 (2006).

================================================================================
                                        WARNINGS
                       Please study these warnings very carefully!
================================================================================


================================================================================
                                       INPUT FILE
================================================================================
NAME = sp.inp
|  1> ! pbe def2-sv(p) def2/J RI DEFGRID1 loosescf d4 GCP(DFT/SV(P)) printgap
|  2> %output
|  3>     printlevel normal
|  4> end
|  5> * xyz 0 1
|  6> C 1.548571657 0.3648545151 1.5862776321
|  7> C 1.4018734579 -0.2702601893 0.2087046967
|  8> C 2.3475773744 0.4062686289 -0.7940406449
|  9> C 0.0075845724 -0.2718566216 -0.4010180946
| 10> O -0.1714269374 -0.8083910157 -1.4784929328
| 11> C -1.1457340097 0.3558666965 0.3559280298
| 12> C -1.8105047911 -0.7659487418 1.1664893987
| 13> C -2.1489647043 0.9773856317 -0.614148848
| 14> H 0.8835445255 -0.0921812319 2.3128806034
| 15> H 1.3540821779 1.4336951365 1.5465383025
| 16> H 2.5707271828 0.225363699 1.93049278
| 17> H 1.6880328898 -1.327613205 0.2706058148
| 18> H 2.2382884997 -0.0470989291 -1.776370234
| 19> H 2.1140700051 1.4659269947 -0.8733038214
| 20> H 3.3781909273 0.2990155437 -0.4679485988
| 21> H -0.777197686 1.1218839417 1.0378852583
| 22> H -2.1804617388 -1.5366135374 0.4935975608
| 23> H -1.1071507491 -1.22182313 1.8582574981
| 24> H -2.6468474286 -0.3635380636 1.7313289566
| 25> H -3.0167098878 1.3441662168 -0.0732085895
| 26> H -1.693753481 1.8056630853 -1.1525492039
| 27> H -2.4717653081 0.2360374691 -1.3415264208
| 28> *
| 29> 
| 30>                          ****END OF INPUT****
================================================================================

                       ****************************
                       * Single Point Calculation *
                       ****************************

---------------------------------
CARTESIAN COORDINATES (ANGSTROEM)
---------------------------------
  C      1.548572    0.364855    1.586278
  C      1.401873   -0.270260    0.208705
  C      2.347577    0.406269   -0.794041
  C      0.007585   -0.271857   -0.401018
  O     -0.171427   -0.808391   -1.478493
  C     -1.145734    0.355867    0.355928
  C     -1.810505   -0.765949    1.166489
  C     -2.148965    0.977386   -0.614149
  H      0.883545   -0.092181    2.312881
  H      1.354082    1.433695    1.546538
  H      2.570727    0.225364    1.930493
  H      1.688033   -1.327613    0.270606
  H      2.238288   -0.047099   -1.776370
  H      2.114070    1.465927   -0.873304
  H      3.378191    0.299016   -0.467949
  H     -0.777198    1.121884    1.037885
  H     -2.180462   -1.536614    0.493598
  H     -1.107151   -1.221823    1.858257
  H     -2.646847   -0.363538    1.731329
  H     -3.016710    1.344166   -0.073209
  H     -1.693753    1.805663   -1.152549
  H     -2.471765    0.236037   -1.341526

----------------------------
CARTESIAN COORDINATES (A.U.)
----------------------------
  NO LB      ZA    FRAG     MASS         X           Y           Z
   0 C     6.0000    0    12.011    2.926376    0.689475    2.997630
   1 C     6.0000    0    12.011    2.649157   -0.510718    0.394395
   2 C     6.0000    0    12.011    4.436278    0.767736   -1.500519
   3 C     6.0000    0    12.011    0.014333   -0.513735   -0.757814
   4 O     8.0000    0    15.999   -0.323950   -1.527638   -2.793947
   5 C     6.0000    0    12.011   -2.165124    0.672491    0.672606
   6 C     6.0000    0    12.011   -3.421358   -1.447433    2.204346
   7 C     6.0000    0    12.011   -4.060955    1.846991   -1.160573
   8 H     1.0000    0     1.008    1.669657   -0.174197    4.370711
   9 H     1.0000    0     1.008    2.558844    2.709291    2.922534
  10 H     1.0000    0     1.008    4.857970    0.425876    3.648103
  11 H     1.0000    0     1.008    3.189920   -2.508825    0.511371
  12 H     1.0000    0     1.008    4.229752   -0.089004   -3.356853
  13 H     1.0000    0     1.008    3.995013    2.770201   -1.650305
  14 H     1.0000    0     1.008    6.383856    0.565057   -0.884295
  15 H     1.0000    0     1.008   -1.468691    2.120053    1.961319
  16 H     1.0000    0     1.008   -4.120476   -2.903779    0.932764
  17 H     1.0000    0     1.008   -2.092212   -2.308911    3.511598
  18 H     1.0000    0     1.008   -5.001817   -0.686987    3.271738
  19 H     1.0000    0     1.008   -5.700756    2.540106   -0.138344
  20 H     1.0000    0     1.008   -3.200730    3.412209   -2.178002
  21 H     1.0000    0     1.008   -4.670959    0.446046   -2.535118

--------------------------------
INTERNAL COORDINATES (ANGSTROEM)
--------------------------------
 C      0   0   0     0.000000000000     0.00000000     0.00000000
 C      1   0   0     1.524007297132     0.00000000     0.00000000
 C      2   1   0     1.535430024338   110.32915574     0.00000000
 C      2   1   3     1.521777226487   116.79491264   236.68461072
 O      4   2   1     1.216908502578   119.34051338   182.54697775
 C      4   2   1     1.515634438494   119.77939945     0.74354673
 C      6   4   2     1.535382624027   106.88886238   267.12515377
 C      6   4   2     1.527680189779   110.55334239   146.96505606
 H      1   2   3     1.085861242318   111.74624749   179.57648236
 H      1   2   3     1.087118045914   111.06765436    57.37442987
 H      1   2   3     1.087540194542   108.85141830   298.83054501
 H      2   1   3     1.097139174716   108.99718962   117.82977447
 H      3   2   1     1.087408673131   110.14266250   180.17017144
 H      3   2   1     1.087972515681   110.15318284   299.91926086
 H      3   2   1     1.086279679565   110.17010174    59.90864422
 H      6   4   2     1.089801405456   110.26169892    25.76397324
 H      7   6   4     1.087922697548   109.77229080   299.38243469
 H      7   6   4     1.086771121056   111.24228745    59.43145181
 H      7   6   4     1.086483818287   109.70186470   179.88747036
 H      8   6   4     1.086336073395   110.22605099   174.79048007
 H      8   6   4     1.087720433381   110.44340322   295.15255172
 H      8   6   4     1.087600782188   110.01560229    54.52072524

---------------------------
INTERNAL COORDINATES (A.U.)
---------------------------
 C      0   0   0     0.000000000000     0.00000000     0.00000000
 C      1   0   0     2.879956417677     0.00000000     0.00000000
 C      2   1   0     2.901542243799   110.32915574     0.00000000
 C      2   1   3     2.875742194899   116.79491264   236.68461072
 O      4   2   1     2.299623799913   119.34051338   182.54697775
 C      4   2   1     2.864134007892   119.77939945     0.74354673
 C      6   4   2     2.901452670193   106.88886238   267.12515377
 C      6   4   2     2.886897178898   110.55334239   146.96505606
 H      1   2   3     2.051980367421   111.74624749   179.57648236
 H      1   2   3     2.054355382022   111.06765436    57.37442987
 H      1   2   3     2.055153127315   108.85141830   298.83054501
 H      2   1   3     2.073292571010   108.99718962   117.82977447
 H      3   2   1     2.054904587869   110.14266250   180.17017144
 H      3   2   1     2.055970095870   110.15318284   299.91926086
 H      3   2   1     2.052771099222   110.17010174    59.90864422
 H      6   4   2     2.059426196674   110.26169892    25.76397324
 H      7   6   4     2.055875953243   109.77229080   299.38243469
 H      7   6   4     2.053699789051   111.24228745    59.43145181
 H      7   6   4     2.053156865499   109.70186470   179.88747036
 H      8   6   4     2.052877668116   110.22605099   174.79048007
 H      8   6   4     2.055493729359   110.44340322   295.15255172
 H      8   6   4     2.055267621374   110.01560229    54.52072524

---------------------
BASIS SET INFORMATION
---------------------
There are 3 groups of distinct atoms

 Group   1 Type C   : 7s4p1d contracted to 3s2p1d pattern {511/31/1}
 Group   2 Type O   : 7s4p1d contracted to 3s2p1d pattern {511/31/1}
 Group   3 Type H   : 4s contracted to 2s pattern {31}

Atom   0C    basis set group =>   1
Atom   1C    basis set group =>   1
Atom   2C    basis set group =>   1
Atom   3C    basis set group =>   1
Atom   4O    basis set group =>   2
Atom   5C    basis set group =>   1
Atom   6C    basis set group =>   1
Atom   7C    basis set group =>   1
Atom   8H    basis set group =>   3
Atom   9H    basis set group =>   3
Atom  10H    basis set group =>   3
Atom  11H    basis set group =>   3
Atom  12H    basis set group =>   3
Atom  13H    basis set group =>   3
Atom  14H    basis set group =>   3
Atom  15H    basis set group =>   3
Atom  16H    basis set group =>   3
Atom  17H    basis set group =>   3
Atom  18H    basis set group =>   3
Atom  19H    basis set group =>   3
Atom  20H    basis set group =>   3
Atom  21H    basis set group =>   3
---------------------------------
AUXILIARY/J BASIS SET INFORMATION
---------------------------------
There are 3 groups of distinct atoms

 Group   1 Type C   : 12s5p4d2f1g contracted to 6s4p3d1f1g pattern {711111/2111/211/2/1}
 Group   2 Type O   : 12s5p4d2f1g contracted to 6s4p3d1f1g pattern {711111/2111/211/2/1}
 Group   3 Type H   : 5s2p1d contracted to 3s1p1d pattern {311/2/1}

Atom   0C    basis set group =>   1
Atom   1C    basis set group =>   1
Atom   2C    basis set group =>   1
Atom   3C    basis set group =>   1
Atom   4O    basis set group =>   2
Atom   5C    basis set group =>   1
Atom   6C    basis set group =>   1
Atom   7C    basis set group =>   1
Atom   8H    basis set group =>   3
Atom   9H    basis set group =>   3
Atom  10H    basis set group =>   3
Atom  11H    basis set group =>   3
Atom  12H    basis set group =>   3
Atom  13H    basis set group =>   3
Atom  14H    basis set group =>   3
Atom  15H    basis set group =>   3
Atom  16H    basis set group =>   3
Atom  17H    basis set group =>   3
Atom  18H    basis set group =>   3
Atom  19H    basis set group =>   3
Atom  20H    basis set group =>   3
Atom  21H    basis set group =>   3
------------------------------------------------------------------------------
                             ORCA STARTUP CALCULATIONS
                           -- RI-GTO INTEGRALS CHOSEN --
------------------------------------------------------------------------------
------------------------------------------------------------------------------
                   ___                                                        
                  /   \      - P O W E R E D   B Y -                         
                 /     \                                                     
                 |  |  |   _    _      __       _____    __    __             
                 |  |  |  | |  | |    /  \     |  _  \  |  |  /  |          
                  \  \/   | |  | |   /    \    | | | |  |  | /  /          
                 / \  \   | |__| |  /  /\  \   | |_| |  |  |/  /          
                |  |  |   |  __  | /  /__\  \  |    /   |      \           
                |  |  |   | |  | | |   __   |  |    \   |  |\   \          
                \     /   | |  | | |  |  |  |  | |\  \  |  | \   \       
                 \___/    |_|  |_| |__|  |__|  |_| \__\ |__|  \__/        
                                                                              
                      - O R C A' S   B I G   F R I E N D -                    
                                      &                                       
                       - I N T E G R A L  F E E D E R -                       
                                                                              
 v1 FN, 2020, v2 2021, v3 2022-2024                                           
------------------------------------------------------------------------------


----------------------
SHARK INTEGRAL PACKAGE
----------------------

Number of atoms                             ...     22
Number of basis functions                   ...    140
Number of shells                            ...     76
Maximum angular momentum                    ...      2
Integral batch strategy                     ... SHARK/LIBINT Hybrid
RI-J (if used) integral strategy            ... SPLIT-RIJ (Revised 2003 algorithm where possible)
Printlevel                                  ...      1
Contraction scheme used                     ... SEGMENTED contraction
Prescreening option                         ... SCHWARTZ
   Thresh                                   ... 1.000e-09
   Tcut                                     ... 1.000e-10
   Tpresel                                  ... 1.000e-10 
Coulomb Range Separation                    ... NOT USED
Exchange Range Separation                   ... NOT USED
Multipole approximations                    ... NOT USED
Finite Nucleus Model                        ... NOT USED
CABS basis                                  ... NOT available
Auxiliary Coulomb fitting basis             ... AVAILABLE
   # of basis functions in Aux-J            ...    546
   # of shells in Aux-J                     ...    190
   Maximum angular momentum in Aux-J        ...      4
Auxiliary J/K fitting basis                 ... NOT available
Auxiliary Correlation fitting basis         ... NOT available
Auxiliary 'external' fitting basis          ... NOT available

Checking pre-screening integrals            ... done (  0.0 sec) Dimension = 76
Check shell pair data                       ... done (  0.0 sec)
Shell pair information
Shell pair cut-off parameter TPreSel        ...   1.0e-10
Total number of shell pairs                 ...      2926
Shell pairs after pre-screening             ...      2802
Total number of primitive shell pairs       ...     11774
Primitive shell pairs kept                  ...      7894
          la=0 lb=0:   1297 shell pairs
          la=1 lb=0:    815 shell pairs
          la=1 lb=1:    136 shell pairs
          la=2 lb=0:    391 shell pairs
          la=2 lb=1:    128 shell pairs
          la=2 lb=2:     35 shell pairs

Calculating one electron integrals          ... done (  0.0 sec)
Calculating RI/J V-Matrix + Cholesky decomp.... done (  0.1 sec)
Calculating Nuclear repulsion               ... done (  0.0 sec) ENN=    401.641187001710 Eh

Diagonalization of the overlap matrix:
Smallest eigenvalue                        ... 1.253e-03
Time for diagonalization                   ...    0.002 sec
Threshold for overlap eigenvalues          ... 1.000e-07
Number of eigenvalues below threshold      ... 0
Time for construction of square roots      ...    0.013 sec
Total time needed                          ...    0.024 sec

-------------------
DFT GRID GENERATION
-------------------

General Integration Accuracy     IntAcc      ... 4.159
Radial Grid Type                 RadialGrid  ... OptM3 with GC (2021)
Angular Grid (max. ang.)         AngularGrid ... 3 (Lebedev-194)
Angular grid pruning method      GridPruning ... 4 (adaptive)
Weight generation scheme         WeightScheme... mBecke (2022)
Basis function cutoff            BFCut       ... 1.0000e-10
Integration weight cutoff        WCut        ... 1.0000e-14
Partially contracted basis set               ... off
Rotationally invariant grid construction     ... off
Angular grids for H and He will be reduced by one unit

Total number of grid points                  ...    45496
Total number of batches                      ...      722
Average number of points per batch           ...       63
Average number of grid points per atom       ...     2068
Initializing property integral containers    ... done (  0.0 sec)

SHARK setup successfully completed in   0.8 seconds

Maximum memory used throughout the entire STARTUP-calculation: 22.7 MB
-------------------------------------------------------------------------------
                                 ORCA GUESS
                   Start orbitals & Density for SCF / CASSCF
-------------------------------------------------------------------------------

------------
SCF SETTINGS
------------
Hamiltonian:
 Density Functional     Method          .... DFT(GTOs)
 Exchange Functional    Exchange        .... PBE
   PBE kappa parameter   XKappa         ....  0.804000
   PBE mue parameter    XMuePBE         ....  0.219520
 Correlation Functional Correlation     .... PBE
   PBE beta parameter  CBetaPBE         ....  0.066725
 LDA part of GGA corr.  LDAOpt          .... PW91-LDA
 Gradients option       PostSCFGGA      .... off
   NL short-range parameter             ....  6.400000
 RI-approximation to the Coulomb term is turned on
   Number of AuxJ basis functions       .... 546


General Settings:
 Integral files         IntName         .... sp
 Hartree-Fock type      HFTyp           .... RHF
 Total Charge           Charge          ....    0
 Multiplicity           Mult            ....    1
 Number of Electrons    NEL             ....   64
 Basis Dimension        Dim             ....  140
 Nuclear Repulsion      ENuc            ....    401.6411870017 Eh

Convergence Acceleration:
 AO-DIIS                CNVDIIS         .... on
   Start iteration      DIISMaxIt       ....    12
   Startup error        DIISStart       ....  0.200000
   # of expansion vecs  DIISMaxEq       ....     5
   Bias factor          DIISBfac        ....   1.050
   Max. coefficient     DIISMaxC        ....  10.000
 MO-DIIS                CNVKDIIS        .... off
 Trust-Rad. Augm. Hess. CNVTRAH         .... auto
   Auto Start mean grad. ratio tolernc. ....  1.125000
   Auto Start start iteration           ....    50
   Auto Start num. interpolation iter.  ....    10
   Max. Number of Micro iterations      ....    24
   Max. Number of Macro iterations      .... Maxiter - #DIIS iter
   Number of Davidson start vectors     ....     2
   Converg. threshold    (grad. norm)   ....   1.000e-04
   Grad. Scal. Fac. for Micro threshold ....   0.100
   Minimum threshold for Micro iter.    ....   1.000e-02
   NR start threshold (gradient norm)   ....   1.000e-04
   Initial trust radius                 ....   0.400
   Minimum AH scaling param. (alpha)    ....   1.000
   Maximum AH scaling param. (alpha)    .... 1000.000
   Quad. conv. algorithm                .... NR
   White noise on init. David. guess    .... on
   Maximum white noise                  ....   0.010
   Pseudo random numbers                .... off
   Inactive MOs                         .... canonical
   Orbital update algorithm             .... Taylor
   Preconditioner                       .... Diag
   Full preconditioner red. dimension   ....   250
 SOSCF                  CNVSOSCF        .... on
   Start iteration      SOSCFMaxIt      ....   150
   Startup grad/error   SOSCFStart      ....  0.003300
   Hessian update       SOSCFHessUp     .... L-BFGS
 Level Shifting         CNVShift        .... on
   Level shift para.    LevelShift      ....    0.2500
   Turn off err/grad.   ShiftErr        ....    0.0010
 Zerner damping         CNVZerner       .... off
 Static damping         CNVDamp         .... on
   Fraction old density DampFac         ....    0.7000
   Max. Damping (<1)    DampMax         ....    0.9800
   Min. Damping (>=0)   DampMin         ....    0.0000
   Turn off err/grad.   DampErr         ....    0.1000

SCF Procedure:
 Maximum # iterations   MaxIter         ....   125
 SCF integral mode      SCFMode         .... Direct
   Integral package                     .... SHARK and LIBINT hybrid scheme
 Reset frequency        DirectResetFreq ....    20
 Integral Threshold     Thresh          ....  1.000e-09 Eh
 Primitive CutOff       TCut            ....  1.000e-10 Eh

Convergence Tolerance:
 Convergence Check Mode ConvCheckMode   .... Total+1el-Energy
 Convergence forced     ConvForced      .... 0
 Energy Change          TolE            ....  1.000e-05 Eh
 1-El. energy change                    ....  1.000e-02 Eh
 Orbital Gradient       TolG            ....  1.000e-04
 Orbital Rotation angle TolX            ....  1.000e-04
 DIIS Error             TolErr          ....  5.000e-04

------------------------------
INITIAL GUESS: MODEL POTENTIAL
------------------------------
Loading Hartree-Fock densities                     ... done
Calculating cut-offs                               ... done
Initializing the effective Hamiltonian             ... done
Setting up the integral package (SHARK)            ... done
Starting the Coulomb interaction                   ... done (   0.2 sec)
Making the grid                                    ... done (   0.3 sec)
Mapping shells                                     ... done
Starting the XC term evaluation                    ... done (   0.2 sec)
  promolecular density results
     # of electrons  =     63.986923669
     EX              =    -48.082358945
     EC              =     -2.094312514
     EX+EC           =    -50.176671459
Transforming the Hamiltonian                       ... done (   0.0 sec)
Diagonalizing the Hamiltonian                      ... done (   0.0 sec)
Back transforming the eigenvectors                 ... done (   0.0 sec)
Now organizing SCF variables                       ... done
                      ------------------
                      INITIAL GUESS DONE (   0.7 sec)
                      ------------------
             **** ENERGY FILE WAS UPDATED (sp.en.tmp) ****
Finished Guess after   0.9 sec
Maximum memory used throughout the entire GUESS-calculation: 17.3 MB

-------------------------------------------------------------------------------------------
                                      ORCA LEAN-SCF
                              memory conserving SCF solver
-------------------------------------------------------------------------------------------

----------------------------------------D-I-I-S--------------------------------------------
Iteration    Energy (Eh)           Delta-E    RMSDP     MaxDP     DIISErr   Damp  Time(sec)
-------------------------------------------------------------------------------------------
               ***  Starting incremental Fock matrix formation  ***
    1    -349.3798092228267365     0.00e+00  5.45e-03  1.22e-01  2.15e-01  0.700   1.0
    2    -349.5111984055435528    -1.31e-01  3.59e-03  7.77e-02  7.43e-02  0.700   1.0
                               ***Turning on AO-DIIS***
    3    -349.5533154599530121    -4.21e-02  1.36e-03  1.70e-02  2.25e-02  0.700   1.0
    4    -349.5793476895520939    -2.60e-02  1.85e-03  2.31e-02  1.27e-02  0.000   1.0
    5    -349.6395571694558271    -6.02e-02  6.54e-04  1.26e-02  8.92e-03  0.000   1.0
                              *** Initializing SOSCF ***
---------------------------------------S-O-S-C-F--------------------------------------
Iteration    Energy (Eh)           Delta-E    RMSDP     MaxDP     MaxGrad    Time(sec)
--------------------------------------------------------------------------------------
    6    -349.6404664868354644    -9.09e-04  2.15e-04  2.31e-03  2.00e-03     0.9
               *** Restarting incremental Fock matrix formation ***
    7    -349.6405321613656838    -6.57e-05  1.89e-04  3.58e-03  5.34e-04     1.0
    8    -349.6405287474410102     3.41e-06  9.38e-05  2.54e-03  8.64e-04     0.9
                 **** Energy Check signals convergence ****

               *****************************************************
               *                     SUCCESS                       *
               *           SCF CONVERGED AFTER   8 CYCLES          *
               *****************************************************

             **** ENERGY FILE WAS UPDATED (sp.en.tmp) ****

----------------
TOTAL SCF ENERGY
----------------

Total Energy       :       -349.64052874744101 Eh           -9514.20248 eV

Components:
Nuclear Repulsion  :        401.64118700170997 Eh           10929.21233 eV
Electronic Energy  :       -751.28171574915098 Eh          -20443.41481 eV
One Electron Energy:      -1268.61945685745741 Eh          -34520.89043 eV
Two Electron Energy:        517.33774110830643 Eh           14077.47562 eV

Virial components:
Potential Energy   :       -696.19801124889977 Eh          -18944.51101 eV
Kinetic Energy     :        346.55748250145876 Eh            9430.30853 eV
Virial Ratio       :          2.00889620453071

DFT components:
N(Alpha)           :       32.000020043984 electrons
N(Beta)            :       32.000020043984 electrons
N(Total)           :       64.000040087968 electrons
E(X)               :      -49.216562304422 Eh       
E(C)               :       -2.107175761856 Eh       
E(XC)              :      -51.323738066278 Eh       

---------------
SCF CONVERGENCE
---------------

  Last Energy change         ...   -3.4139e-06  Tolerance :   1.0000e-05
  Last MAX-Density change    ...    2.5382e-03  Tolerance :   1.0000e-03
  Last RMS-Density change    ...    9.3825e-05  Tolerance :   1.0000e-04
  Last DIIS Error            ...    2.0048e-03  Tolerance :   5.0000e-04
  Last Orbital Gradient      ...    8.6400e-04  Tolerance :   1.0000e-04
  Last Orbital Rotation      ...    1.3081e-03  Tolerance :   1.0000e-04


----------------
ORBITAL ENERGIES
----------------

  NO   OCC          E(Eh)            E(eV) 
   0   2.0000     -18.734075      -509.7801 
   1   2.0000      -9.965417      -271.1728 
   2   2.0000      -9.902394      -269.4578 
   3   2.0000      -9.900897      -269.4171 
   4   2.0000      -9.886689      -269.0305 
   5   2.0000      -9.884099      -268.9600 
   6   2.0000      -9.879858      -268.8446 
   7   2.0000      -9.873527      -268.6723 
   8   2.0000      -0.932991       -25.3880 
   9   2.0000      -0.735185       -20.0054 
  10   2.0000      -0.714056       -19.4304 
  11   2.0000      -0.619890       -16.8681 
  12   2.0000      -0.615409       -16.7461 
  13   2.0000      -0.578851       -15.7513 
  14   2.0000      -0.532960       -14.5026 
  15   2.0000      -0.453976       -12.3533 
  16   2.0000      -0.444477       -12.0948 
  17   2.0000      -0.412820       -11.2334 
  18   2.0000      -0.399375       -10.8675 
  19   2.0000      -0.386545       -10.5184 
  20   2.0000      -0.372222       -10.1287 
  21   2.0000      -0.361094        -9.8259 
  22   2.0000      -0.349707        -9.5160 
  23   2.0000      -0.346387        -9.4257 
  24   2.0000      -0.333590        -9.0775 
  25   2.0000      -0.329078        -8.9547 
  26   2.0000      -0.315630        -8.5887 
  27   2.0000      -0.303546        -8.2599 
  28   2.0000      -0.297262        -8.0889 
  29   2.0000      -0.294563        -8.0155 
  30   2.0000      -0.284216        -7.7339 
  31   2.0000      -0.191380        -5.2077 
  32   0.0000      -0.052112        -1.4180 
  33   0.0000       0.025628         0.6974 
  34   0.0000       0.058459         1.5908 
  35   0.0000       0.061184         1.6649 
  36   0.0000       0.078684         2.1411 
  37   0.0000       0.086597         2.3564 
  38   0.0000       0.102430         2.7873 
  39   0.0000       0.107429         2.9233 
  40   0.0000       0.112374         3.0578 
  41   0.0000       0.118014         3.2113 
  42   0.0000       0.126477         3.4416 
*Only the first 10 virtual orbitals were printed.

                    ********************************
                    * MULLIKEN POPULATION ANALYSIS *
                    ********************************

-----------------------
MULLIKEN ATOMIC CHARGES
-----------------------
   0 C :   -0.240944
   1 C :   -0.167961
   2 C :   -0.257132
   3 C :    0.044224
   4 O :   -0.177839
   5 C :   -0.172953
   6 C :   -0.261949
   7 C :   -0.228113
   8 H :    0.110000
   9 H :    0.106372
  10 H :    0.104165
  11 H :    0.097129
  12 H :    0.122731
  13 H :    0.096840
  14 H :    0.103381
  15 H :    0.076323
  16 H :    0.114084
  17 H :    0.109346
  18 H :    0.112611
  19 H :    0.093983
  20 H :    0.101220
  21 H :    0.114480
Sum of atomic charges:    0.0000000

--------------------------------
MULLIKEN REDUCED ORBITAL CHARGES
--------------------------------
  0 C s       :     3.052007  s :     3.052007
      pz      :     1.038773  p :     3.159894
      px      :     1.064120
      py      :     1.057000
      dz2     :     0.006229  d :     0.029043
      dxz     :     0.007414
      dyz     :     0.004632
      dx2y2   :     0.008541
      dxy     :     0.002227

  1 C s       :     3.063392  s :     3.063392
      pz      :     1.000889  p :     3.063765
      px      :     1.021003
      py      :     1.041873
      dz2     :     0.010305  d :     0.040804
      dxz     :     0.009205
      dyz     :     0.006270
      dx2y2   :     0.010753
      dxy     :     0.004270

  2 C s       :     3.104658  s :     3.104658
      pz      :     1.050892  p :     3.123317
      px      :     1.019807
      py      :     1.052619
      dz2     :     0.008053  d :     0.029156
      dxz     :     0.004103
      dyz     :     0.004484
      dx2y2   :     0.010198
      dxy     :     0.002318

  3 C s       :     3.154654  s :     3.154654
      pz      :     0.891537  p :     2.710740
      px      :     0.984208
      py      :     0.834995
      dz2     :     0.020176  d :     0.090381
      dxz     :     0.031888
      dyz     :     0.016946
      dx2y2   :     0.009600
      dxy     :     0.011772

  4 O s       :     3.754397  s :     3.754397
      pz      :     1.322995  p :     4.406145
      px      :     1.742367
      py      :     1.340784
      dz2     :     0.006267  d :     0.017296
      dxz     :     0.003435
      dyz     :     0.005391
      dx2y2   :     0.001192
      dxy     :     0.001011

  5 C s       :     3.085983  s :     3.085983
      pz      :     1.020667  p :     3.045770
      px      :     1.007284
      py      :     1.017819
      dz2     :     0.005283  d :     0.041200
      dxz     :     0.009201
      dyz     :     0.011095
      dx2y2   :     0.007170
      dxy     :     0.008450

  6 C s       :     3.098979  s :     3.098979
      pz      :     1.048195  p :     3.133530
      px      :     1.051157
      py      :     1.034177
      dz2     :     0.001710  d :     0.029440
      dxz     :     0.008938
      dyz     :     0.008248
      dx2y2   :     0.004187
      dxy     :     0.006357

  7 C s       :     3.082103  s :     3.082103
      pz      :     1.032601  p :     3.117204
      px      :     1.027135
      py      :     1.057469
      dz2     :     0.002295  d :     0.028805
      dxz     :     0.007425
      dyz     :     0.008900
      dx2y2   :     0.004367
      dxy     :     0.005817

  8 H s       :     0.890000  s :     0.890000

  9 H s       :     0.893628  s :     0.893628

 10 H s       :     0.895835  s :     0.895835

 11 H s       :     0.902871  s :     0.902871

 12 H s       :     0.877269  s :     0.877269

 13 H s       :     0.903160  s :     0.903160

 14 H s       :     0.896619  s :     0.896619

 15 H s       :     0.923677  s :     0.923677

 16 H s       :     0.885916  s :     0.885916

 17 H s       :     0.890654  s :     0.890654

 18 H s       :     0.887389  s :     0.887389

 19 H s       :     0.906017  s :     0.906017

 20 H s       :     0.898780  s :     0.898780

 21 H s       :     0.885520  s :     0.885520


------------------------
MULLIKEN OVERLAP CHARGES
------------------------
B(  0-C ,  1-C ) :   0.6421 B(  0-C ,  2-C ) :  -0.1246 B(  0-C ,  5-C ) :   0.0611 
B(  0-C ,  8-H ) :   0.7170 B(  0-C ,  9-H ) :   0.7356 B(  0-C , 10-H ) :   0.7006 
B(  1-C ,  2-C ) :   0.8604 B(  1-C ,  3-C ) :   0.4703 B(  1-C ,  4-O ) :  -0.2103 
B(  1-C ,  5-C ) :  -0.4531 B(  1-C , 11-H ) :   0.5718 B(  1-C , 12-H ) :  -0.0657 
B(  1-C , 13-H ) :  -0.0693 B(  2-C ,  3-C ) :  -0.0721 B(  2-C , 12-H ) :   0.7197 
B(  2-C , 13-H ) :   0.7577 B(  2-C , 14-H ) :   0.7511 B(  3-C ,  4-O ) :   1.4318 
B(  3-C ,  5-C ) :   0.5493 B(  3-C ,  6-C ) :  -0.0591 B(  3-C ,  7-C ) :  -0.0685 
B(  4-O ,  5-C ) :  -0.2240 B(  5-C ,  6-C ) :   0.8248 B(  5-C ,  7-C ) :   0.7852 
B(  5-C , 15-H ) :   0.6154 B(  5-C , 16-H ) :  -0.0611 B(  5-C , 17-H ) :  -0.0523 
B(  5-C , 20-H ) :  -0.0510 B(  6-C ,  7-C ) :  -0.0988 B(  6-C , 16-H ) :   0.7367 
B(  6-C , 17-H ) :   0.7339 B(  6-C , 18-H ) :   0.7445 B(  7-C , 15-H ) :  -0.0727 
B(  7-C , 19-H ) :   0.7389 B(  7-C , 20-H ) :   0.7497 B(  7-C , 21-H ) :   0.7376 
B(  8-H ,  9-H ) :  -0.0514 B( 13-H , 14-H ) :  -0.0567 


                     *******************************
                     * LOEWDIN POPULATION ANALYSIS *
                     *******************************

----------------------
LOEWDIN ATOMIC CHARGES
----------------------
   0 C :   -0.335369
   1 C :   -0.181288
   2 C :   -0.320411
   3 C :    0.070959
   4 O :   -0.130797
   5 C :   -0.183166
   6 C :   -0.316430
   7 C :   -0.324764
   8 H :    0.119017
   9 H :    0.120035
  10 H :    0.124683
  11 H :    0.138915
  12 H :    0.127191
  13 H :    0.117780
  14 H :    0.119691
  15 H :    0.122379
  16 H :    0.126755
  17 H :    0.117887
  18 H :    0.123882
  19 H :    0.117369
  20 H :    0.119945
  21 H :    0.125738

-------------------------------
LOEWDIN REDUCED ORBITAL CHARGES
-------------------------------
  0 C s       :     2.944408  s :     2.944408
      pz      :     1.078388  p :     3.319568
      px      :     1.124964
      py      :     1.116215
      dz2     :     0.016163  d :     0.071393
      dxz     :     0.017590
      dyz     :     0.011684
      dx2y2   :     0.020452
      dxy     :     0.005504

  1 C s       :     2.886138  s :     2.886138
      pz      :     1.050294  p :     3.193616
      px      :     1.060767
      py      :     1.082555
      dz2     :     0.024891  d :     0.101534
      dxz     :     0.023994
      dyz     :     0.016185
      dx2y2   :     0.026368
      dxy     :     0.010095

  2 C s       :     2.949059  s :     2.949059
      pz      :     1.101627  p :     3.300625
      px      :     1.084685
      py      :     1.114313
      dz2     :     0.018687  d :     0.070727
      dxz     :     0.011368
      dyz     :     0.010976
      dx2y2   :     0.023795
      dxy     :     0.005901

  3 C s       :     2.893540  s :     2.893540
      pz      :     0.965177  p :     2.823674
      px      :     1.030489
      py      :     0.828008
      dz2     :     0.046146  d :     0.211826
      dxz     :     0.079171
      dyz     :     0.038635
      dx2y2   :     0.021826
      dxy     :     0.026049

  4 O s       :     3.549872  s :     3.549872
      pz      :     1.433964  p :     4.550248
      px      :     1.748118
      py      :     1.368165
      dz2     :     0.011003  d :     0.030678
      dxz     :     0.006251
      dyz     :     0.010057
      dx2y2   :     0.001751
      dxy     :     0.001615

  5 C s       :     2.883998  s :     2.883998
      pz      :     1.071129  p :     3.197266
      px      :     1.063219
      py      :     1.062918
      dz2     :     0.010039  d :     0.101902
      dxz     :     0.025352
      dyz     :     0.028559
      dx2y2   :     0.015824
      dxy     :     0.022128

  6 C s       :     2.947563  s :     2.947563
      pz      :     1.101271  p :     3.297781
      px      :     1.103375
      py      :     1.093136
      dz2     :     0.003054  d :     0.071086
      dxz     :     0.021780
      dyz     :     0.020995
      dx2y2   :     0.009663
      dxy     :     0.015594

  7 C s       :     2.945574  s :     2.945574
      pz      :     1.102952  p :     3.308511
      px      :     1.090496
      py      :     1.115063
      dz2     :     0.004918  d :     0.070678
      dxz     :     0.019505
      dyz     :     0.021670
      dx2y2   :     0.010245
      dxy     :     0.014341

  8 H s       :     0.880983  s :     0.880983

  9 H s       :     0.879965  s :     0.879965

 10 H s       :     0.875317  s :     0.875317

 11 H s       :     0.861085  s :     0.861085

 12 H s       :     0.872809  s :     0.872809

 13 H s       :     0.882220  s :     0.882220

 14 H s       :     0.880309  s :     0.880309

 15 H s       :     0.877621  s :     0.877621

 16 H s       :     0.873245  s :     0.873245

 17 H s       :     0.882113  s :     0.882113

 18 H s       :     0.876118  s :     0.876118

 19 H s       :     0.882631  s :     0.882631

 20 H s       :     0.880055  s :     0.880055

 21 H s       :     0.874262  s :     0.874262


---------------------------------
LOEWDIN BOND ORDERS (THRESH 0.050000)
---------------------------------
B(  0-C ,  1-C ) :   1.0950 B(  0-C ,  2-C ) :   0.0553 B(  0-C ,  3-C ) :   0.0509 
B(  0-C ,  8-H ) :   0.9320 B(  0-C ,  9-H ) :   0.9320 B(  0-C , 10-H ) :   0.9293 
B(  1-C ,  2-C ) :   1.0736 B(  1-C ,  3-C ) :   1.0261 B(  1-C ,  4-O ) :   0.1103 
B(  1-C ,  5-C ) :   0.0639 B(  1-C , 11-H ) :   0.8539 B(  2-C ,  3-C ) :   0.0710 
B(  2-C , 12-H ) :   0.9307 B(  2-C , 13-H ) :   0.9380 B(  2-C , 14-H ) :   0.9346 
B(  3-C ,  4-O ) :   2.2408 B(  3-C ,  5-C ) :   1.0221 B(  3-C ,  6-C ) :   0.0765 
B(  3-C ,  7-C ) :   0.0602 B(  4-O ,  5-C ) :   0.1063 B(  5-C ,  6-C ) :   1.0662 
B(  5-C ,  7-C ) :   1.0864 B(  5-C , 15-H ) :   0.8618 B(  6-C ,  7-C ) :   0.0543 
B(  6-C , 16-H ) :   0.9336 B(  6-C , 17-H ) :   0.9339 B(  6-C , 18-H ) :   0.9314 
B(  7-C , 19-H ) :   0.9346 B(  7-C , 20-H ) :   0.9377 B(  7-C , 21-H ) :   0.9307 


------------------------------------------
LOEWDIN REDUCED ORBITAL POPULATIONS PER MO
-------------------------------------------
THRESHOLD FOR PRINTING IS 0.1%%
                      0         1         2         3         4         5   
                 -18.73407  -9.96542  -9.90239  -9.90090  -9.88669  -9.88410
                   2.00000   2.00000   2.00000   2.00000   2.00000   2.00000
                  --------  --------  --------  --------  --------  --------
 0 C  s               0.0       0.0       0.0       0.0       0.0      99.7
 1 C  s               0.0       0.0      99.6       0.0       0.0       0.0
 3 C  s               0.0      99.4       0.0       0.0       0.0       0.0
 4 O  s              99.9       0.0       0.0       0.0       0.0       0.0
 4 O  pz              0.0       0.2       0.0       0.0       0.0       0.0
 5 C  s               0.0       0.0       0.0      99.6       0.0       0.0
 6 C  s               0.0       0.0       0.0       0.0      99.7       0.0

                      6         7         8         9        10        11   
                  -9.87986  -9.87353  -0.93299  -0.73518  -0.71406  -0.61989
                   2.00000   2.00000   2.00000   2.00000   2.00000   2.00000
                  --------  --------  --------  --------  --------  --------
 0 C  s               0.0       0.0       0.1       8.4       6.7      15.0
 0 C  pz              0.0       0.0       0.1       1.6       1.2       0.6
 0 C  py              0.0       0.0       0.0       0.2       0.2       0.0
 1 C  s               0.0       0.0       1.3      15.4      12.6       0.0
 1 C  pz              0.0       0.0       0.7       0.2       0.0       9.7
 1 C  px              0.0       0.0       1.2       0.0       0.8       1.5
 1 C  py              0.0       0.0       0.0       0.6       0.3       0.0
 1 C  dyz             0.0       0.0       0.0       0.0       0.0       0.2
 2 C  s              99.7       0.0       0.1       5.7       8.0      17.8
 2 C  pz              0.0       0.0       0.0       0.9       0.8       0.3
 2 C  px              0.0       0.0       0.2       0.6       0.5       0.0
 2 C  py              0.0       0.0       0.1       0.2       0.2       0.0
 3 C  s               0.0       0.0      19.6       3.9       0.0       0.0
 3 C  pz              0.0       0.0      10.0       7.7       0.1       0.3
 3 C  px              0.0       0.0       0.3       0.2       8.5       0.1
 3 C  py              0.0       0.0       2.5       1.7       0.4       0.3
 3 C  dz2             0.0       0.0       0.7       0.1       0.0       0.0
 3 C  dyz             0.0       0.0       0.8       0.0       0.0       0.0
 3 C  dx2y2           0.0       0.0       0.0       0.2       0.0       0.0
 4 O  s               0.0       0.0      50.3       4.0       0.0       0.2
 4 O  pz              0.0       0.0       5.2       0.2       0.0       0.0
 4 O  px              0.0       0.0       0.1       0.0       0.2       0.0
 4 O  py              0.0       0.0       1.3       0.0       0.0       0.0
 4 O  dz2             0.0       0.0       0.1       0.0       0.0       0.0
 4 O  dyz             0.0       0.0       0.1       0.0       0.0       0.0
 5 C  s               0.0       0.0       1.3      14.1      14.1       0.1
 5 C  pz              0.0       0.0       0.8       0.0       0.0       2.2
 5 C  px              0.0       0.0       0.6       0.0       1.5       0.8
 5 C  py              0.0       0.0       0.5       0.2       0.1       2.0
 6 C  s               0.0       0.0       0.1       6.5       9.2       3.6
 6 C  pz              0.0       0.0       0.1       0.4       0.6       0.1
 6 C  px              0.0       0.0       0.1       0.4       0.2       0.1
 6 C  py              0.0       0.0       0.0       0.8       0.9       0.1
 7 C  s               0.0      99.7       0.2       4.4       8.1       8.8
 7 C  pz              0.0       0.0       0.0       0.7       0.8       0.0
 7 C  px              0.0       0.0       0.2       0.6       0.5       0.0
 7 C  py              0.0       0.0       0.1       0.2       0.4       0.1
 8 H  s               0.0       0.0       0.0       1.7       1.0       5.0
 9 H  s               0.0       0.0       0.0       1.7       1.2       3.7
10 H  s               0.0       0.0       0.0       1.5       1.4       3.7
11 H  s               0.0       0.0       0.3       2.6       2.5       0.0
12 H  s               0.1       0.0       0.1       0.8       1.4       4.9
13 H  s               0.1       0.0       0.0       1.1       1.5       4.4
14 H  s               0.1       0.0       0.0       1.0       1.5       4.4
15 H  s               0.0       0.0       0.1       3.3       2.2       0.0
16 H  s               0.0       0.0       0.0       1.1       1.8       0.8
17 H  s               0.0       0.0       0.0       1.3       1.6       1.4
18 H  s               0.0       0.0       0.0       1.1       1.8       0.8
19 H  s               0.0       0.1       0.0       0.8       1.6       2.2
20 H  s               0.0       0.1       0.0       0.7       1.4       2.4
21 H  s               0.0       0.1       0.1       0.7       1.5       2.0

                     12        13        14        15        16        17   
                  -0.61541  -0.57885  -0.53296  -0.45398  -0.44448  -0.41282
                   2.00000   2.00000   2.00000   2.00000   2.00000   2.00000
                  --------  --------  --------  --------  --------  --------
 0 C  s               7.3       6.5       1.5       0.2       0.1       0.2
 0 C  pz              0.2       1.0       1.6       0.4       0.5      15.8
 0 C  px              0.0       0.9       0.0       0.2       4.2       2.5
 0 C  py              0.0       0.3       2.1       1.2       4.9       4.0
 1 C  s               0.0       2.0       8.1       0.9       0.6       1.4
 1 C  pz              3.9       1.0       0.1       0.2       3.1       0.1
 1 C  px              0.2       8.5       0.5       4.1       8.9       2.0
 1 C  py              0.0       1.0       5.4       3.0       5.3      13.9
 1 C  dz2             0.0       0.1       0.0       0.0       0.0       0.0
 2 C  s               5.1       4.0       5.1       0.2       0.0       0.7
 2 C  pz              0.1       0.0       1.0       0.7       1.9      12.5
 2 C  px              0.0       1.1       1.9       0.1       3.9       4.2
 2 C  py              0.0       0.3       2.4       2.3       1.8       1.5
 2 C  dxz             0.0       0.0       0.1       0.0       0.0       0.2
 3 C  s               0.0      10.4       0.0       4.9       0.1       0.2
 3 C  pz              0.1       7.3       0.0       0.8       0.2       1.0
 3 C  px              0.2       0.5       9.8       0.6      11.9       0.1
 3 C  py              0.3       1.4       2.4       0.6       1.2       3.8
 3 C  dxz             0.0       0.0       0.1       0.0       0.0       0.0
 4 O  s               0.0       3.6       0.0       4.0       0.0       0.3
 4 O  pz              0.0       1.4       0.0       3.7       0.4       1.2
 4 O  px              0.1       0.1       1.1       0.3       4.6       0.5
 4 O  py              0.0       0.2       0.2       1.7       0.2       0.9
 5 C  s               0.1       2.3       5.6       4.2       0.5       0.0
 5 C  pz              5.2       0.2       0.1      10.3       4.8       1.1
 5 C  px              0.0       9.7       3.8       2.5       0.2       0.4
 5 C  py              5.8       0.0       0.1       8.6       6.4       0.1
 5 C  dxz             0.1       0.0       0.0       0.1       0.0       0.0
 5 C  dyz             0.0       0.1       0.1       0.0       0.0       0.0
 5 C  dxy             0.1       0.1       0.0       0.1       0.0       0.0
 6 C  s              18.0       5.7       2.5       0.4       0.2       0.1
 6 C  pz              0.3       0.3       0.5       0.3       6.1       0.3
 6 C  px              0.0       1.4       1.4       0.0       0.4       3.8
 6 C  py              0.4       0.3       1.3       9.7       0.2       0.0
 7 C  s              15.3       3.4       5.0       0.7       0.2       0.2
 7 C  pz              0.2       0.1       0.7       8.0       0.2       0.1
 7 C  px              0.0       1.0       2.8       0.4       0.6       0.7
 7 C  py              0.2       0.0       0.4       0.2       4.2       0.9
 8 H  s               1.9       1.7       0.7       0.2       0.5      10.3
 9 H  s               2.0       2.1       1.9       0.7       2.9       0.8
10 H  s               2.0       3.2       0.8       0.0       1.0       0.1
11 H  s               0.0       0.6       5.9       3.5       5.1       1.8
12 H  s               1.5       1.0       1.7       0.1       0.3       6.6
13 H  s               1.2       1.3       3.4       1.3       1.1       0.1
14 H  s               1.2       2.0       2.7       0.0       1.9       1.3
15 H  s               0.1       0.9       3.3      10.1       3.2       0.1
16 H  s               4.6       2.1       1.5       3.0       0.4       0.6
17 H  s               5.4       1.4       1.0       0.9       0.8       1.2
18 H  s               4.6       2.7       1.7       0.2       2.0       0.8
19 H  s               3.7       1.6       3.1       0.0       1.3       0.5
20 H  s               4.5       0.8       1.7       1.0       0.8       0.3
21 H  s               3.6       1.4       2.2       2.9       0.3       0.0

                     18        19        20        21        22        23   
                  -0.39937  -0.38655  -0.37222  -0.36109  -0.34971  -0.34639
                   2.00000   2.00000   2.00000   2.00000   2.00000   2.00000
                  --------  --------  --------  --------  --------  --------
 0 C  s               0.4       0.0       0.1       0.0       0.0       0.0
 0 C  pz              3.5       2.5       1.1       0.3       0.7       0.3
 0 C  px              0.7       7.3       3.3       5.2       7.1       6.3
 0 C  py              1.5       0.1       1.3      17.5       6.9       4.2
 0 C  dz2             0.0       0.0       0.0       0.1       0.0       0.0
 0 C  dx2y2           0.0       0.1       0.0       0.0       0.2       0.1
 0 C  dxy             0.0       0.0       0.0       0.1       0.0       0.0
 1 C  s               0.1       0.1       0.2       0.0       0.0       0.0
 1 C  pz              3.7       1.8       0.2       8.7       0.2       0.1
 1 C  px              0.6       2.5       0.1       1.4       0.5       0.2
 1 C  py              0.2       1.1       0.1       0.0       0.7       0.0
 1 C  dyz             0.0       0.0       0.0       0.0       0.1       0.0
 1 C  dxy             0.0       0.0       0.1       0.0       0.0       0.0
 2 C  pz              1.7       0.0       6.1       0.0       0.2       0.4
 2 C  px              1.6       0.0       5.1       2.1      10.8       3.9
 2 C  py              0.3       4.5       2.3      10.9       1.6       9.5
 2 C  dx2y2           0.0       0.0       0.0       0.0       0.1       0.2
 3 C  s               0.6       0.8       1.5       0.3       0.0       0.1
 3 C  pz              0.8       4.7       1.6       0.3       0.5       0.1
 3 C  px              1.7       0.1       0.1       0.1       0.0       0.3
 3 C  py              0.8       3.4       5.7       0.6       1.3       0.6
 3 C  dxz             0.0       0.0       0.0       0.2       0.0       0.0
 4 O  s               3.4       4.6       3.4       0.2       0.0       0.1
 4 O  pz              6.1       5.3      21.7       1.1       0.6       0.0
 4 O  px              2.3       0.7       0.2       0.4       0.0       0.6
 4 O  py              0.6      11.2       0.0       1.9       2.7       2.0
 4 O  dz2             0.0       0.0       0.2       0.0       0.0       0.0
 4 O  dyz             0.0       0.1       0.0       0.0       0.0       0.0
 5 C  s               0.3       0.0       0.1       0.2       0.1       0.1
 5 C  pz              0.2       2.3       3.5       0.9       0.8       0.1
 5 C  px              9.6       0.5       0.1       0.2       0.1       0.2
 5 C  py              1.1       5.5       0.4       0.8       2.6       0.8
 5 C  dz2             0.0       0.1       0.0       0.0       0.1       0.1
 6 C  s               0.1       0.3       0.0       0.0       0.0       0.0
 6 C  pz              8.9       5.6       1.4       1.5       4.8       7.8
 6 C  px              6.5       2.5       3.0      12.0       8.2       0.5
 6 C  py              4.5       0.9       1.3       1.6       5.7       7.5
 6 C  dxz             0.1       0.0       0.0       0.1       0.0       0.1
 6 C  dyz             0.0       0.0       0.0       0.0       0.3       0.0
 7 C  s               0.2       0.0       0.1       0.0       0.0       0.0
 7 C  pz              6.8       0.1       1.2       0.7       1.3       5.3
 7 C  px              1.2       9.6       7.3       0.1       1.8       1.2
 7 C  py              6.8       2.8       3.9       0.1       3.9       8.9
 7 C  dxz             0.0       0.0       0.1       0.0       0.0       0.0
 7 C  dyz             0.0       0.1       0.0       0.0       0.1       0.1
 7 C  dxy             0.1       0.0       0.0       0.0       0.0       0.0
 8 H  s               0.1       0.1       2.5       3.8       0.1       0.1
 9 H  s               0.9       0.2       0.2       7.1       5.7       3.2
10 H  s               1.1       4.7       0.6       1.8       5.0       4.2
11 H  s               0.0       0.4       0.2       0.0       0.3       0.0
12 H  s               0.8       0.1       4.8       1.1       0.0       0.1
13 H  s               0.0       2.3       0.3       4.6       1.7       6.4
14 H  s               0.9       0.0       3.7       0.8       5.9       3.0
15 H  s               1.1       0.2       0.1       0.2       0.6       0.1
16 H  s               0.3       0.0       2.6       0.2       9.0       6.5
17 H  s               9.6       0.6       0.6       1.7       2.9       0.0
18 H  s               0.4       2.9       0.0       7.6       0.0       4.7
19 H  s               0.3       2.0       6.2       0.0       0.0       0.6
20 H  s               6.7       2.7       0.0       0.2       1.1       1.4
21 H  s               0.0       2.2       0.7       0.2       3.1       7.5

                     24        25        26        27        28        29   
                  -0.33359  -0.32908  -0.31563  -0.30355  -0.29726  -0.29456
                   2.00000   2.00000   2.00000   2.00000   2.00000   2.00000
                  --------  --------  --------  --------  --------  --------
 0 C  s               0.0       0.0       0.2       0.1       0.2       0.4
 0 C  pz              0.2       0.0       5.6       0.1      10.3       5.7
 0 C  px             15.7       0.0       0.1       0.8       1.0       0.3
 0 C  py              0.0       3.3       0.5       3.0       0.8       0.0
 0 C  dz2             0.1       0.1       0.0       0.1       0.0       0.0
 0 C  dxz             0.3       0.0       0.0       0.0       0.1       0.1
 0 C  dx2y2           0.1       0.1       0.1       0.1       0.0       0.0
 1 C  s               0.3       0.0       0.1       0.0       0.0       0.0
 1 C  pz              0.0       0.0       3.3       0.5       9.9       4.0
 1 C  px              4.6       0.1       1.2       0.3       0.3       5.5
 1 C  py              0.2       3.7       0.0       6.4       0.0       1.2
 1 C  dz2             0.1       0.1       0.1       0.1       0.2       0.1
 1 C  dxz             0.2       0.0       0.1       0.0       0.2       0.1
 1 C  dyz             0.0       0.0       0.0       0.0       0.2       0.2
 1 C  dx2y2           0.2       0.2       0.2       0.1       0.0       0.1
 2 C  s               0.1       0.0       0.0       0.1       0.2       0.2
 2 C  pz              0.9       0.1      13.2       1.8       9.2       2.8
 2 C  px              4.0       0.9       5.6       0.3       1.0       5.1
 2 C  py              0.0       8.2       1.3       3.6       0.0       0.2
 2 C  dz2             0.0       0.1       0.4       0.0       0.1       0.0
 2 C  dx2y2           0.0       0.2       0.2       0.1       0.0       0.1
 3 C  s               2.2       0.4       0.0       0.0       0.4       0.0
 3 C  pz              8.4       0.2       0.3       0.0       2.7       0.0
 3 C  px              0.5       0.1       8.9       0.1       0.7       3.2
 3 C  py              0.6       8.0       0.3       0.1       0.3       0.0
 3 C  dz2             0.0       0.1       0.0       0.0       0.4       0.0
 3 C  dxy             0.0       0.0       0.0       0.1       0.0       0.0
 4 O  s               2.3       0.2       0.0       0.0       0.8       0.0
 4 O  pz              7.2       3.4       1.5       0.1       2.3       1.0
 4 O  px              0.0       0.0       7.9       0.4       3.1       5.3
 4 O  py              5.2       7.4       0.3       0.0       4.5       0.0
 5 C  s               0.0       0.1       0.1       0.0       0.0       0.1
 5 C  pz              0.0       0.0       0.4       4.8       8.0       4.1
 5 C  px              4.2       1.4       0.6       0.2       0.4      10.6
 5 C  py              0.2       0.0       1.3       8.2       1.3       0.7
 5 C  dxz             0.1       0.0       0.2       0.2       0.0       0.0
 5 C  dyz             0.0       0.0       0.0       0.1       0.1       0.7
 5 C  dx2y2           0.1       0.1       0.0       0.1       0.1       0.0
 5 C  dxy             0.0       0.0       0.1       0.1       0.3       0.1
 6 C  s               0.0       0.0       0.0       0.4       0.0       0.1
 6 C  pz              0.4       0.6       1.2       7.4       3.3       0.8
 6 C  px              8.4       0.1       0.6       0.0       0.0       4.7
 6 C  py              1.7       3.6       1.2       9.2       0.6       0.7
 6 C  dxz             0.2       0.1       0.1       0.2       0.0       0.0
 6 C  dyz             0.1       0.0       0.0       0.0       0.1       0.3
 6 C  dxy             0.0       0.0       0.0       0.1       0.1       0.1
 7 C  s               0.0       0.0       0.0       0.1       0.1       0.5
 7 C  pz              1.3       8.6       1.3       6.3       7.1       4.2
 7 C  px              1.2      13.2       0.6       0.8       0.8       8.8
 7 C  py              0.3       0.4       6.5      10.8       1.2       0.1
 7 C  dxz             0.0       0.1       0.1       0.1       0.0       0.0
 7 C  dyz             0.0       0.1       0.0       0.3       0.1       0.2
 7 C  dx2y2           0.0       0.2       0.0       0.2       0.0       0.0
 7 C  dxy             0.0       0.2       0.0       0.1       0.1       0.0
 8 H  s               4.0       0.4       1.8       2.0       4.1       1.6
 9 H  s               0.3       2.3       0.9       2.2       0.1       0.1
10 H  s              10.4       0.0       0.8       0.1       0.1       0.0
11 H  s               0.3       2.7       0.5       4.9       0.1       2.1
12 H  s               0.3       0.5      10.2       0.0       4.4       1.7
13 H  s               0.2       6.3       0.0       2.4       0.1       1.3
14 H  s               1.8       1.3       7.7       0.1       0.0       1.8
15 H  s               0.1       0.0       1.0       0.6       6.8       8.1
16 H  s               0.1       1.4       1.2       0.1       3.0       3.2
17 H  s               3.3       0.2       0.2       5.6       0.8       2.9
18 H  s               6.5       1.0       2.3       0.0       1.2       0.5
19 H  s               0.2      12.9       3.0       0.9       1.2       1.0
20 H  s               0.1       4.1       0.5      11.8       0.0       0.2
21 H  s               0.3       1.0       3.6       0.9       5.2       2.8

                     30        31        32        33        34        35   
                  -0.28422  -0.19138  -0.05211   0.02563   0.05846   0.06118
                   2.00000   2.00000   0.00000   0.00000   0.00000   0.00000
                  --------  --------  --------  --------  --------  --------
 0 C  s               0.1       0.1       0.0       8.6       3.0       0.5
 0 C  pz              0.2       0.4       0.0       2.0       0.7       0.5
 0 C  px              0.1       0.4       0.1       0.1       1.9       0.9
 0 C  py              3.8       0.1       0.1       0.4       0.5       6.6
 0 C  dz2             0.1       0.0       0.0       0.0       0.0       0.0
 0 C  dxz             0.0       0.1       0.0       0.0       0.0       0.0
 0 C  dyz             0.0       0.0       0.0       0.1       0.1       0.0
 0 C  dx2y2           0.2       0.0       0.0       0.0       0.1       0.0
 0 C  dxy             0.0       0.0       0.0       0.0       0.0       0.2
 1 C  s               0.0       1.2       0.0       2.0       2.0       0.7
 1 C  pz              0.2       1.0       0.1       0.0       0.0       0.0
 1 C  px              0.0       7.8       0.1       0.2       0.5       0.1
 1 C  py             10.7       0.1       0.2       1.2       2.2       1.4
 1 C  dz2             0.2       0.0       0.0       0.0       0.1       0.2
 1 C  dxz             0.0       0.0       0.3       0.0       0.1       0.0
 1 C  dx2y2           0.2       0.0       0.2       0.0       0.1       0.2
 1 C  dxy             0.2       0.0       1.2       0.0       0.0       0.0
 2 C  s               0.3       0.0       1.5       2.8       1.3       2.2
 2 C  pz              0.1       0.3       1.3       0.3       0.2       0.0
 2 C  px              1.2       0.3       0.6       0.8       2.3       0.1
 2 C  py              4.6       0.0       0.0       0.6       0.1       3.1
 2 C  dz2             0.1       0.0       0.0       0.0       0.0       0.1
 2 C  dxy             0.0       0.0       0.0       0.1       0.1       0.0
 3 C  s               0.0       0.0       0.0       0.2       0.2       0.0
 3 C  pz              0.9       0.0       9.9       0.4       0.7       0.1
 3 C  px              0.0       3.3       1.8       0.1       0.3       0.0
 3 C  py              4.8       0.2      35.0       0.3       0.2       1.3
 3 C  dz2             0.4       0.0       0.8       0.0       0.2       0.0
 3 C  dxz             0.0       3.2       0.0       0.0       0.0       0.0
 3 C  dyz             0.5       0.3       0.4       0.1       0.1       0.0
 3 C  dx2y2           0.1       0.3       0.2       0.0       0.0       0.1
 3 C  dxy             0.1       0.7       0.1       0.1       0.1       0.0
 4 O  s               0.0       0.0       0.0       0.3       0.2       0.0
 4 O  pz              9.2       0.0       6.1       0.1       0.0       0.0
 4 O  px              0.5      59.0       1.3       0.1       0.3       0.0
 4 O  py             23.3       4.6      21.8       0.0       0.4       0.0
 4 O  dz2             0.0       0.0       0.2       0.0       0.0       0.0
 4 O  dyz             0.0       0.0       0.1       0.0       0.0       0.0
 5 C  s               0.0       1.1       0.0       3.3       0.7       0.5
 5 C  pz              0.6       3.0       0.3       0.7       0.6       1.0
 5 C  px              0.0       5.4       0.1       0.5       0.0       0.1
 5 C  py              5.1       1.1       0.3       0.9       0.3       0.8
 5 C  dxz             0.2       0.0       0.5       0.0       0.1       0.0
 5 C  dyz             0.1       0.0       0.2       0.1       0.0       0.0
 5 C  dx2y2           0.0       0.0       0.1       0.0       0.1       0.1
 5 C  dxy             0.0       0.0       0.8       0.0       0.0       0.1
 6 C  s               0.4       0.0       1.6       4.9       1.3       7.6
 6 C  pz              2.2       0.2       0.3       1.7       0.1       0.5
 6 C  px              0.5       0.4       0.7       0.1       3.3       0.0
 6 C  py              2.3       0.1       1.6       0.7       0.1       2.0
 6 C  dxz             0.0       0.1       0.2       0.0       0.0       0.1
 6 C  dxy             0.0       0.0       0.0       0.2       0.1       0.0
 7 C  s               0.1       0.0       0.4       2.7       9.1       0.0
 7 C  pz              0.1       0.1       0.2       0.2       0.0       0.1
 7 C  px              0.4       0.6       0.7       0.2       1.4       0.5
 7 C  py              3.4       0.0       0.0       0.6       0.6       0.8
 7 C  dxz             0.1       0.0       0.0       0.1       0.1       0.0
 8 H  s               0.4       0.1       0.0       7.7       1.0       5.0
 9 H  s               3.4       0.0       0.1       6.9       0.1      12.6
10 H  s               0.3       0.8       0.0       4.9      12.0       0.9
11 H  s               8.9       0.4       3.6       4.9       9.0       6.8
12 H  s               0.8       0.2       0.1       1.5       1.1       0.1
13 H  s               2.8       0.2       0.6       3.7       0.0      10.8
14 H  s               0.2       0.4       0.8       3.5       6.3       1.3
15 H  s               1.2       0.4       0.5       7.6       2.7       5.8
16 H  s               0.2       0.2       0.0       1.5       1.5       8.2
17 H  s               0.6       0.1       0.3       8.0       0.3       9.5
18 H  s               0.1       0.7       1.3       4.6       7.7       2.9
19 H  s               0.7       0.2       0.1       2.4      13.2       0.3
20 H  s               1.3       0.1       0.3       4.2       4.8       1.9
21 H  s               1.1       0.3       0.0       0.6       3.8       0.9

                     36        37        38        39        40        41   
                   0.07868   0.08660   0.10243   0.10743   0.11237   0.11801
                   0.00000   0.00000   0.00000   0.00000   0.00000   0.00000
                  --------  --------  --------  --------  --------  --------
 0 C  s               4.9       1.1       0.6       1.4       0.0       2.4
 0 C  pz              0.6       0.2       0.3       0.2       1.6       0.6
 0 C  px              5.0       3.0       0.0       4.2       0.8       0.7
 0 C  py              0.4       0.1       0.2       0.2       5.1       0.6
 0 C  dz2             0.0       0.0       0.0       0.1       0.0       0.3
 0 C  dxz             0.0       0.2       0.1       0.2       0.0       0.2
 0 C  dyz             0.0       0.1       0.1       0.2       0.1       0.0
 0 C  dx2y2           0.2       0.1       0.0       0.0       0.3       0.0
 1 C  s               0.9       0.2       3.2       0.1       3.6       1.8
 1 C  pz              0.4       0.0       0.1       0.9       0.4       0.2
 1 C  px              0.2       0.7       1.0       0.0       0.2       0.1
 1 C  py              0.9       0.0       3.3       0.4       2.9       0.1
 1 C  dz2             0.1       0.1       0.1       0.0       0.0       0.3
 1 C  dxz             0.0       0.1       0.1       0.4       0.0       0.2
 1 C  dyz             0.1       0.2       0.1       0.2       0.3       0.0
 1 C  dx2y2           0.2       0.2       0.1       0.0       0.0       0.0
 1 C  dxy             0.1       0.0       0.0       0.0       0.0       0.1
 2 C  s               5.1       4.9       3.4       5.7       0.7       0.6
 2 C  pz              0.2       2.0       0.3       1.2       1.4       1.6
 2 C  px              2.9       0.8       0.3       1.0       1.1       0.2
 2 C  py              0.1       2.0       0.6       0.3       0.3       6.7
 2 C  dz2             0.1       0.0       0.0       0.0       0.0       0.6
 2 C  dxz             0.1       0.0       0.0       0.1       0.0       0.0
 2 C  dyz             0.0       0.0       0.2       0.0       0.3       0.0
 2 C  dx2y2           0.0       0.2       0.0       0.0       0.0       0.0
 2 C  dxy             0.0       0.0       0.1       0.1       0.2       0.2
 3 C  s               0.6       1.1       0.1       0.0       0.9       0.2
 3 C  pz              0.2       0.8       0.2       0.2       0.1       0.3
 3 C  px              0.2       0.0       0.2       0.4       0.3       0.0
 3 C  py              0.8       0.1       0.3       0.1       0.7       0.3
 3 C  dz2             0.0       0.0       0.0       0.2       0.0       0.2
 3 C  dyz             0.0       0.0       0.0       0.0       0.2       0.0
 3 C  dx2y2           0.0       0.2       0.1       0.0       0.3       0.0
 3 C  dxy             0.0       0.0       0.1       0.0       0.3       0.1
 4 O  s               0.3       0.2       0.0       0.0       0.2       0.3
 4 O  px              0.0       0.1       0.0       1.2       0.0       0.1
 4 O  py              0.2       0.1       0.1       0.0       0.1       0.0
 5 C  s               0.1       0.6       0.2       0.0       2.1       0.2
 5 C  pz              0.4       1.5       0.3       0.2       0.0       1.3
 5 C  px              0.3       0.0       0.5       0.2       0.1       0.1
 5 C  py              0.2       1.6       0.2       0.0       0.5       0.2
 5 C  dz2             0.0       0.1       0.3       0.0       0.0       0.0
 5 C  dxz             0.0       0.2       0.1       0.0       0.1       0.4
 5 C  dyz             0.0       0.0       0.2       0.0       0.2       0.0
 5 C  dx2y2           0.1       0.2       0.0       0.1       0.1       0.3
 5 C  dxy             0.1       0.1       0.2       0.1       0.2       0.0
 6 C  s               0.0       0.1       4.2       0.1       0.1       5.1
 6 C  pz              1.2       1.0       1.5       4.6       1.1       1.0
 6 C  px              3.8       2.0       2.5       0.1       4.3       0.5
 6 C  py              0.5       1.3       1.2       2.4       0.4       1.1
 6 C  dxz             0.2       0.2       0.0       0.1       0.1       0.1
 6 C  dyz             0.1       0.0       0.3       0.0       0.5       0.2
 6 C  dxy             0.0       0.0       0.3       0.1       0.0       0.0
 7 C  s               1.8       0.8       4.7       1.8       2.5       2.4
 7 C  pz              0.2       3.1       0.2       5.8       0.3       0.1
 7 C  px              1.7       1.8       0.8       0.1       0.4       2.2
 7 C  py              0.0       0.0       2.4       0.2       2.3       3.1
 7 C  dxz             0.0       0.1       0.0       0.0       0.0       0.1
 7 C  dyz             0.1       0.0       0.1       0.0       0.3       0.4
 7 C  dx2y2           0.0       0.0       0.0       0.1       0.0       0.0
 7 C  dxy             0.0       0.2       0.0       0.1       0.0       0.1
 8 H  s              11.9       1.1       0.8       1.9       2.7       5.6
 9 H  s               8.6       0.2       0.7       0.9       9.8       0.4
10 H  s               1.3       9.5       0.9      11.1       4.8       1.0
11 H  s               4.3       0.2      16.9       0.4      14.4       1.6
12 H  s               3.1       7.0       0.2      11.6       0.4      14.0
13 H  s               0.9      15.0       4.1       2.1       0.0       7.2
14 H  s              12.5       0.4       4.0       0.3       5.7       0.2
15 H  s               1.4       6.6       0.9       0.9       1.8       1.1
16 H  s               1.1       2.2      15.9      11.8       4.0       0.5
17 H  s               8.0       1.6       0.6       0.3       5.5       3.4
18 H  s               2.8       6.7       3.4       5.1       0.9       9.2
19 H  s               4.7       4.7       1.2       1.9       3.2       3.8
20 H  s               0.5       6.9      14.8       5.0       8.1       3.3
21 H  s               2.9       3.6       0.0      11.5       0.8      10.6

                     42        43        44        45        46        47   
                   0.12648   0.13465   0.14480   0.15006   0.15796   0.16980
                   0.00000   0.00000   0.00000   0.00000   0.00000   0.00000
                  --------  --------  --------  --------  --------  --------
 0 C  s               2.0       1.3       2.0       0.1       0.2       2.1
 0 C  pz              0.3       0.7       4.7       0.7       0.1       5.3
 0 C  px              1.0       2.6       1.3       0.1       2.4       3.1
 0 C  py              0.1       3.0       1.2       2.9       0.9       0.4
 0 C  dz2             0.0       0.3       0.2       0.1       0.0       1.8
 0 C  dxz             0.0       0.1       0.0       0.0       0.3       0.0
 0 C  dyz             0.0       0.1       0.6       0.0       0.1       0.0
[...]
 1 C  py              0.0       0.3       0.0       0.0       0.0       0.0
 1 C  dz2             4.4       0.7       1.1       1.4       1.2       0.0
 1 C  dxz             0.5      15.6       2.6       0.1      14.0       0.3
 1 C  dyz             0.5       3.3       0.1       0.6       2.8       0.0
 1 C  dx2y2           1.0       0.7       0.8       0.2       0.4       0.2
 1 C  dxy             0.0       1.3       0.0       1.4       0.3       0.3
 2 C  s               0.0       0.8       0.0       0.0       0.4       0.0
 2 C  pz              0.0       0.7       0.1       0.0       0.3       0.0
 2 C  px              0.0       0.8       0.0       0.1       0.2       0.0
 2 C  py              0.0       0.2       0.0       0.0       0.1       0.0
 2 C  dz2             0.6       0.0       0.1       0.5       0.0       0.0
 2 C  dxz             0.0       5.2       0.3       0.0       1.4       0.0
 2 C  dyz             0.0       2.4       0.6       0.0       1.0       0.1
 2 C  dx2y2           0.2       0.6       0.2       0.1       0.0       0.0
 2 C  dxy             0.4       2.6       0.0       0.2       0.3       0.0
 3 C  s               0.9       0.1       0.1       0.0       1.3       0.0
 3 C  pz              0.1       0.0       0.2       0.0       0.1       0.3
 3 C  px              3.4       2.6       0.0       0.4       0.0       0.1
 3 C  py              0.2       0.1       0.0       0.0       0.1       0.8
 3 C  dz2             0.1       0.3       2.7       0.2       7.9      10.2
 3 C  dxz             3.0       1.2       0.4       3.0       0.1       0.1
 3 C  dyz             0.1       0.3       3.1       0.5       0.3       5.7
 3 C  dx2y2           0.1       0.7       0.0       1.3      14.5       2.1
 3 C  dxy             1.1       0.6       0.1       4.5       3.5       0.5
 4 O  s               0.1       0.0       0.5       0.0       1.5       0.0
 4 O  pz              0.0       0.0       0.4       0.0       0.8       0.3
 4 O  px              0.2       0.1       0.0       0.0       0.0       0.1
 4 O  py              0.0       0.0       0.1       0.0       0.2       1.0
 4 O  dz2             1.0       0.7       1.3       0.1       0.4      38.4
 4 O  dxz             1.2       1.1       1.4      20.7       0.0       0.6
 4 O  dyz             1.9       3.3       1.1       0.6      10.7      23.5
 4 O  dx2y2          27.3       5.8      15.9      13.6      12.1      10.1
 4 O  dxy             3.0       5.2      19.3      34.9       3.9       3.3
 5 C  s               0.3       0.0       0.1       0.0       0.2       0.0
 5 C  pz              1.1       1.0       0.9       0.1       0.2       0.0
 5 C  px              1.2       1.1       0.0       0.2       0.5       0.0
 5 C  py              0.1       0.8       1.3       0.0       0.1       0.0
 5 C  dz2             0.1       1.3       0.1       1.2       1.5       0.0
 5 C  dxz             1.2      14.0       9.5       1.1       3.9       0.4
 5 C  dyz            11.3       1.1       0.1       2.7       4.7       0.1
 5 C  dx2y2           4.6       0.1       5.9       0.0       0.3       0.1
 5 C  dxy             8.3       2.1       6.6       4.2       0.2       0.7
 6 C  s               0.6       0.2       0.7       0.2       0.1       0.0
 6 C  pz              0.6       0.1       0.6       0.2       0.0       0.0
 6 C  px              0.5       0.0       0.1       0.1       0.0       0.0
 6 C  py              0.6       0.3       0.6       0.2       0.0       0.0
 6 C  dxz             2.5       0.2       1.8       0.1       0.0       0.0
 6 C  dyz             4.0       1.0       2.0       1.1       0.4       0.0
 6 C  dx2y2           0.4       0.6       0.6       0.9       0.0       0.1
 6 C  dxy             4.9       0.1       2.4       0.8       0.0       0.0
 7 C  s               0.0       1.2       0.7       0.0       0.1       0.0
 7 C  pz              0.0       0.7       0.6       0.1       0.1       0.0
 7 C  px              0.1       0.7       0.5       0.0       0.1       0.0
 7 C  py              0.0       0.4       0.4       0.0       0.0       0.0
 7 C  dz2             0.5       0.0       0.9       0.6       0.2       0.0
 7 C  dxz             0.1       4.2       5.0       0.3       0.6       0.1
 7 C  dyz             0.0       1.6       2.8       0.0       0.7       0.0
 7 C  dx2y2           0.8       0.9       0.0       0.0       0.0       0.0
 7 C  dxy             0.0       4.5       1.2       0.0       0.0       0.0
11 H  s               0.0       0.0       0.0       0.0       0.1       0.0
12 H  s               0.0       0.1       0.0       0.0       0.1       0.0
17 H  s               0.1       0.0       0.2       0.0       0.0       0.0
18 H  s               0.1       0.0       0.0       0.1       0.0       0.0
19 H  s               0.0       0.0       0.2       0.0       0.0       0.0
20 H  s               0.0       0.2       0.0       0.0       0.0       0.0
21 H  s               0.0       0.1       0.0       0.0       0.0       0.0

                    138       139   
                   3.27152   3.53041
                   0.00000   0.00000
                  --------  --------
 0 C  s               0.1       0.0
 0 C  pz              0.1       0.0
 0 C  dz2             0.3       0.0
 0 C  dyz             0.1       0.0
 1 C  s               0.2       0.0
 1 C  pz              0.1       0.1
 1 C  px              0.4       0.0
 1 C  dz2             2.0       0.1
 1 C  dxz             0.0       0.2
 1 C  dyz             0.5       0.0
 1 C  dx2y2           1.6       0.0
 1 C  dxy             0.3       0.0
 3 C  s               0.0       6.7
 3 C  pz              0.0       5.5
 3 C  px              0.6       0.2
 3 C  py              0.0       1.4
 3 C  dz2             0.1       2.9
 3 C  dxz            19.7       0.3
 3 C  dyz             1.3       2.4
 3 C  dx2y2           1.3       0.3
 3 C  dxy             4.2       0.1
 4 O  s               0.0       7.3
 4 O  pz              0.0       3.4
 4 O  px              1.5       0.1
 4 O  py              0.1       0.8
 4 O  dz2             0.4      31.0
 4 O  dxz            43.9       3.5
 4 O  dyz             2.9      30.4
 4 O  dx2y2           3.9       1.6
 4 O  dxy             9.8       0.9
 5 C  s               0.2       0.1
 5 C  px              0.4       0.0
 5 C  dz2             1.1       0.1
 5 C  dxz             0.6       0.0
 5 C  dx2y2           1.0       0.1
 5 C  dxy             0.7       0.0
 7 C  dz2             0.1       0.0


                      *****************************
                      * MAYER POPULATION ANALYSIS *
                      *****************************

  NA   - Mulliken gross atomic population
  ZA   - Total nuclear charge
  QA   - Mulliken gross atomic charge
  VA   - Mayer's total valence
  BVA  - Mayer's bonded valence
  FA   - Mayer's free valence

  ATOM       NA         ZA         QA         VA         BVA        FA
  0 C      6.2409     6.0000    -0.2409     3.9823     3.9823     0.0000
  1 C      6.1680     6.0000    -0.1680     4.0655     4.0655     0.0000
  2 C      6.2571     6.0000    -0.2571     3.9816     3.9816     0.0000
  3 C      5.9558     6.0000     0.0442     4.1819     4.1819    -0.0000
  4 O      8.1778     8.0000    -0.1778     2.3073     2.3073    -0.0000
  5 C      6.1730     6.0000    -0.1730     4.0680     4.0680    -0.0000
  6 C      6.2619     6.0000    -0.2619     3.9602     3.9602    -0.0000
  7 C      6.2281     6.0000    -0.2281     3.9666     3.9666     0.0000
  8 H      0.8900     1.0000     0.1100     0.9609     0.9609    -0.0000
  9 H      0.8936     1.0000     0.1064     0.9613     0.9613     0.0000
 10 H      0.8958     1.0000     0.1042     0.9561     0.9561     0.0000
 11 H      0.9029     1.0000     0.0971     0.9520     0.9520     0.0000
 12 H      0.8773     1.0000     0.1227     0.9758     0.9758     0.0000
 13 H      0.9032     1.0000     0.0968     0.9580     0.9580    -0.0000
 14 H      0.8966     1.0000     0.1034     0.9536     0.9536     0.0000
 15 H      0.9237     1.0000     0.0763     0.9564     0.9564     0.0000
 16 H      0.8859     1.0000     0.1141     0.9675     0.9675     0.0000
 17 H      0.8907     1.0000     0.1093     0.9596     0.9596    -0.0000
 18 H      0.8874     1.0000     0.1126     0.9543     0.9543    -0.0000
 19 H      0.9060     1.0000     0.0940     0.9571     0.9571     0.0000
 20 H      0.8988     1.0000     0.1012     0.9537     0.9537    -0.0000
 21 H      0.8855     1.0000     0.1145     0.9828     0.9828     0.0000

  Mayer bond orders larger than 0.100000
B(  0-C ,  1-C ) :   1.1277 B(  0-C ,  8-H ) :   0.9346 B(  0-C ,  9-H ) :   0.9379 
B(  0-C , 10-H ) :   0.9390 B(  1-C ,  2-C ) :   1.1041 B(  1-C ,  3-C ) :   0.9536 
B(  1-C , 11-H ) :   0.8701 B(  2-C , 12-H ) :   0.9412 B(  2-C , 13-H ) :   0.9513 
B(  2-C , 14-H ) :   0.9509 B(  3-C ,  4-O ) :   2.1455 B(  3-C ,  5-C ) :   0.9819 
B(  5-C ,  6-C ) :   1.0846 B(  5-C ,  7-C ) :   1.1027 B(  5-C , 15-H ) :   0.8767 
B(  6-C , 16-H ) :   0.9441 B(  6-C , 17-H ) :   0.9445 B(  6-C , 18-H ) :   0.9481 
B(  7-C , 19-H ) :   0.9480 B(  7-C , 20-H ) :   0.9547 B(  7-C , 21-H ) :   0.9390 


-------
TIMINGS
-------

Total SCF time: 0 days 0 hours 0 min 8 sec 

Total time                  ....       8.165 sec
Sum of individual times     ....       7.746 sec  ( 94.9%)

SCF preparation             ....       0.187 sec  (  2.3%)
Fock matrix formation       ....       6.767 sec  ( 82.9%)
  Startup                   ....       0.046 sec  (  0.7% of F)
  Split-RI-J                ....       2.449 sec  ( 36.2% of F)
  XC integration            ....       3.831 sec  ( 56.6% of F)
    Basis function eval.    ....       1.325 sec  ( 34.6% of XC)
    Density eval.           ....       0.520 sec  ( 13.6% of XC)
    XC-Functional eval.     ....       0.312 sec  (  8.1% of XC)
    XC-Potential eval.      ....       0.848 sec  ( 22.1% of XC)
Diagonalization             ....       0.000 sec  (  0.0%)
Density matrix formation    ....       0.167 sec  (  2.0%)
Total Energy calculation    ....       0.032 sec  (  0.4%)
Population analysis         ....       0.079 sec  (  1.0%)
Orbital Transformation      ....       0.053 sec  (  0.7%)
Orbital Orthonormalization  ....       0.000 sec  (  0.0%)
DIIS solution               ....       0.353 sec  (  4.3%)
  MO trafo                  ....       0.000 sec  (  0.0 % of DIIS)
  Orb grad                  ....       0.000 sec  (  0.0 % of DIIS)
  Energy W gradient         ....       0.000 sec  (  0.0 % of DIIS)
  DIIS error                ....       0.003 sec  (  0.8 % of DIIS)
  DIIS work                 ....       0.304 sec  ( 86.0 % of DIIS)
  Form Q                    ....       0.000 sec  (  0.0 % of DIIS)
  Form QpQm                 ....       0.000 sec  (  0.0 % of DIIS)
  Exp/Cayley                ....       0.000 sec  (  0.0 % of DIIS)
  Orb update                ....       0.000 sec  (  0.0 % of DIIS)
  Wake-sleep                ....       0.023 sec  (  6.5 % of DIIS)
SOSCF solution              ....       0.106 sec  (  1.3%)
  MO trafo                  ....       0.058 sec  ( 54.5 % of SOSCF)
  Orb grad                  ....       0.001 sec  (  1.2 % of SOSCF)
  Rot update                ....       0.024 sec  ( 22.3 % of SOSCF)
  Step                      ....       0.023 sec  ( 21.9 % of SOSCF)
Finished LeanSCF after   8.3 sec

Maximum memory used throughout the entire LEANSCF-calculation: 13.8 MB


-------------------------------------------------------------------------------
                          DFT DISPERSION CORRECTION                            
                                                                               
                                DFTD4 V3.4.0                                   
-------------------------------------------------------------------------------
The PBE functional is recognized
Active option DFTDOPT                   ...         5   

-------------------------   ----------------
Dispersion correction           -0.018983848
-------------------------   ----------------

------------------   -----------------
gCP correction             0.092923934
------------------   -----------------

-------------------------   --------------------
FINAL SINGLE POINT ENERGY      -349.566588661388
-------------------------   --------------------


------------------------------------------------------------------------------
                              ORCA PROPERTY CALCULATIONS
------------------------------------------------------------------------------

GBWName                                 ... sp.gbw
Number of atoms                         ...     22
Number of basis functions               ...    140
Max core memory                         ...   1024 MB

Electric properties:
Dipole moment                           ... YES
Quadrupole moment                       ...  NO
Static polarizability (Dipole/Dipole)   ...  NO
Static polarizability (Dipole/Quad.)    ...  NO
Static polarizability (Quad./Quad.)     ...  NO
Static polarizability (Velocity)        ...  NO

Atomic electric properties:
Dipole moment                           ...  NO
Quadrupole moment                       ...  NO
Static polarizability                   ...  NO

Choice of electric origin               ... Center of mass
Position of electric origin             ...     0.000002     0.000011     0.000019

General magnetic properties:
Magnetizability                         ...  NO

EPR properties:
g-Tensor (aka g-matrix)                 ...  NO
Zero-Field splitting spin-orbit         ...  NO
Zero-field splitting spin-spin          ...  NO
Hyperfine couplings                     ...  NO (   0 nuclei)
Quadrupole couplings                    ...  NO (   0 nuclei)
Contact density                         ...  NO (   0 nuclei)

NMR properties:
Chemical shifts                         ...  NO (   0 nuclei)
Spin-rotation constants                 ...  NO (   0 nuclei)
Spin-spin couplings                     ...  NO (   0 nuclei,    0 pairs)

Choice of magnetic origin               ... GIAO
Position of magnetic origin             ...     0.000000     0.000000     0.000000

Properties with geometric perturbations:
SCF Hessian                             ...  NO
IR spectrum                             ...  NO
VCD spectrum                            ...  NO
X-ray spectroscopy properties:
SCF XES/XAS/RIXS spectra                ...  NO


-------------
DIPOLE MOMENT
-------------

Method             : SCF
Type of density    : Electron Density
Multiplicity       :   1
Irrep              :   0
Energy             :  -349.6405287474410102 Eh
Relativity type    : 
Basis              : AO
                                X                 Y                 Z
Electronic contribution:     -0.148574038      -2.773955322      -4.273332588
Nuclear contribution   :      0.309912573       3.124183656       5.134858185
                        -----------------------------------------
Total Dipole Moment    :      0.161338535       0.350228333       0.861525596
                        -----------------------------------------
Magnitude (a.u.)       :      0.943883659
Magnitude (Debye)      :      2.399161597



--------------------
Rotational spectrum 
--------------------
 
Rotational constants in cm-1:             0.095340             0.048549             0.040198 
Rotational constants in MHz :          2858.223663          1455.471072          1205.110860 

Dipole components along the rotational axes: 
x,y,z [a.u.] :     0.163560    -0.872065     0.321974 
x,y,z [Debye]:     0.415736    -2.216613     0.818392 

 

Dipole moment calculation done in   0.0 sec 

Maximum memory used throughout the entire PROP-calculation: 8.6 MB

--------------------------------
SUGGESTED CITATIONS FOR THIS RUN
--------------------------------

Below you find a list of papers that are relevant to this ORCA run
We neither can nor want to force you to cite these papers, but we appreciate if you do
You receive ORCA, which is the product of decades of hard work by many enthusiastic individuals, for free
The only thing we kindly ask in return is that you cite our papers,
We deeply appreciate it, if you show your appreciation for ORCA by not just citing the generic ORCA reference.

Please note that relegating all ORCA citations to the supporting information does *not* help us.
SI sections are not indexed - citations you put there will not count into any citation statistics
But we need these citations in order to attract the funding resources that allow us to do what we are doing

Therefore, if you are a happy ORCA user, please consider citing a few of the papers listed below in the main body of your paper

In addition to the list printed below, the program has created the file sp.bibtex that contains the list in bibtex format
You can import this file easily into all common literature databanks and citation aid programs


List of essential papers. We consider these as the minimum necessary citations

  1. Neese,F.
     Software update: the ORCA program system, version 5.0
     WIRES Comput. Molec. Sci., 2022 12(1)e1606
     doi.org/10.1002/wcms.1606

List of papers to cite with high priority. The work reported in these papers was absolutely
necessary for this run to complete.
Our perspective: the developers of density functionals and basis sets usually get cited in chemistry papers
Good! But without the algorithms to do something with them, the functionals or basis sets would not do anything.
Hence, in our opinion, the algorithm design and method developments papers are equally worthy of getting cited

  1. Neese,F.
     An improvement of the resolution of the identity approximation for the formation of the Coulomb matrix
     J. Comp. Chem., 2003 24(14)1740-1747
     doi.org/10.1002/jcc.10318
  2. Neese,F.
     The SHARK Integral Generation and Digestion System
     J. Comp. Chem., 2022  1-16
     doi.org/10.1002/jcc.26942
  3. Caldeweyher,E.; Bannwarth,C.; Grimme,S.
     Extension of the D3 dispersion coefficient model
     J. Chem. Phys., 2017 147 034112-XXXX
     doi.org/10.1063/1.4993215
  4. Caldeweyher,E.; Ehlert,S.; Hansen,A.; Neugebauer,H.; Spicher,S.; Bannwarth,C.; Grimme,S.
     A generally applicable atomic-charge dependent London dispersion correction
     J. Chem. Phys., 2019 150 154122-XXXX
     doi.org/10.1063/1.5090222
  5. Caldeweyher,E.; Mewes,J.; Ehlert,S.; Grimme,S.
     Extension and evaluation of the D4 London-dispersion model for periodic systems
     Phys. Chem. Chem. Phys., 2020 22(16)8499-8512
     doi.org/10.1039/D0CP00502A

List of suggested additional citations. These are papers that are important in the 'surrounding' of 
of this run, or papers that preceded the highly important papers. If you like your results we are grateful for a citation.

  1. Neese,F.
     The ORCA program system
     WIRES Comput. Molec. Sci., 2012 2(1)73-78
     doi.org/10.1002/wcms.81
  2. Neese,F.
     Software update: the ORCA program system, version 4.0
     WIRES Comput. Molec. Sci., 2018 8(1)1-6
     doi.org/10.1002/wcms.1327
  3. Neese,F.; Wennmohs,F.; Becker,U.; Riplinger,C.
     The ORCA quantum chemistry program package
     J. Chem. Phys., 2020 152 Art. No. L224108
     doi.org/10.1063/5.0004608

List of optional additional citations

  1. Neese,F.
     Approximate second-order SCF convergence for spin unrestricted wavefunctions
     Chem. Phys. Lett., 2000 325(1-3)93-98
     doi.org/10.1016/s0009-2614(00)00662-x

Timings for individual modules:

Sum of individual times          ...       10.194 sec (=   0.170 min)
Startup calculation              ...        0.855 sec (=   0.014 min)   8.4 %
SCF iterations                   ...        9.229 sec (=   0.154 min)  90.5 %
Property calculations            ...        0.110 sec (=   0.002 min)   1.1 %
                             ****ORCA TERMINATED NORMALLY****
TOTAL RUN TIME: 0 days 0 hours 0 minutes 10 seconds 908 msec
