 Entering Gaussian System
 *********************************************
 Gaussian 98:
 frequency output generated by the xtb code
 *********************************************
                         Standard orientation:
 --------------------------------------------------------------------
  Center     Atomic     Atomic              Coordinates (Angstroms)
  Number     Number      Type              X           Y           Z
 --------------------------------------------------------------------
    1          6             0       -2.432659    0.831454    0.543230
    2          6             0       -1.275550   -0.125956    0.256539
    3          6             0       -1.629677   -1.026041   -0.925174
    4          6             0        0.000332    0.684900    0.000015
    5          6             0        1.275556   -0.126876   -0.256865
    6          6             0        2.433404    0.829703   -0.543350
    7          6             0        1.629052   -1.027641    0.924523
    8          1             0       -3.340921    0.277031    0.767799
    9          1             0       -2.202290    1.470257    1.392780
   10          1             0       -2.622494    1.464970   -0.320774
   11          1             0       -1.127906   -0.752068    1.142130
   12          1             0       -1.710251   -0.438429   -1.837307
   13          1             0       -0.876123   -1.794627   -1.073959
   14          1             0       -2.583456   -1.518635   -0.749281
   15          1             0        0.175641    1.332206    0.863632
   16          1             0       -0.174452    1.332742   -0.863313
   17          1             0        1.127349   -0.752581   -1.142640
   18          1             0        2.623787    1.462819    0.320824
   19          1             0        3.341215    0.274627   -0.768131
   20          1             0        2.203491    1.468932   -1.392705
   21          1             0        2.582408   -1.520971    0.748385
   22          1             0        1.710195   -0.440381    1.836830
   23          1             0        0.874871   -1.795648    1.073135
 --------------------------------------------------------------------
     1 basis functions        1 primitive gaussians
     1 alpha electrons        1 beta electrons
 
 Harmonic frequencies (cm**-1), IR intensities (km*mol⁻¹),
 Raman scattering activities (A**4/amu), Raman depolarization ratios,
 reduced masses (AMU), force constants (mDyne/A) and normal coordinates:
                      1                      2                      3
                        a                      a                      a 
 Frequencies --    49.4022                98.6386               175.1291
 Red. masses --     8.1544                 6.9241                 8.0739
 Frc consts  --     0.0000                 0.0000                 0.0000
 IR Inten    --     0.0018                 0.1540                 0.1708
 Raman Activ --     0.0000                 0.0000                 0.0000
 Depolar     --     0.0000                 0.0000                 0.0000
 Atom AN      X      Y      Z        X      Y      Z        X      Y      Z
   1   6     0.04  -0.13   0.23     0.14  -0.06   0.26    -0.14  -0.27   0.16
   2   6    -0.02  -0.10  -0.13     0.09  -0.02  -0.09     0.12   0.10   0.03
   3   6    -0.15   0.26  -0.37    -0.22  -0.06   0.04     0.36   0.08  -0.03
   4   6    -0.00  -0.10  -0.00    -0.00   0.00  -0.47     0.00   0.28   0.00
   5   6     0.02  -0.10   0.13     0.09   0.02  -0.09    -0.12   0.10  -0.03
   6   6    -0.04  -0.13  -0.23     0.14   0.06   0.26     0.14  -0.27  -0.16
   7   6     0.15   0.26   0.37    -0.22   0.06   0.04    -0.36   0.08   0.03
   8   1     0.00  -0.04   0.02     0.06  -0.03   0.12     0.03  -0.17   0.13
   9   1     0.03  -0.13   0.13     0.09  -0.04   0.08    -0.05  -0.03   0.01
  10   1     0.02   0.05   0.13    -0.02   0.01   0.10    -0.17  -0.13   0.04
  11   1     0.00  -0.11  -0.09     0.11   0.00  -0.03     0.08   0.02  -0.00
  12   1    -0.07   0.16  -0.05    -0.25  -0.01   0.03     0.21   0.01  -0.02
  13   1    -0.05   0.09  -0.19    -0.01   0.06  -0.12     0.09  -0.01   0.07
  14   1    -0.04   0.06  -0.12     0.01  -0.11   0.14     0.07   0.06  -0.09
  15   1    -0.02  -0.03   0.00    -0.02   0.11  -0.21     0.02   0.08  -0.00
  16   1     0.02  -0.03  -0.00    -0.02  -0.11  -0.21    -0.02   0.08   0.00
  17   1    -0.00  -0.11   0.09     0.11  -0.00  -0.03    -0.08   0.02   0.00
  18   1    -0.02   0.05  -0.13    -0.02  -0.01   0.10     0.17  -0.13  -0.04
  19   1    -0.00  -0.04  -0.02     0.06   0.03   0.12    -0.03  -0.17  -0.13
  20   1    -0.03  -0.13  -0.13     0.09   0.04   0.08     0.05  -0.03  -0.01
  21   1     0.04   0.06   0.12     0.01   0.11   0.14    -0.07   0.06   0.09
  22   1     0.07   0.16   0.05    -0.25   0.01   0.03    -0.21   0.01   0.02
  23   1     0.05   0.09   0.19    -0.01  -0.06  -0.12    -0.09  -0.01  -0.07
                      4                      5                      6
                        a                      a                      a 
 Frequencies --   209.9194               210.2609               226.0431
 Red. masses --     2.0224                 1.5274                 1.9816
 Frc consts  --     0.0000                 0.0000                 0.0000
 IR Inten    --     0.0479                 0.0186                 0.0130
 Raman Activ --     0.0000                 0.0000                 0.0000
 Depolar     --     0.0000                 0.0000                 0.0000
 Atom AN      X      Y      Z        X      Y      Z        X      Y      Z
   1   6    -0.10  -0.08  -0.01     0.01  -0.06   0.11    -0.10  -0.06  -0.07
   2   6     0.03   0.07   0.01     0.02  -0.00  -0.03    -0.03   0.02  -0.05
   3   6     0.10  -0.03   0.07    -0.02   0.03  -0.05    -0.13   0.04  -0.04
   4   6     0.00   0.13   0.00     0.00   0.00  -0.08     0.00   0.02   0.00
   5   6    -0.03   0.07  -0.01     0.02   0.00  -0.03     0.03   0.02   0.05
   6   6     0.10  -0.08   0.00     0.01   0.06   0.11     0.10  -0.06   0.07
   7   6    -0.10  -0.03  -0.06    -0.03  -0.03  -0.05     0.13   0.04   0.04
   8   1    -0.06  -0.06  -0.21     0.09  -0.03   0.36     0.06  -0.04   0.28
   9   1    -0.14  -0.16   0.13     0.15   0.19  -0.16     0.07   0.21  -0.22
  10   1     0.08   0.11   0.07    -0.24  -0.23  -0.07    -0.25  -0.24  -0.14
  11   1     0.02   0.03   0.01     0.02  -0.00  -0.01    -0.00   0.00  -0.02
  12   1    -0.28   0.02   0.06     0.20  -0.01  -0.05    -0.25   0.05   0.03
  13   1     0.19   0.19  -0.16    -0.11  -0.12   0.10     0.05   0.12  -0.16
  14   1     0.19  -0.26   0.17    -0.11   0.17  -0.11     0.05  -0.13   0.10
  15   1    -0.00   0.04   0.00     0.00   0.01  -0.03    -0.01   0.00   0.00
  16   1     0.00   0.04  -0.00     0.00  -0.01  -0.03     0.01   0.00  -0.00
  17   1    -0.02   0.03  -0.01     0.02   0.00  -0.01     0.00   0.00   0.02
  18   1    -0.08   0.11  -0.07    -0.24   0.23  -0.07     0.24  -0.24   0.14
  19   1     0.05  -0.06   0.21     0.09   0.03   0.36    -0.06  -0.04  -0.28
  20   1     0.14  -0.16  -0.13     0.15  -0.19  -0.17    -0.07   0.21   0.22
  21   1    -0.19  -0.26  -0.17    -0.11  -0.18  -0.11    -0.05  -0.13  -0.10
  22   1     0.28   0.02  -0.06     0.20   0.01  -0.05     0.25   0.05  -0.03
  23   1    -0.19   0.19   0.16    -0.12   0.12   0.11    -0.05   0.12   0.16
                      7                      8                      9
                        a                      a                      a 
 Frequencies --   240.4559               307.7067               339.8309
 Red. masses --     2.2640                 7.6320                 7.8729
 Frc consts  --     0.0000                 0.0000                 0.0000
 IR Inten    --     0.0376                 0.0070                 0.3750
 Raman Activ --     0.0000                 0.0000                 0.0000
 Depolar     --     0.0000                 0.0000                 0.0000
 Atom AN      X      Y      Z        X      Y      Z        X      Y      Z
   1   6     0.06  -0.02   0.13    -0.36  -0.16  -0.07    -0.26   0.02   0.08
   2   6    -0.00  -0.03  -0.05    -0.09   0.11  -0.01    -0.04   0.25   0.08
   3   6    -0.03  -0.11   0.00    -0.32   0.05   0.10     0.27   0.21   0.04
   4   6    -0.05   0.00  -0.20     0.00   0.10   0.00    -0.01   0.00  -0.32
   5   6    -0.00   0.03  -0.05     0.09   0.11   0.01    -0.04  -0.25   0.08
   6   6     0.06   0.02   0.13     0.36  -0.16   0.07    -0.26  -0.02   0.08
   7   6    -0.03   0.11   0.00     0.32   0.05  -0.10     0.27  -0.21   0.04
   8   1    -0.04   0.00  -0.16    -0.07  -0.14  -0.12    -0.03  -0.07  -0.01
   9   1    -0.03  -0.18   0.18    -0.23  -0.08   0.04    -0.14  -0.00   0.04
  10   1     0.14   0.17   0.14    -0.09  -0.01   0.00    -0.11   0.01   0.04
  11   1     0.02  -0.00  -0.01    -0.00   0.04   0.00     0.03   0.09   0.03
  12   1     0.28  -0.10  -0.07    -0.01  -0.02   0.00     0.10   0.07   0.01
  13   1    -0.15  -0.21   0.20    -0.18  -0.08   0.07     0.13   0.11   0.04
  14   1    -0.15   0.19  -0.12    -0.15   0.13   0.04     0.10  -0.00  -0.06
  15   1    -0.03   0.06  -0.10    -0.02   0.03   0.00     0.02   0.17  -0.22
  16   1    -0.03  -0.06  -0.10     0.02   0.03  -0.00     0.02  -0.17  -0.22
  17   1     0.02   0.00  -0.01     0.00   0.04  -0.00     0.03  -0.09   0.03
  18   1     0.14  -0.17   0.14     0.09  -0.01  -0.00    -0.11  -0.01   0.04
  19   1    -0.04  -0.00  -0.16     0.07  -0.14   0.12    -0.03   0.07  -0.01
  20   1    -0.03   0.18   0.18     0.23  -0.08  -0.04    -0.14   0.00   0.04
  21   1    -0.15  -0.19  -0.12     0.15   0.13  -0.04     0.10   0.00  -0.06
  22   1     0.28   0.10  -0.07     0.01  -0.02  -0.00     0.10  -0.07   0.01
  23   1    -0.15   0.21   0.20     0.18  -0.08  -0.07     0.13  -0.11   0.04
                     10                     11                     12
                        a                      a                      a 
 Frequencies --   397.5223               426.5746               463.8799
 Red. masses --     7.4107                 8.0238                 8.6816
 Frc consts  --     0.0000                 0.0000                 0.0000
 IR Inten    --     0.4884                 0.6469                 0.0123
 Raman Activ --     0.0000                 0.0000                 0.0000
 Depolar     --     0.0000                 0.0000                 0.0000
 Atom AN      X      Y      Z        X      Y      Z        X      Y      Z
   1   6    -0.04  -0.25  -0.18    -0.04  -0.06  -0.12    -0.31   0.19   0.18
   2   6     0.23   0.04   0.10     0.00  -0.15   0.38    -0.35   0.02   0.03
   3   6    -0.21   0.20   0.14     0.07   0.28   0.10     0.09  -0.06  -0.05
   4   6     0.23  -0.00  -0.01    -0.00  -0.28  -0.00    -0.00  -0.30  -0.00
   5   6     0.23  -0.04   0.10    -0.00  -0.15  -0.38     0.35   0.02  -0.03
   6   6    -0.04   0.25  -0.18     0.04  -0.06   0.12     0.31   0.19  -0.18
   7   6    -0.21  -0.20   0.14    -0.07   0.28  -0.10    -0.09  -0.06   0.05
   8   1     0.02  -0.16  -0.15    -0.04   0.00  -0.10    -0.08   0.06   0.09
   9   1    -0.17  -0.04  -0.04    -0.11   0.05  -0.06    -0.03   0.03   0.05
  10   1     0.01  -0.10  -0.08     0.09  -0.09  -0.11    -0.13   0.08   0.08
  11   1     0.07   0.02   0.03    -0.04  -0.04   0.11    -0.17   0.00   0.02
  12   1    -0.04   0.10   0.06     0.05   0.22   0.12     0.07  -0.03  -0.03
  13   1    -0.17  -0.03  -0.04     0.02   0.10  -0.07     0.13   0.06   0.08
  14   1    -0.11   0.18   0.08     0.01   0.06  -0.08     0.06  -0.12  -0.11
  15   1     0.06   0.04  -0.03     0.10  -0.08  -0.02     0.00  -0.08  -0.00
  16   1     0.06  -0.04  -0.03    -0.10  -0.08   0.02    -0.00  -0.08   0.00
  17   1     0.07  -0.02   0.03     0.04  -0.04  -0.11     0.17   0.00  -0.02
  18   1     0.01   0.10  -0.08    -0.09  -0.09   0.11     0.13   0.08  -0.08
  19   1     0.02   0.16  -0.15     0.04   0.00   0.10     0.08   0.06  -0.09
  20   1    -0.17   0.04  -0.04     0.11   0.05   0.06     0.03   0.03  -0.05
  21   1    -0.11  -0.18   0.08    -0.01   0.06   0.08    -0.06  -0.12   0.12
  22   1    -0.04  -0.10   0.06    -0.05   0.22  -0.12    -0.07  -0.03   0.03
  23   1    -0.17   0.04  -0.04    -0.02   0.10   0.07    -0.13   0.06  -0.08
                     13                     14                     15
                        a                      a                      a 
 Frequencies --   471.0290               856.4310               862.2723
 Red. masses --     6.4918                 7.7334                 6.4383
 Frc consts  --     0.0000                 0.0000                 0.0000
 IR Inten    --     2.6515                 1.6489                 2.1856
 Raman Activ --     0.0000                 0.0000                 0.0000
 Depolar     --     0.0000                 0.0000                 0.0000
 Atom AN      X      Y      Z        X      Y      Z        X      Y      Z
   1   6    -0.15  -0.00   0.08    -0.15   0.05   0.11     0.13  -0.12  -0.05
   2   6     0.05   0.29  -0.28    -0.03  -0.15   0.20    -0.09   0.00  -0.09
   3   6    -0.03  -0.10   0.02    -0.06  -0.22  -0.18     0.02   0.17   0.24
   4   6     0.30  -0.00   0.08     0.00   0.49   0.00    -0.33   0.00  -0.34
   5   6     0.04  -0.29  -0.28     0.03  -0.15  -0.20    -0.09  -0.00  -0.09
   6   6    -0.15   0.00   0.08     0.15   0.05  -0.11     0.13   0.12  -0.05
   7   6    -0.03   0.10   0.02     0.06  -0.22   0.18     0.02  -0.17   0.24
   8   1     0.03  -0.12   0.03    -0.16   0.20  -0.00     0.01   0.00  -0.02
   9   1    -0.06  -0.06   0.07    -0.02   0.10  -0.04     0.07  -0.04  -0.02
  10   1    -0.17   0.06   0.10     0.15  -0.05  -0.06     0.06  -0.03  -0.02
  11   1     0.02   0.08  -0.07     0.10  -0.03   0.04     0.13   0.07  -0.01
  12   1    -0.06  -0.16  -0.07     0.01   0.06   0.02     0.07   0.09   0.08
  13   1    -0.00  -0.04   0.09    -0.04  -0.06  -0.15     0.07   0.11   0.11
  14   1     0.01  -0.02   0.12    -0.04  -0.05  -0.13     0.01  -0.01  -0.04
  15   1     0.17  -0.23   0.18     0.05   0.13  -0.01    -0.05  -0.37   0.18
  16   1     0.17   0.23   0.18    -0.05   0.13   0.01    -0.05   0.37   0.18
  17   1     0.02  -0.08  -0.07    -0.10  -0.03  -0.04     0.13  -0.07  -0.01
  18   1    -0.17  -0.06   0.10    -0.15  -0.05   0.06     0.06   0.03  -0.02
  19   1     0.03   0.12   0.03     0.16   0.20   0.00     0.01  -0.00  -0.02
  20   1    -0.06   0.06   0.07     0.02   0.10   0.04     0.07   0.04  -0.02
  21   1     0.01   0.02   0.12     0.04  -0.05   0.13     0.01   0.01  -0.04
  22   1    -0.06   0.16  -0.07    -0.01   0.06  -0.02     0.07  -0.09   0.08
  23   1    -0.00   0.04   0.09     0.04  -0.06   0.15     0.07  -0.11   0.11
                     16                     17                     18
                        a                      a                      a 
 Frequencies --   912.9537               945.1593               951.5499
 Red. masses --     5.7619                 2.7490                 2.7895
 Frc consts  --     0.0000                 0.0000                 0.0000
 IR Inten    --     1.7216                 3.8485                 1.6074
 Raman Activ --     0.0000                 0.0000                 0.0000
 Depolar     --     0.0000                 0.0000                 0.0000
 Atom AN      X      Y      Z        X      Y      Z        X      Y      Z
   1   6    -0.17   0.13   0.12     0.07  -0.02   0.17     0.11  -0.04   0.15
   2   6     0.07  -0.09   0.14    -0.03   0.06   0.07    -0.05   0.07   0.05
   3   6    -0.06  -0.23  -0.07    -0.13   0.07  -0.12    -0.11   0.11  -0.10
   4   6     0.23  -0.00  -0.26     0.04  -0.00  -0.02    -0.00  -0.00   0.00
   5   6     0.07   0.09   0.14    -0.03  -0.06   0.07     0.05   0.07  -0.05
   6   6    -0.17  -0.13   0.12     0.07   0.02   0.17    -0.11  -0.04  -0.15
   7   6    -0.06   0.23  -0.07    -0.13  -0.07  -0.12     0.11   0.11   0.10
   8   1    -0.09   0.08  -0.03    -0.02   0.00  -0.11    -0.00  -0.02  -0.11
   9   1    -0.13   0.11  -0.01    -0.22   0.19  -0.04    -0.20   0.17  -0.04
  10   1     0.05  -0.03  -0.04     0.21  -0.20  -0.14     0.19  -0.19  -0.13
  11   1     0.16   0.08   0.08     0.10  -0.15  -0.12     0.04  -0.16  -0.12
  12   1     0.07   0.16   0.11     0.00  -0.21  -0.18    -0.00  -0.23  -0.19
  13   1    -0.02  -0.03  -0.18     0.11   0.10   0.25     0.11   0.10   0.27
  14   1    -0.05  -0.06  -0.21     0.04  -0.12  -0.02     0.05  -0.12   0.01
  15   1     0.13  -0.21   0.08     0.03  -0.01  -0.00     0.02  -0.00  -0.00
  16   1     0.13   0.21   0.08     0.03   0.01  -0.00    -0.02  -0.00   0.00
  17   1     0.16  -0.08   0.08     0.10   0.15  -0.12    -0.04  -0.16   0.12
  18   1     0.05   0.03  -0.04     0.21   0.20  -0.14    -0.19  -0.19   0.13
  19   1    -0.09  -0.08  -0.03    -0.02  -0.00  -0.11     0.00  -0.02   0.11
  20   1    -0.13  -0.11  -0.01    -0.22  -0.19  -0.04     0.20   0.17   0.04
  21   1    -0.05   0.06  -0.21     0.04   0.12  -0.02    -0.05  -0.12  -0.01
  22   1     0.07  -0.16   0.11     0.00   0.21  -0.18     0.00  -0.23   0.19
  23   1    -0.02   0.03  -0.18     0.11  -0.10   0.25    -0.11   0.10  -0.27
                     19                     20                     21
                        a                      a                      a 
 Frequencies --   968.5779               985.8712               987.8591
 Red. masses --     6.5287                 3.8811                 3.9123
 Frc consts  --     0.0000                 0.0000                 0.0000
 IR Inten    --     0.3725                 0.0321                 0.0001
 Raman Activ --     0.0000                 0.0000                 0.0000
 Depolar     --     0.0000                 0.0000                 0.0000
 Atom AN      X      Y      Z        X      Y      Z        X      Y      Z
   1   6     0.05  -0.26  -0.10    -0.21  -0.04   0.03     0.24   0.04  -0.08
   2   6    -0.26  -0.05  -0.08     0.04  -0.09  -0.06    -0.08   0.07   0.07
   3   6    -0.09   0.13   0.19     0.21   0.16   0.01    -0.20  -0.10  -0.01
   4   6     0.00   0.24   0.00    -0.00  -0.07  -0.00     0.06  -0.00   0.07
   5   6     0.26  -0.05   0.08    -0.04  -0.09   0.06    -0.08  -0.07   0.07
   6   6    -0.05  -0.26   0.10     0.21  -0.04  -0.03     0.24  -0.04  -0.08
   7   6     0.09   0.13  -0.19    -0.21   0.16  -0.01    -0.20   0.10  -0.01
   8   1    -0.10   0.16   0.07    -0.19   0.23   0.05     0.23  -0.27  -0.03
   9   1     0.28  -0.14  -0.05     0.12  -0.00  -0.04    -0.09  -0.04   0.06
  10   1     0.11   0.01   0.01     0.10   0.01  -0.01    -0.17   0.02   0.04
  11   1    -0.03   0.01  -0.02    -0.00  -0.15  -0.10    -0.11   0.10   0.09
  12   1     0.08   0.04   0.04    -0.12  -0.13  -0.09     0.10   0.07   0.04
  13   1     0.10   0.14   0.17    -0.10  -0.10   0.00     0.10   0.12   0.06
  14   1     0.01  -0.08  -0.10     0.04   0.19   0.34    -0.02  -0.19  -0.29
  15   1    -0.08   0.06   0.02     0.05  -0.02  -0.01    -0.01   0.05  -0.01
  16   1     0.08   0.06  -0.02    -0.05  -0.02   0.01    -0.01  -0.05  -0.01
  17   1     0.03   0.01   0.02     0.00  -0.15   0.10    -0.11  -0.10   0.09
  18   1    -0.11   0.01  -0.01    -0.10   0.01   0.01    -0.17  -0.02   0.04
  19   1     0.10   0.16  -0.07     0.19   0.23  -0.05     0.23   0.27  -0.03
  20   1    -0.28  -0.14   0.05    -0.12  -0.00   0.04    -0.09   0.04   0.06
  21   1    -0.01  -0.08   0.10    -0.04   0.19  -0.34    -0.02   0.19  -0.29
  22   1    -0.08   0.04  -0.04     0.12  -0.13   0.09     0.10  -0.07   0.04
  23   1    -0.10   0.14  -0.17     0.10  -0.10  -0.00     0.10  -0.12   0.06
                     22                     23                     24
                        a                      a                      a 
 Frequencies --  1015.3552              1063.0862              1121.0342
 Red. masses --     5.5234                 4.1691                 8.1003
 Frc consts  --     0.0000                 0.0000                 0.0000
 IR Inten    --     7.1743                 0.0026                 2.8005
 Raman Activ --     0.0000                 0.0000                 0.0000
 Depolar     --     0.0000                 0.0000                 0.0000
 Atom AN      X      Y      Z        X      Y      Z        X      Y      Z
   1   6    -0.07  -0.23  -0.08    -0.09   0.04   0.14     0.16  -0.20   0.04
   2   6    -0.18  -0.01   0.00     0.07  -0.02  -0.24    -0.17   0.37   0.11
   3   6    -0.13   0.04   0.07     0.04  -0.00   0.16     0.06  -0.13  -0.15
   4   6     0.42  -0.00   0.02    -0.00  -0.21  -0.00    -0.23   0.00   0.09
   5   6    -0.18   0.01   0.00    -0.07  -0.02   0.24    -0.17  -0.37   0.11
   6   6    -0.07   0.23  -0.08     0.09   0.04  -0.14     0.16   0.20   0.04
   7   6    -0.13  -0.04   0.07    -0.04  -0.00  -0.16     0.06   0.13  -0.15
   8   1    -0.15   0.20   0.08    -0.09   0.08  -0.04    -0.01   0.02  -0.02
   9   1     0.27  -0.12  -0.05    -0.11   0.12  -0.03     0.06  -0.00  -0.03
  10   1     0.11   0.03   0.02     0.12  -0.08  -0.07     0.17  -0.10  -0.05
  11   1    -0.04  -0.01  -0.00     0.28   0.06  -0.06     0.05   0.23   0.11
  12   1     0.06   0.02   0.02     0.06   0.14   0.13    -0.06   0.00  -0.01
  13   1     0.09   0.11   0.12     0.02   0.02  -0.04    -0.08  -0.10  -0.16
  14   1    -0.00  -0.10  -0.13    -0.01   0.00  -0.07    -0.02   0.05   0.02
  15   1     0.22   0.07  -0.07    -0.38  -0.06   0.08     0.12   0.01  -0.02
  16   1     0.22  -0.07  -0.07     0.38  -0.06  -0.08     0.12  -0.01  -0.02
  17   1    -0.04   0.01  -0.00    -0.28   0.06   0.06     0.05  -0.23   0.11
  18   1     0.11  -0.03   0.02    -0.12  -0.08   0.07     0.17   0.10  -0.05
  19   1    -0.15  -0.20   0.08     0.09   0.08   0.04    -0.01  -0.02  -0.02
  20   1     0.27   0.12  -0.05     0.11   0.12   0.03     0.06   0.00  -0.03
  21   1    -0.00   0.10  -0.13     0.01  -0.00   0.07    -0.02  -0.05   0.02
  22   1     0.06  -0.02   0.02    -0.06   0.14  -0.12    -0.06  -0.00  -0.01
  23   1     0.09  -0.11   0.12    -0.02   0.02   0.04    -0.08   0.10  -0.16
                     25                     26                     27
                        a                      a                      a 
 Frequencies --  1177.7917              1186.3096              1188.9009
 Red. masses --     7.6530                 6.3100                 6.5969
 Frc consts  --     0.0000                 0.0000                 0.0000
 IR Inten    --     4.1156                 0.3011                11.7697
 Raman Activ --     0.0000                 0.0000                 0.0000
 Depolar     --     0.0000                 0.0000                 0.0000
 Atom AN      X      Y      Z        X      Y      Z        X      Y      Z
   1   6    -0.10   0.22  -0.07     0.17   0.03   0.10    -0.12  -0.00  -0.02
   2   6     0.19  -0.37  -0.08    -0.33  -0.10  -0.12     0.29   0.13  -0.14
   3   6    -0.07   0.10   0.14     0.16  -0.03   0.12    -0.14  -0.05   0.03
   4   6     0.00   0.22   0.00     0.00   0.24  -0.00    -0.27   0.00   0.34
   5   6    -0.19  -0.37   0.08     0.33  -0.10   0.12     0.29  -0.13  -0.14
   6   6     0.10   0.22   0.07    -0.17   0.03  -0.10    -0.12   0.00  -0.02
   7   6     0.07   0.10  -0.14    -0.16  -0.03  -0.12    -0.14   0.05   0.03
   8   1     0.05  -0.05   0.02     0.09  -0.12  -0.08    -0.08   0.10   0.03
   9   1    -0.07  -0.01   0.04    -0.16   0.08   0.02     0.07  -0.01  -0.02
  10   1    -0.19   0.10   0.05     0.02  -0.11  -0.06     0.02   0.05   0.02
  11   1     0.02  -0.27  -0.14    -0.27  -0.14  -0.08     0.34   0.10  -0.04
  12   1     0.07   0.00   0.02    -0.03   0.10   0.11     0.09   0.04   0.02
  13   1     0.07   0.09   0.13    -0.07  -0.08  -0.12     0.07   0.09   0.03
  14   1     0.02  -0.08  -0.04    -0.02   0.13   0.10    -0.02  -0.08  -0.14
  15   1     0.03   0.03   0.01    -0.07   0.06   0.01    -0.15   0.15  -0.01
  16   1    -0.03   0.03  -0.01     0.07   0.06  -0.01    -0.15  -0.15  -0.01
  17   1    -0.02  -0.27   0.14     0.27  -0.14   0.08     0.34  -0.10  -0.04
  18   1     0.19   0.10  -0.05    -0.02  -0.11   0.06     0.02  -0.05   0.02
  19   1    -0.05  -0.05  -0.02    -0.09  -0.12   0.08    -0.08  -0.10   0.03
  20   1     0.07  -0.01  -0.04     0.16   0.08  -0.02     0.07   0.01  -0.02
  21   1    -0.02  -0.08   0.04     0.02   0.13  -0.10    -0.02   0.08  -0.14
  22   1    -0.07   0.00  -0.02     0.03   0.10  -0.11     0.09  -0.04   0.02
  23   1    -0.07   0.09  -0.13     0.07  -0.08   0.12     0.07  -0.09   0.03
                     28                     29                     30
                        a                      a                      a 
 Frequencies --  1192.3288              1254.4440              1291.0017
 Red. masses --     6.8550                 4.6021                 3.1687
 Frc consts  --     0.0000                 0.0000                 0.0000
 IR Inten    --     9.2764                 3.5026                 5.6586
 Raman Activ --     0.0000                 0.0000                 0.0000
 Depolar     --     0.0000                 0.0000                 0.0000
 Atom AN      X      Y      Z        X      Y      Z        X      Y      Z
   1   6     0.06  -0.00   0.15    -0.05  -0.05   0.08     0.02   0.12  -0.12
   2   6    -0.15   0.03  -0.36     0.13   0.20  -0.23    -0.19  -0.08   0.09
   3   6     0.08  -0.08   0.24    -0.04  -0.11   0.15     0.03  -0.02   0.01
   4   6     0.07  -0.00   0.17    -0.00  -0.11  -0.00    -0.16   0.00   0.10
   5   6    -0.15  -0.03  -0.36    -0.13   0.20   0.23    -0.19   0.08   0.09
   6   6     0.06   0.00   0.15     0.05  -0.05  -0.08     0.02  -0.12  -0.12
   7   6     0.08   0.08   0.24     0.04  -0.11  -0.15     0.03   0.02   0.01
   8   1    -0.00  -0.02  -0.09    -0.06   0.06  -0.04     0.10  -0.11   0.01
   9   1    -0.13   0.12  -0.02     0.02   0.05  -0.04     0.02  -0.07   0.04
  10   1     0.10  -0.13  -0.08     0.09  -0.04  -0.03    -0.10   0.05   0.02
  11   1    -0.07  -0.10  -0.16    -0.09  -0.13  -0.17     0.40  -0.18  -0.17
  12   1     0.04   0.20   0.19     0.08   0.12   0.12    -0.01   0.01   0.01
  13   1    -0.01  -0.01  -0.12     0.03   0.04  -0.08    -0.01  -0.01  -0.01
  14   1    -0.04   0.05  -0.06    -0.04  -0.02  -0.13    -0.02   0.05   0.04
  15   1     0.03   0.12  -0.06     0.43  -0.02  -0.09     0.36   0.03  -0.08
  16   1     0.03  -0.12  -0.06    -0.43  -0.02   0.09     0.36  -0.03  -0.08
  17   1    -0.07   0.10  -0.16     0.09  -0.13   0.17     0.40   0.18  -0.17
  18   1     0.10   0.13  -0.08    -0.09  -0.04   0.03    -0.10  -0.05   0.02
  19   1    -0.00   0.02  -0.09     0.07   0.06   0.04     0.10   0.11   0.01
  20   1    -0.13  -0.12  -0.02    -0.02   0.05   0.04     0.02   0.07   0.04
  21   1    -0.04  -0.05  -0.06     0.04  -0.02   0.13    -0.02  -0.05   0.04
  22   1     0.04  -0.20   0.19    -0.08   0.12  -0.12    -0.01  -0.01   0.01
  23   1    -0.01   0.01  -0.12    -0.03   0.04   0.08    -0.01   0.01  -0.01
                     31                     32                     33
                        a                      a                      a 
 Frequencies --  1317.5512              1330.7988              1342.5100
 Red. masses --     3.9899                 5.0289                 4.3767
 Frc consts  --     0.0000                 0.0000                 0.0000
 IR Inten    --     0.4352                 8.8353                15.0522
 Raman Activ --     0.0000                 0.0000                 0.0000
 Depolar     --     0.0000                 0.0000                 0.0000
 Atom AN      X      Y      Z        X      Y      Z        X      Y      Z
   1   6     0.03   0.07  -0.11    -0.04  -0.03  -0.07    -0.05  -0.04  -0.06
   2   6    -0.29   0.11   0.12     0.12   0.31   0.20     0.16   0.25   0.22
   3   6     0.08  -0.02   0.03    -0.01  -0.11   0.06    -0.02  -0.08   0.03
   4   6    -0.00  -0.07  -0.00    -0.06   0.00  -0.14     0.00  -0.03  -0.00
   5   6     0.29   0.11  -0.12     0.12  -0.31   0.20    -0.16   0.25  -0.22
   6   6    -0.03   0.07   0.11    -0.04   0.03  -0.07     0.05  -0.04   0.06
   7   6    -0.08  -0.02  -0.03    -0.01   0.11   0.06     0.02  -0.08  -0.03
   8   1     0.09  -0.10   0.01     0.01   0.00   0.04     0.00   0.01   0.07
   9   1     0.07  -0.08   0.03     0.09  -0.05  -0.01     0.07  -0.05  -0.01
  10   1    -0.05   0.02  -0.00     0.02   0.05   0.02     0.03   0.04   0.02
  11   1     0.47  -0.19  -0.22    -0.14  -0.40  -0.26    -0.22  -0.34  -0.18
  12   1    -0.04   0.00   0.01     0.01   0.01   0.03     0.01  -0.02   0.00
  13   1    -0.06  -0.07  -0.07    -0.02  -0.02  -0.12    -0.03  -0.02  -0.10
  14   1     0.00  -0.00  -0.03    -0.03  -0.03  -0.13    -0.01  -0.04  -0.10
  15   1     0.10   0.01  -0.04    -0.09  -0.07   0.04    -0.32  -0.01   0.07
  16   1    -0.10   0.01   0.04    -0.09   0.07   0.04     0.32  -0.01  -0.07
  17   1    -0.47  -0.19   0.22    -0.14   0.40  -0.26     0.22  -0.34   0.18
  18   1     0.05   0.02   0.00     0.02  -0.05   0.02    -0.03   0.04  -0.02
  19   1    -0.09  -0.10  -0.01     0.01  -0.00   0.04    -0.00   0.01  -0.07
  20   1    -0.07  -0.08  -0.03     0.09   0.05  -0.01    -0.07  -0.04   0.01
  21   1    -0.00  -0.00   0.03    -0.03   0.03  -0.13     0.01  -0.04   0.10
  22   1     0.04   0.00  -0.01     0.01  -0.01   0.03    -0.01  -0.02  -0.00
  23   1     0.06  -0.07   0.07    -0.02   0.02  -0.12     0.03  -0.02   0.10
                     34                     35                     36
                        a                      a                      a 
 Frequencies --  1373.7509              1403.9072              1409.1258
 Red. masses --     5.2330                 3.3416                 3.3442
 Frc consts  --     0.0000                 0.0000                 0.0000
 IR Inten    --     4.3267                 0.8592                 1.4171
 Raman Activ --     0.0000                 0.0000                 0.0000
 Depolar     --     0.0000                 0.0000                 0.0000
 Atom AN      X      Y      Z        X      Y      Z        X      Y      Z
   1   6     0.05  -0.01  -0.05     0.15  -0.13  -0.05     0.17  -0.14  -0.07
   2   6    -0.27   0.06   0.06    -0.00   0.06   0.05    -0.03   0.07   0.05
   3   6     0.06  -0.00  -0.00    -0.04  -0.16  -0.18    -0.04  -0.13  -0.15
   4   6     0.46  -0.00  -0.02     0.00   0.00  -0.03    -0.00  -0.04  -0.00
   5   6    -0.27  -0.06   0.06    -0.00  -0.06   0.05     0.03   0.07  -0.05
   6   6     0.05   0.01  -0.05     0.15   0.13  -0.05    -0.17  -0.14   0.07
   7   6     0.06   0.00  -0.00    -0.04   0.16  -0.18     0.04  -0.13   0.15
   8   1     0.01   0.00   0.01    -0.11   0.20   0.04    -0.12   0.23   0.06
   9   1    -0.01  -0.03   0.02    -0.20   0.09  -0.03    -0.24   0.10  -0.03
  10   1    -0.04   0.01   0.00    -0.17   0.11   0.12    -0.20   0.14   0.15
  11   1     0.30   0.01  -0.05    -0.01  -0.06  -0.04     0.06  -0.08  -0.07
  12   1    -0.06  -0.03  -0.02     0.04   0.24   0.15     0.05   0.21   0.13
  13   1    -0.03  -0.04  -0.04     0.15   0.09   0.21     0.12   0.07   0.17
  14   1    -0.02   0.05  -0.00    -0.04   0.14   0.23    -0.02   0.10   0.20
  15   1    -0.44   0.04   0.08    -0.01  -0.01   0.00    -0.02   0.02  -0.02
  16   1    -0.44  -0.04   0.08    -0.01   0.01   0.00     0.02   0.02   0.02
  17   1     0.30  -0.01  -0.05    -0.01   0.06  -0.04    -0.06  -0.08   0.07
  18   1    -0.04  -0.01   0.00    -0.17  -0.11   0.12     0.20   0.14  -0.15
  19   1     0.01  -0.00   0.01    -0.11  -0.20   0.04     0.12   0.23  -0.06
  20   1    -0.01   0.03   0.02    -0.20  -0.09  -0.03     0.24   0.10   0.03
  21   1    -0.02  -0.05  -0.00    -0.04  -0.14   0.23     0.02   0.10  -0.20
  22   1    -0.06   0.03  -0.02     0.04  -0.25   0.15    -0.05   0.21  -0.13
  23   1    -0.03   0.04  -0.04     0.15  -0.09   0.21    -0.12   0.07  -0.17
                     37                     38                     39
                        a                      a                      a 
 Frequencies --  1419.2661              1420.1081              1485.3203
 Red. masses --     3.1122                 3.0811                 1.8813
 Frc consts  --     0.0000                 0.0000                 0.0000
 IR Inten    --     0.0787                 1.0067                 0.7584
 Raman Activ --     0.0000                 0.0000                 0.0000
 Depolar     --     0.0000                 0.0000                 0.0000
 Atom AN      X      Y      Z        X      Y      Z        X      Y      Z
   1   6     0.16  -0.13  -0.02     0.18  -0.14  -0.04     0.04   0.03   0.01
   2   6    -0.03  -0.01  -0.02    -0.01  -0.02  -0.02     0.01  -0.01  -0.01
   3   6     0.06   0.13   0.17     0.04   0.11   0.16    -0.05   0.04   0.02
   4   6     0.00   0.02  -0.00    -0.06   0.00   0.02    -0.00  -0.26  -0.00
   5   6     0.03  -0.01   0.02    -0.01   0.02  -0.02    -0.01  -0.01   0.01
   6   6    -0.16  -0.13   0.02     0.18   0.14  -0.04    -0.04   0.03  -0.01
   7   6    -0.06   0.13  -0.18     0.04  -0.11   0.15     0.05   0.04  -0.02
   8   1    -0.12   0.21   0.01    -0.13   0.24   0.02    -0.05   0.07  -0.02
   9   1    -0.21   0.11  -0.03    -0.25   0.13  -0.03    -0.02  -0.08   0.07
  10   1    -0.19   0.10   0.12    -0.22   0.12   0.15    -0.09  -0.10  -0.05
  11   1     0.01   0.04   0.02     0.02   0.01  -0.00    -0.02   0.00   0.01
  12   1    -0.09  -0.23  -0.13    -0.04  -0.20  -0.12     0.16  -0.04  -0.04
  13   1    -0.14  -0.09  -0.20    -0.11  -0.07  -0.18    -0.04  -0.01  -0.11
  14   1     0.02  -0.11  -0.25     0.02  -0.10  -0.20     0.06  -0.09   0.07
  15   1     0.03  -0.05   0.03     0.08   0.00  -0.02    -0.08   0.48  -0.35
  16   1    -0.03  -0.05  -0.03     0.08  -0.00  -0.02     0.08   0.48   0.35
  17   1    -0.01   0.04  -0.02     0.02  -0.01  -0.00     0.02   0.00  -0.01
  18   1     0.19   0.10  -0.12    -0.22  -0.12   0.15     0.09  -0.10   0.05
  19   1     0.12   0.21  -0.01    -0.13  -0.24   0.02     0.05   0.07   0.02
  20   1     0.21   0.11   0.03    -0.25  -0.12  -0.03     0.02  -0.08  -0.07
  21   1    -0.02  -0.11   0.25     0.02   0.10  -0.20    -0.06  -0.09  -0.07
  22   1     0.09  -0.23   0.13    -0.04   0.20  -0.12    -0.16  -0.04   0.04
  23   1     0.14  -0.09   0.20    -0.11   0.07  -0.18     0.04  -0.01   0.11
                     40                     41                     42
                        a                      a                      a 
 Frequencies --  1494.0586              1498.7303              1499.8305
 Red. masses --     1.5991                 1.5636                 1.6460
 Frc consts  --     0.0000                 0.0000                 0.0000
 IR Inten    --     0.3917                 0.0729                 0.0012
 Raman Activ --     0.0000                 0.0000                 0.0000
 Depolar     --     0.0000                 0.0000                 0.0000
 Atom AN      X      Y      Z        X      Y      Z        X      Y      Z
   1   6    -0.07  -0.07  -0.01     0.04   0.08  -0.10     0.07   0.04   0.07
   2   6     0.02  -0.03  -0.01    -0.01   0.00  -0.01    -0.01   0.04   0.03
   3   6     0.12  -0.00  -0.02    -0.03  -0.06   0.06    -0.09   0.03  -0.02
   4   6    -0.01   0.00   0.01     0.00   0.04   0.00    -0.00   0.10   0.00
   5   6     0.02   0.03  -0.01     0.01   0.00   0.01     0.02   0.04  -0.03
   6   6    -0.07   0.07  -0.01    -0.04   0.08   0.10    -0.07   0.04  -0.07
   7   6     0.12   0.00  -0.02     0.03  -0.06  -0.06     0.09   0.03   0.02
   8   1     0.08  -0.13   0.05    -0.00   0.13   0.28    -0.11   0.09  -0.26
   9   1     0.01   0.20  -0.16    -0.20  -0.26   0.25     0.13  -0.10   0.04
  10   1     0.16   0.22   0.13     0.05  -0.17  -0.14    -0.25  -0.18  -0.07
  11   1     0.01   0.01   0.01     0.02   0.02   0.01     0.01  -0.01  -0.01
  12   1    -0.39   0.05   0.07     0.07  -0.12  -0.08     0.29   0.02  -0.02
  13   1    -0.03  -0.08   0.24     0.15   0.18  -0.16    -0.06  -0.02  -0.13
  14   1    -0.07   0.07  -0.24    -0.09   0.18   0.01     0.10  -0.15   0.19
  15   1     0.01   0.00  -0.00     0.03  -0.09   0.06     0.01  -0.22   0.16
  16   1     0.01  -0.00  -0.00    -0.03  -0.09  -0.06    -0.01  -0.22  -0.16
  17   1     0.01  -0.01   0.01    -0.02   0.02  -0.01    -0.01  -0.01   0.01
  18   1     0.16  -0.22   0.13    -0.05  -0.17   0.14     0.26  -0.18   0.07
  19   1     0.08   0.13   0.05     0.00   0.13  -0.28     0.11   0.08   0.26
  20   1     0.01  -0.20  -0.16     0.20  -0.26  -0.25    -0.13  -0.09  -0.04
  21   1    -0.07  -0.07  -0.24     0.09   0.18  -0.01    -0.11  -0.15  -0.20
  22   1    -0.39  -0.05   0.07    -0.07  -0.12   0.08    -0.29   0.02   0.02
  23   1    -0.03   0.08   0.24    -0.15   0.18   0.16     0.06  -0.03   0.13
                     43                     44                     45
                        a                      a                      a 
 Frequencies --  1499.9094              1504.4734              1505.3482
 Red. masses --     1.5376                 1.5959                 1.5948
 Frc consts  --     0.0000                 0.0000                 0.0000
 IR Inten    --     0.5506                 1.4542                 0.0387
 Raman Activ --     0.0000                 0.0000                 0.0000
 Depolar     --     0.0000                 0.0000                 0.0000
 Atom AN      X      Y      Z        X      Y      Z        X      Y      Z
   1   6     0.01  -0.04   0.12    -0.07  -0.08  -0.05    -0.05  -0.07  -0.06
   2   6    -0.02   0.02   0.03    -0.06  -0.02  -0.01    -0.06  -0.02  -0.02
   3   6    -0.02   0.06  -0.05    -0.08   0.03   0.01    -0.10   0.05   0.02
   4   6     0.01   0.00  -0.00     0.03  -0.00  -0.00     0.00   0.03   0.00
   5   6    -0.02  -0.02   0.03    -0.06   0.02  -0.01     0.06  -0.02   0.02
   6   6     0.00   0.04   0.12    -0.07   0.08  -0.05     0.05  -0.07   0.06
   7   6    -0.02  -0.06  -0.05    -0.08  -0.03   0.01     0.10   0.05  -0.02
   8   1    -0.06  -0.06  -0.40     0.13  -0.14   0.19     0.12  -0.11   0.21
   9   1     0.25   0.17  -0.19    -0.08   0.20  -0.14    -0.11   0.15  -0.09
  10   1    -0.20   0.05   0.09     0.26   0.27   0.14     0.24   0.22   0.11
  11   1     0.04  -0.03  -0.02     0.02   0.00  -0.00     0.02   0.02   0.01
  12   1     0.09   0.10   0.05     0.30  -0.02  -0.04     0.35  -0.03  -0.05
  13   1    -0.14  -0.15   0.06    -0.03   0.01  -0.17    -0.05   0.00  -0.20
  14   1     0.12  -0.21   0.08     0.08  -0.10   0.19     0.11  -0.14   0.21
  15   1    -0.02   0.00   0.00    -0.01   0.00  -0.00     0.03  -0.04   0.03
  16   1    -0.02  -0.00   0.00    -0.01  -0.00  -0.00    -0.03  -0.04  -0.03
  17   1     0.04   0.03  -0.02     0.02  -0.00  -0.00    -0.02   0.02  -0.01
  18   1    -0.20  -0.05   0.09     0.26  -0.27   0.14    -0.24   0.22  -0.11
  19   1    -0.06   0.06  -0.39     0.13   0.14   0.19    -0.12  -0.11  -0.21
  20   1     0.25  -0.17  -0.19    -0.08  -0.20  -0.14     0.11   0.15   0.09
  21   1     0.12   0.20   0.08     0.08   0.10   0.19    -0.11  -0.14  -0.21
  22   1     0.08  -0.10   0.05     0.30   0.02  -0.04    -0.35  -0.03   0.05
  23   1    -0.14   0.15   0.06    -0.03  -0.01  -0.17     0.05   0.00   0.20
                     46                     47                     48
                        a                      a                      a 
 Frequencies --  1510.2580              1512.2689              2933.7763
 Red. masses --     1.5418                 1.5200                 1.7359
 Frc consts  --     0.0000                 0.0000                 0.0000
 IR Inten    --     1.3698                 0.7212                49.6358
 Raman Activ --     0.0000                 0.0000                 0.0000
 Depolar     --     0.0000                 0.0000                 0.0000
 Atom AN      X      Y      Z        X      Y      Z        X      Y      Z
   1   6    -0.02  -0.03   0.07    -0.02  -0.03   0.06    -0.00  -0.00   0.01
   2   6    -0.01  -0.03   0.02    -0.02  -0.04   0.04    -0.02   0.10  -0.14
   3   6    -0.02  -0.10   0.07    -0.03  -0.09   0.07    -0.00  -0.00   0.00
   4   6     0.01  -0.00  -0.01    -0.00  -0.01  -0.00     0.02  -0.00   0.09
   5   6    -0.01   0.03   0.02     0.02  -0.04  -0.04    -0.02  -0.10  -0.13
   6   6    -0.02   0.03   0.07     0.02  -0.03  -0.06    -0.00   0.00   0.01
   7   6    -0.02   0.10   0.07     0.03  -0.09  -0.07    -0.00   0.00   0.00
   8   1    -0.01  -0.07  -0.22    -0.01  -0.08  -0.22     0.01   0.01  -0.00
   9   1     0.15   0.13  -0.14     0.15   0.15  -0.15    -0.00  -0.01  -0.01
  10   1    -0.07   0.07   0.07    -0.08   0.09   0.09    -0.01   0.02  -0.02
  11   1    -0.01   0.01   0.03     0.05  -0.01   0.00     0.09  -0.38   0.53
  12   1     0.01  -0.18  -0.11     0.06  -0.18  -0.12    -0.00   0.01  -0.02
  13   1     0.25   0.28  -0.18     0.23   0.27  -0.20    -0.00   0.00   0.00
  14   1    -0.17   0.32  -0.02    -0.15   0.29   0.01     0.01   0.01  -0.00
  15   1     0.00  -0.00   0.00    -0.03   0.05  -0.03    -0.03  -0.13  -0.17
  16   1     0.00   0.00   0.00     0.03   0.05   0.03    -0.03   0.13  -0.17
  17   1    -0.01  -0.01   0.03    -0.05  -0.01  -0.00     0.09   0.36   0.51
  18   1    -0.07  -0.07   0.07     0.08   0.09  -0.09    -0.01  -0.02  -0.02
  19   1    -0.01   0.07  -0.22     0.01  -0.08   0.22     0.01  -0.01  -0.00
  20   1     0.15  -0.13  -0.14    -0.15   0.15   0.15    -0.00   0.01  -0.01
  21   1    -0.17  -0.32  -0.02     0.15   0.29  -0.01     0.01  -0.01  -0.00
  22   1     0.02   0.18  -0.11    -0.06  -0.18   0.12    -0.00  -0.01  -0.02
  23   1     0.25  -0.28  -0.18    -0.23   0.27   0.20    -0.00  -0.00   0.00
                     49                     50                     51
                        a                      a                      a 
 Frequencies --  2936.0758              2949.6159              2963.6071
 Red. masses --     1.7461                 1.9833                 1.4787
 Frc consts  --     0.0000                 0.0000                 0.0000
 IR Inten    --    50.7409               164.5345                75.5731
 Raman Activ --     0.0000                 0.0000                 0.0000
 Depolar     --     0.0000                 0.0000                 0.0000
 Atom AN      X      Y      Z        X      Y      Z        X      Y      Z
   1   6     0.00   0.00  -0.01     0.00   0.00  -0.01     0.00   0.01  -0.00
   2   6     0.02  -0.10   0.15     0.01  -0.03   0.06    -0.00  -0.01   0.00
   3   6    -0.00   0.01  -0.00     0.01   0.00  -0.01    -0.00   0.00  -0.00
   4   6     0.00  -0.00   0.00     0.06  -0.00   0.28    -0.00  -0.21  -0.00
   5   6    -0.02  -0.11  -0.15     0.01   0.03   0.06     0.00  -0.01  -0.00
   6   6    -0.00   0.00   0.01     0.00  -0.00  -0.01    -0.00   0.01   0.00
   7   6     0.00   0.01   0.00     0.01  -0.00  -0.01     0.00   0.00   0.00
   8   1    -0.02  -0.01   0.00    -0.01  -0.00   0.00    -0.01  -0.01   0.00
   9   1     0.01   0.01   0.01     0.00   0.01   0.01    -0.01  -0.01  -0.02
  10   1     0.01  -0.02   0.02     0.00  -0.01   0.01     0.00  -0.01   0.02
  11   1    -0.09   0.38  -0.54    -0.03   0.12  -0.17    -0.00   0.00  -0.00
  12   1     0.00  -0.01   0.02     0.00  -0.01   0.02    -0.00  -0.00   0.01
  13   1     0.02  -0.02  -0.00    -0.00   0.00  -0.00    -0.00   0.00   0.00
  14   1    -0.01  -0.00   0.00    -0.02  -0.01   0.00     0.01   0.00  -0.00
  15   1    -0.00  -0.01  -0.01    -0.10  -0.39  -0.50     0.11   0.38   0.57
  16   1    -0.00  -0.00   0.00    -0.10   0.39  -0.50    -0.11   0.38  -0.57
  17   1     0.10   0.40   0.56    -0.03  -0.12  -0.17     0.00   0.00   0.00
  18   1    -0.01  -0.02  -0.02     0.00   0.01   0.01    -0.00  -0.01  -0.02
  19   1     0.02  -0.01  -0.00    -0.01   0.00   0.00     0.01  -0.01  -0.00
  20   1    -0.01   0.01  -0.01     0.00  -0.01   0.01     0.01  -0.01   0.02
  21   1     0.01  -0.00  -0.00    -0.02   0.01   0.00    -0.01   0.00   0.00
  22   1    -0.00  -0.01  -0.03     0.00   0.01   0.02     0.00  -0.00  -0.01
  23   1    -0.02  -0.02   0.00    -0.00  -0.00  -0.00     0.00   0.00  -0.00
                     52                     53                     54
                        a                      a                      a 
 Frequencies --  3020.8605              3021.0188              3022.0800
 Red. masses --     1.9214                 1.9185                 1.9461
 Frc consts  --     0.0000                 0.0000                 0.0000
 IR Inten    --    28.0903                 0.1195                16.1982
 Raman Activ --     0.0000                 0.0000                 0.0000
 Depolar     --     0.0000                 0.0000                 0.0000
 Atom AN      X      Y      Z        X      Y      Z        X      Y      Z
   1   6     0.00  -0.07   0.17    -0.01   0.05  -0.16    -0.05  -0.03  -0.08
   2   6     0.00  -0.00   0.01    -0.00   0.00  -0.01     0.00   0.01  -0.01
   3   6     0.01   0.07  -0.08     0.01  -0.06   0.07     0.12   0.09  -0.10
   4   6    -0.00  -0.00  -0.00    -0.00   0.00  -0.00     0.00  -0.00   0.00
   5   6     0.00   0.00   0.01     0.00   0.00   0.01    -0.00   0.01   0.01
   6   6    -0.00   0.07   0.15     0.01   0.06   0.18     0.05  -0.03   0.08
   7   6     0.01  -0.06  -0.07    -0.01  -0.07  -0.07    -0.12   0.09   0.10
   8   1     0.14   0.08  -0.01    -0.09  -0.05  -0.00     0.10   0.07  -0.04
   9   1    -0.05  -0.14  -0.15     0.06   0.15   0.17     0.05   0.14   0.18
  10   1    -0.09   0.32  -0.44     0.08  -0.29   0.39     0.02  -0.11   0.13
  11   1    -0.00   0.01  -0.02    -0.00  -0.01   0.01     0.00  -0.02   0.02
  12   1     0.03  -0.18   0.28    -0.02   0.17  -0.25     0.04  -0.19   0.30
  13   1     0.03  -0.02  -0.02    -0.05   0.04   0.02    -0.05   0.08  -0.00
  14   1    -0.10  -0.04   0.01     0.05   0.02  -0.00    -0.41  -0.20   0.07
  15   1     0.00   0.00   0.00    -0.00  -0.00  -0.01     0.00   0.00   0.00
  16   1     0.00  -0.00  -0.00     0.00  -0.00   0.01    -0.00   0.00  -0.01
  17   1    -0.00  -0.01  -0.01    -0.00  -0.01  -0.01    -0.00  -0.02  -0.02
  18   1    -0.08  -0.29  -0.40    -0.09  -0.32  -0.44    -0.02  -0.11  -0.13
  19   1     0.13  -0.07  -0.01     0.10  -0.06   0.00    -0.11   0.07   0.04
  20   1    -0.05   0.13  -0.14    -0.06   0.17  -0.19    -0.05   0.14  -0.19
  21   1    -0.10   0.04   0.01    -0.06   0.02   0.00     0.42  -0.20  -0.07
  22   1     0.02   0.17   0.25     0.02   0.18   0.28    -0.04  -0.20  -0.30
  23   1     0.03   0.02  -0.01     0.06   0.05  -0.02     0.05   0.09   0.00
                     55                     56                     57
                        a                      a                      a 
 Frequencies --  3022.5476              3023.4040              3024.0178
 Red. masses --     1.9402                 1.9251                 1.9203
 Frc consts  --     0.0000                 0.0000                 0.0000
 IR Inten    --   141.7884                72.0183               161.5827
 Raman Activ --     0.0000                 0.0000                 0.0000
 Depolar     --     0.0000                 0.0000                 0.0000
 Atom AN      X      Y      Z        X      Y      Z        X      Y      Z
   1   6    -0.06  -0.03  -0.09     0.11   0.14  -0.00    -0.11  -0.14   0.01
   2   6     0.00   0.01  -0.01     0.00   0.01  -0.01    -0.00  -0.01   0.01
   3   6     0.13   0.07  -0.09     0.00   0.07  -0.07     0.02  -0.06   0.06
   4   6    -0.00   0.00  -0.01     0.00   0.00  -0.00    -0.00  -0.01  -0.00
   5   6     0.00  -0.01  -0.01     0.00  -0.01  -0.01     0.00  -0.01  -0.01
   6   6    -0.06   0.04  -0.09     0.11  -0.14  -0.00     0.11  -0.15  -0.01
   7   6     0.13  -0.07  -0.09     0.00  -0.07  -0.07    -0.02  -0.06  -0.06
   8   1     0.13   0.09  -0.05    -0.38  -0.23   0.10     0.40   0.24  -0.10
   9   1     0.06   0.16   0.21    -0.06  -0.16  -0.25     0.05   0.16   0.24
  10   1     0.02  -0.13   0.15     0.05  -0.10   0.17    -0.06   0.11  -0.19
  11   1     0.00  -0.02   0.03     0.00  -0.02   0.02    -0.00   0.02  -0.02
  12   1     0.04  -0.15   0.23     0.02  -0.18   0.27    -0.02   0.16  -0.24
  13   1    -0.08   0.11   0.00     0.04  -0.03  -0.02    -0.06   0.05   0.02
  14   1    -0.42  -0.21   0.08    -0.07  -0.02   0.00    -0.01  -0.01   0.01
  15   1     0.00   0.01   0.02    -0.00   0.01   0.01     0.01   0.02   0.03
  16   1     0.00  -0.01   0.02    -0.00  -0.01   0.01    -0.01   0.02  -0.03
  17   1     0.00   0.02   0.03     0.00   0.02   0.02     0.00   0.02   0.02
  18   1     0.02   0.12   0.15     0.05   0.10   0.17     0.06   0.11   0.19
  19   1     0.13  -0.09  -0.05    -0.38   0.23   0.10    -0.40   0.24   0.10
  20   1     0.06  -0.16   0.21    -0.06   0.16  -0.25    -0.05   0.16  -0.24
  21   1    -0.41   0.21   0.08    -0.07   0.03   0.00     0.00  -0.01  -0.01
  22   1     0.04   0.15   0.22     0.02   0.18   0.27     0.02   0.16   0.24
  23   1    -0.08  -0.11   0.00     0.04   0.03  -0.02     0.06   0.05  -0.02
                     58                     59                     60
                        a                      a                      a 
 Frequencies --  3028.1952              3028.7019              3035.3918
 Red. masses --     1.7791                 1.7729                 1.2683
 Frc consts  --     0.0000                 0.0000                 0.0000
 IR Inten    --   221.7399                 3.9282               100.5906
 Raman Activ --     0.0000                 0.0000                 0.0000
 Depolar     --     0.0000                 0.0000                 0.0000
 Atom AN      X      Y      Z        X      Y      Z        X      Y      Z
   1   6    -0.04  -0.04  -0.07    -0.04  -0.05  -0.07     0.08  -0.05  -0.04
   2   6    -0.01   0.00  -0.01    -0.01   0.00  -0.01     0.00  -0.00  -0.00
   3   6    -0.14   0.05  -0.06    -0.15   0.04  -0.05     0.02  -0.01   0.00
   4   6     0.00  -0.00  -0.00     0.00   0.00  -0.00    -0.00   0.00  -0.00
   5   6    -0.01  -0.00  -0.01     0.01   0.00   0.01     0.00   0.00  -0.00
   6   6    -0.04   0.04  -0.07     0.04  -0.05   0.07     0.08   0.05  -0.04
   7   6    -0.14  -0.06  -0.06     0.14   0.04   0.05     0.02   0.01   0.00
   8   1     0.07   0.04  -0.03     0.08   0.05  -0.03    -0.36  -0.24   0.09
   9   1     0.06   0.17   0.22     0.07   0.18   0.24     0.11   0.24   0.33
  10   1     0.01  -0.06   0.06     0.00  -0.05   0.04    -0.04   0.18  -0.26
  11   1     0.00  -0.01   0.01     0.00  -0.01   0.02     0.00  -0.01   0.01
  12   1     0.01  -0.21   0.33     0.00  -0.19   0.29     0.00   0.02  -0.04
  13   1     0.16  -0.17  -0.04     0.15  -0.16  -0.04    -0.04   0.04   0.01
  14   1     0.34   0.19  -0.08     0.37   0.21  -0.09    -0.04  -0.03   0.01
  15   1     0.00   0.00   0.00     0.00   0.00   0.00     0.00   0.00   0.00
  16   1     0.00  -0.00   0.00    -0.00   0.00  -0.00     0.00  -0.00   0.00
  17   1     0.00   0.01   0.01    -0.00  -0.01  -0.02     0.00   0.01   0.01
  18   1     0.01   0.06   0.06    -0.00  -0.05  -0.04    -0.04  -0.18  -0.26
  19   1     0.07  -0.04  -0.03    -0.08   0.05   0.03    -0.37   0.25   0.09
  20   1     0.06  -0.17   0.23    -0.07   0.18  -0.24     0.11  -0.24   0.33
  21   1     0.34  -0.19  -0.08    -0.37   0.20   0.09    -0.04   0.03   0.01
  22   1     0.01   0.22   0.33    -0.00  -0.19  -0.29     0.00  -0.02  -0.04
  23   1     0.16   0.17  -0.04    -0.15  -0.16   0.04    -0.04  -0.04   0.01
                     61                     62                     63
                        a                      a                      a 
 Frequencies --  3036.1214              3043.4427              3044.2301
 Red. masses --     1.2818                 1.4218                 1.4310
 Frc consts  --     0.0000                 0.0000                 0.0000
 IR Inten    --    43.1531                63.2600                17.7867
 Raman Activ --     0.0000                 0.0000                 0.0000
 Depolar     --     0.0000                 0.0000                 0.0000
 Atom AN      X      Y      Z        X      Y      Z        X      Y      Z
   1   6    -0.08   0.05   0.04    -0.01   0.01   0.01    -0.00   0.00   0.01
   2   6    -0.00   0.00   0.00     0.00  -0.01   0.00     0.00  -0.00  -0.00
   3   6    -0.03   0.02  -0.00     0.05  -0.11  -0.04     0.05  -0.12  -0.04
   4   6     0.00   0.01   0.00    -0.00   0.00   0.00     0.00   0.00  -0.00
   5   6     0.00   0.00  -0.00    -0.00  -0.01  -0.00     0.00   0.00  -0.00
   6   6     0.08   0.05  -0.04     0.01   0.01  -0.01    -0.00  -0.00   0.00
   7   6     0.03   0.02   0.00    -0.06  -0.12   0.04     0.05   0.12  -0.04
   8   1     0.36   0.24  -0.09     0.05   0.03  -0.01     0.01   0.01  -0.00
   9   1    -0.10  -0.23  -0.31    -0.02  -0.05  -0.06    -0.01  -0.02  -0.02
  10   1     0.04  -0.18   0.27     0.00  -0.02   0.03     0.00  -0.00   0.01
  11   1    -0.00   0.00  -0.00    -0.00   0.02  -0.02    -0.00   0.00  -0.00
  12   1    -0.00  -0.02   0.03     0.02  -0.11   0.13     0.02  -0.10   0.12
  13   1     0.09  -0.09  -0.02    -0.43   0.42   0.07    -0.45   0.43   0.07
  14   1     0.03   0.02  -0.01     0.22   0.09  -0.05     0.24   0.10  -0.05
  15   1    -0.00  -0.01  -0.02    -0.00  -0.00  -0.01     0.00   0.00   0.00
  16   1     0.00  -0.01   0.02     0.00  -0.00   0.01     0.00  -0.00   0.00
  17   1     0.00   0.00   0.00     0.00   0.02   0.02    -0.00  -0.00  -0.00
  18   1    -0.04  -0.18  -0.27    -0.00  -0.02  -0.03     0.00   0.00   0.01
  19   1    -0.36   0.24   0.09    -0.05   0.03   0.01     0.01  -0.01  -0.00
  20   1     0.10  -0.23   0.31     0.02  -0.05   0.06    -0.01   0.02  -0.02
  21   1    -0.03   0.02   0.01    -0.23   0.09   0.05     0.23  -0.10  -0.05
  22   1     0.00  -0.02  -0.03    -0.02  -0.11  -0.14     0.02   0.10   0.12
  23   1    -0.09  -0.09   0.02     0.45   0.43  -0.07    -0.44  -0.42   0.07
