
                                 *****************
                                 * O   R   C   A *
                                 *****************

                                            #,                                       
                                            ###                                      
                                            ####                                     
                                            #####                                    
                                            ######                                   
                                           ########,                                 
                                     ,,################,,,,,                         
                               ,,#################################,,                 
                          ,,##########################################,,             
                       ,#########################################, ''#####,          
                    ,#############################################,,   '####,        
                  ,##################################################,,,,####,       
                ,###########''''           ''''###############################       
              ,#####''   ,,,,##########,,,,          '''####'''          '####       
            ,##' ,,,,###########################,,,                        '##       
           ' ,,###''''                  '''############,,,                           
         ,,##''                                '''############,,,,        ,,,,,,###''
      ,#''                                            '''#######################'''  
     '                                                          ''''####''''         
             ,#######,   #######,   ,#######,      ##                                
            ,#'     '#,  ##    ##  ,#'     '#,    #''#        ,####,   ,####,        
            ##       ##  ##   ,#'  ##            #'  '#       #'       #'  '#        
            ##       ##  #######   ##           ,######,      #####,   #    #        
            '#,     ,#'  ##    ##  '#,     ,#' ,#      #,     #,   #   #,  ,#        
             '#######'   ##     ##  '#######'  #'      '#     '####' # '####'        



                #########################################################
                #                        -***-                          #
                #          Department of theory and spectroscopy        #
                #                                                       #
                #                      Frank Neese                      #
                #                                                       #
                #     Directorship, Architecture, Infrastructure        #
                #                    SHARK, DRIVERS                     #
                #        Core code/Algorithms in most modules           #
                #                                                       #
                #        Max Planck Institute fuer Kohlenforschung      #
                #                Kaiser Wilhelm Platz 1                 #
                #                 D-45470 Muelheim/Ruhr                 #
                #                      Germany                          #
                #                                                       #
                #                  All rights reserved                  #
                #                        -***-                          #
                #########################################################


                         Program Version 6.0.0  -   RELEASE  -


 With contributions from (in alphabetic order):
   Daniel Aravena         : Magnetic Suceptibility
   Michael Atanasov       : Ab Initio Ligand Field Theory (pilot matlab implementation)
   Alexander A. Auer      : GIAO ZORA, VPT2 properties, NMR spectrum
   Ute Becker             : All parallelization in ORCA, NUMFREQ, NUMCALC
   Giovanni Bistoni       : ED, misc. LED, open-shell LED, HFLD
   Martin Brehm           : Molecular dynamics
   Dmytro Bykov           : pre 5.0 version of the SCF Hessian
   Marcos Casanova-Páez   : Triplet and SCS-CIS(D). UHF-(DLPNO)-IP/EA/STEOM-CCSD. UHF-CVS-IP/STEOM-CCSD
   Vijay G. Chilkuri      : MRCI spin determinant printing, contributions to CSF-ICE
   Pauline Colinet        : FMM embedding
   Dipayan Datta          : RHF DLPNO-CCSD density
   Achintya Kumar Dutta   : EOM-CC, STEOM-CC
   Nicolas Foglia         : Exact transition moments, OPA infrastructure, MCD improvements
   Dmitry Ganyushin       : Spin-Orbit,Spin-Spin,Magnetic field MRCI
   Miquel Garcia          : C-PCM and meta-GGA Hessian, CCSD/C-PCM, Gaussian charge scheme
   Tiago L. C. Gouveia    : GS-ROHF, GS-ROCIS
   Yang Guo               : DLPNO-NEVPT2, F12-NEVPT2, CIM, IAO-localization
   Andreas Hansen         : Spin unrestricted coupled pair/coupled cluster methods
   Ingolf Harden          : AUTO-CI MPn and infrastructure 
   Benjamin Helmich-Paris : MC-RPA, TRAH-(SCF,CASSCF), AVAS, COSX integrals, SCF dyn. polar.
   Lee Huntington         : MR-EOM, pCC
   Robert Izsak           : Overlap fitted RIJCOSX, COSX-SCS-MP3, EOM
   Riya Kayal             : Wick's Theorem for AUTO-CI, AUTO-CI UHF-CCSDT
   Emily Kempfer          : AUTO-CI, RHF CISDT and CCSDT
   Christian Kollmar      : KDIIS, OOCD, Brueckner-CCSD(T), CCSD density, CASPT2, CASPT2-K, improved NEVPT2
   Axel Koslowski         : Symmetry handling
   Simone Kossmann        : Meta GGA functionals, TD-DFT gradient, OOMP2, (MP2 Hessian; deprecated post 5.0)
   Lucas Lang             : DCDCAS
   Marvin Lechner         : AUTO-CI (C++ implementation), FIC-MRCC
   Spencer Leger          : CASSCF response
   Dagmar Lenk            : GEPOL surface, SMD, ORCA-2-JSON
   Dimitrios Liakos       : Extrapolation schemes; Compound Job, initial MDCI parallelization
   Dimitrios Manganas     : Further ROCIS development; embedding schemes. LFT, Crystal Embedding
   Dimitrios Pantazis     : SARC Basis sets
   Anastasios Papadopoulos: AUTO-CI, single reference methods and gradients
   Taras Petrenko         : pre 6.0 DFT Hessian and TD-DFT gradient, (ASA, deprecated), ECA, 1-Electron XAS/XES, NRVS
   Peter Pinski           : DLPNO-MP2, DLPNO-MP2 Gradient
   Christoph Reimann      : Effective Core Potentials
   Marius Retegan         : Local ZFS, SOC
   Christoph Riplinger    : Optimizer, TS searches, QM/MM, DLPNO-CCSD(T), (RO)-DLPNO pert. Triples
   Michael Roemelt        : Original ROCIS implementation
   Masaaki Saitow         : Open-shell DLPNO-CCSD energy and density
   Barbara Sandhoefer     : DKH picture change effects
   Kantharuban Sivalingam : CASSCF convergence/infrastructure, NEVPT2 and variants, FIC-MRCI
   Bernardo de Souza      : ESD, SOC TD-DFT
   Georgi Stoychev        : AutoAux, RI-MP2 NMR, DLPNO-MP2 response, X2C
   Van Anh Tran           : RI-MP2 g-tensors
   Willem Van den Heuvel  : Paramagnetic NMR
   Zikuan Wang            : NOTCH, Electric field optimization 
   Frank Wennmohs         : Technical directorship and infrastructure
   Hang Xu                : AUTO-CI-Response properties 


 We gratefully acknowledge several colleagues who have allowed us to
 interface, adapt or use parts of their codes:
   Stefan Grimme, W. Hujo, H. Kruse, P. Pracht,  : VdW corrections, initial TS optimization,
                  C. Bannwarth, S. Ehlert,         DFT functionals, gCP, sTDA/sTD-DF
                  L. Wittmann, M. Mueller
   Ed Valeev, F. Pavosevic, A. Kumar             : LibInt (2-el integral package), F12 methods
   Garnet Chan, S. Sharma, J. Yang, R. Olivares  : DMRG
   Ulf Ekstrom                                   : XCFun DFT Library
   Mihaly Kallay                                 : mrcc  (arbitrary order and MRCC methods)
   Frank Weinhold                                : gennbo (NPA and NBO analysis)
   Simon Mueller                                 : openCOSMO-RS
   Christopher J. Cramer and Donald G. Truhlar   : smd solvation model
   Lars Goerigk                                  : TD-DFT with DH, B97 family of functionals
   V. Asgeirsson, H. Jonsson                     : NEB implementation
   FAccTs GmbH                                   : IRC, NEB, NEB-TS, DLPNO-Multilevel, CI-OPT
                                                   MM, QMMM, 2- and 3-layer-ONIOM, Crystal-QMMM,
                                                   LR-CPCM, SF, NACMEs, symmetry and pop. for TD-DFT,
                                                   nearIR, NL-DFT gradient (VV10), updates on ESD,
                                                   ML-optimized integration grids, MBIS, APM,
                                                   GOAT, DOCKER, SOLVATOR, interface openCOSMO-RS
   S Lehtola, MJT Oliveira, MAL Marques          : LibXC Library
   Liviu Ungur et al                             : ANISO software


 Your calculation uses the libint2 library for the computation of 2-el integrals
 For citations please refer to: http://libint.valeyev.net

 Your ORCA version has been built with support for libXC version: 6.2.2
 For citations please refer to: https://libxc.gitlab.io

 This ORCA versions uses:
   CBLAS   interface :  Fast vector & matrix operations
   LAPACKE interface :  Fast linear algebra routines
   SCALAPACK package :  Parallel linear algebra routines
   Shared memory     :  Shared parallel matrices
   BLAS/LAPACK       :  OpenBLAS 0.3.27  USE64BITINT DYNAMIC_ARCH NO_AFFINITY SkylakeX SINGLE_THREADED
        Core in use  :  SkylakeX
   Copyright (c) 2011-2014, The OpenBLAS Project


Your calculation utilizes the geometrical counterpoise correction gCP
Please cite in your paper:
H.Kruse, S. Grimme J.Chem.Phys., 136, (2012), 154101 
   

Your calculation utilizes the atom-pairwise dispersion correction
based on EEQ partial charges (D4)


Your calculation utilizes the SMD solvation module
Please cite in your paper:
A.V. Marenich, C.J. Cramer, D.G. Truhlar J. Phys. Chem. B, 113, (2009), 6378 

================================================================================

----- Orbital basis set information -----
Your calculation utilizes the basis: def2-mTZVPP
   Stefan Grimme, Andreas Hansen, Sebastian Ehlert, and Jan-Michael Mewes 
   J. Chem. Phys. 154, 064103 (2021). DOI: 10.1063/5.0040021

----- AuxJ basis set information -----
Your calculation utilizes the auxiliary basis: def2/J
   F. Weigend, Phys. Chem. Chem. Phys. 8, 1057 (2006).

================================================================================
                                        WARNINGS
                       Please study these warnings very carefully!
================================================================================

Using LibXC functional ID 497 : Re-regularized SCAN exchange by Furness et al
[ 1]  J. W. Furness, A. D. Kaplan, J. Ning, J. P. Perdew, and J. Sun.,  J. Phys. Chem. Lett. 11, 8208-8215 (2020)
[ 2]  J. W. Furness, A. D. Kaplan, J. Ning, J. P. Perdew, and J. Sun.,  J. Phys. Chem. Lett. 11, 9248-9248 (2020)
Using LibXC functional ID 498 : Re-regularized SCAN correlation by Furness et al
[ 1]  J. W. Furness, A. D. Kaplan, J. Ning, J. P. Perdew, and J. Sun.,  J. Phys. Chem. Lett. 11, 8208-8215 (2020)
[ 2]  J. W. Furness, A. D. Kaplan, J. Ning, J. P. Perdew, and J. Sun.,  J. Phys. Chem. Lett. 11, 9248-9248 (2020)
Using LibXC functional ID 497 : Re-regularized SCAN exchange by Furness et al
[ 1]  J. W. Furness, A. D. Kaplan, J. Ning, J. P. Perdew, and J. Sun.,  J. Phys. Chem. Lett. 11, 8208-8215 (2020)
[ 2]  J. W. Furness, A. D. Kaplan, J. Ning, J. P. Perdew, and J. Sun.,  J. Phys. Chem. Lett. 11, 9248-9248 (2020)
Using LibXC functional ID 498 : Re-regularized SCAN correlation by Furness et al
[ 1]  J. W. Furness, A. D. Kaplan, J. Ning, J. P. Perdew, and J. Sun.,  J. Phys. Chem. Lett. 11, 8208-8215 (2020)
[ 2]  J. W. Furness, A. D. Kaplan, J. Ning, J. P. Perdew, and J. Sun.,  J. Phys. Chem. Lett. 11, 9248-9248 (2020)

================================================================================
                                       INPUT FILE
================================================================================
NAME = sp_solv.inp
|  1> ! r2scan-3c def2/J RI DEFGRID2 scfconv6 printgap
|  2> %output
|  3>     printlevel normal
|  4> end
|  5> %cpcm
|  6>     smd true
|  7>     smdsolvent "water"
|  8> end
|  9> * xyz 0 1
| 10> C -1.4401337782 0.0376930646 0.6212757562
| 11> C 0.0663583699 0.334646397 0.5100724279
| 12> C 0.8184403346 -0.8842038175 -0.043570518
| 13> O 2.2158396884 -0.7425556116 -0.004903953
| 14> O 0.2834685175 1.4192752448 -0.3720729965
| 15> O -2.0067882498 -0.2840007697 -0.6255991714
| 16> H -1.9507419421 0.9115561742 1.051331445
| 17> H -1.609843498 -0.8218939059 1.2711968606
| 18> H 0.4542771521 0.5693242738 1.5114281147
| 19> H 0.5630988099 -1.0105777439 -1.0968243532
| 20> H 0.5004575833 -1.7776402238 0.5080815318
| 21> H 2.5040920318 -0.6338718361 0.9125271735
| 22> H 0.045503614 2.2500325555 0.0620224203
| 23> H -1.7073541019 0.3787368947 -1.2675945676
| 24> *
| 25> 
| 26>                          ****END OF INPUT****
================================================================================

                       ****************************
                       * Single Point Calculation *
                       ****************************

---------------------------------
CARTESIAN COORDINATES (ANGSTROEM)
---------------------------------
  C     -1.440134    0.037693    0.621276
  C      0.066358    0.334646    0.510072
  C      0.818440   -0.884204   -0.043571
  O      2.215840   -0.742556   -0.004904
  O      0.283469    1.419275   -0.372073
  O     -2.006788   -0.284001   -0.625599
  H     -1.950742    0.911556    1.051331
  H     -1.609843   -0.821894    1.271197
  H      0.454277    0.569324    1.511428
  H      0.563099   -1.010578   -1.096824
  H      0.500458   -1.777640    0.508082
  H      2.504092   -0.633872    0.912527
  H      0.045504    2.250033    0.062022
  H     -1.707354    0.378737   -1.267595

----------------------------
CARTESIAN COORDINATES (A.U.)
----------------------------
  NO LB      ZA    FRAG     MASS         X           Y           Z
   0 C     6.0000    0    12.011   -2.721458    0.071230    1.174041
   1 C     6.0000    0    12.011    0.125399    0.632390    0.963897
   2 C     6.0000    0    12.011    1.546628   -1.670903   -0.082336
   3 O     8.0000    0    15.999    4.187330   -1.403227   -0.009267
   4 O     8.0000    0    15.999    0.535678    2.682042   -0.703116
   5 O     8.0000    0    15.999   -3.792280   -0.536684   -1.182211
   6 H     1.0000    0     1.008   -3.686368    1.722592    1.986729
   7 H     1.0000    0     1.008   -3.042163   -1.553154    2.402214
   8 H     1.0000    0     1.008    0.858459    1.075867    2.856185
   9 H     1.0000    0     1.008    1.064103   -1.909715   -2.072698
  10 H     1.0000    0     1.008    0.945728   -3.359253    0.960135
  11 H     1.0000    0     1.008    4.732048   -1.197844    1.724426
  12 H     1.0000    0     1.008    0.085989    4.251945    0.117205
  13 H     1.0000    0     1.008   -3.226432    0.715709   -2.395407

--------------------------------
INTERNAL COORDINATES (ANGSTROEM)
--------------------------------
 C      0   0   0     0.000000000000     0.00000000     0.00000000
 C      1   0   0     1.539501885070     0.00000000     0.00000000
 C      2   1   0     1.535494590859   110.62365624     0.00000000
 O      3   2   1     1.405092264403   113.40151235   187.90737070
 O      2   1   3     1.414827587892   110.06417765   119.23812296
 O      1   2   3     1.406869325235   111.97659921   300.12548918
 H      1   2   3     1.099684194135   109.22846534   178.08451021
 H      1   2   3     1.090911816231   110.31935771    58.63868168
 H      2   1   3     1.099212399370   108.70632359   240.38658319
 H      3   2   1     1.091106459001   108.98794483    70.44468358
 H      3   2   1     1.097115138112   108.85405802   311.84340668
 H      4   3   2     0.967771382302   109.48923437    61.14110857
 H      5   2   1     0.967069715928   109.93311954    75.27323949
 H      6   1   2     0.970072218696   107.81814241   312.47368011

---------------------------
INTERNAL COORDINATES (A.U.)
---------------------------
 C      0   0   0     0.000000000000     0.00000000     0.00000000
 C      1   0   0     2.909236945439     0.00000000     0.00000000
 C      2   1   0     2.901664256842   110.62365624     0.00000000
 O      3   2   1     2.655239572612   113.40151235   187.90737070
 O      2   1   3     2.673636667833   110.06417765   119.23812296
 O      1   2   3     2.658597730910   111.97659921   300.12548918
 H      1   2   3     2.078101960717   109.22846534   178.08451021
 H      1   2   3     2.061524568935   110.31935771    58.63868168
 H      2   1   3     2.077210397820   108.70632359   240.38658319
 H      3   2   1     2.061892390464   108.98794483    70.44468358
 H      3   2   1     2.073247148411   108.85405802   311.84340668
 H      4   3   2     1.828822872798   109.48923437    61.14110857
 H      5   2   1     1.827496915514   109.93311954    75.27323949
 H      6   1   2     1.833170823460   107.81814241   312.47368011

---------------------
BASIS SET INFORMATION
---------------------
There are 3 groups of distinct atoms

 Group   1 Type C   : 11s6p1d contracted to 5s3p1d pattern {62111/411/1}
 Group   2 Type O   : 11s6p2d contracted to 5s3p2d pattern {62111/411/11}
 Group   3 Type H   : 4s1p contracted to 2s1p pattern {31/1}

Atom   0C    basis set group =>   1
Atom   1C    basis set group =>   1
Atom   2C    basis set group =>   1
Atom   3O    basis set group =>   2
Atom   4O    basis set group =>   2
Atom   5O    basis set group =>   2
Atom   6H    basis set group =>   3
Atom   7H    basis set group =>   3
Atom   8H    basis set group =>   3
Atom   9H    basis set group =>   3
Atom  10H    basis set group =>   3
Atom  11H    basis set group =>   3
Atom  12H    basis set group =>   3
Atom  13H    basis set group =>   3
---------------------------------
AUXILIARY/J BASIS SET INFORMATION
---------------------------------
There are 3 groups of distinct atoms

 Group   1 Type C   : 12s5p4d2f1g contracted to 6s4p3d1f1g pattern {711111/2111/211/2/1}
 Group   2 Type O   : 12s5p4d2f1g contracted to 6s4p3d1f1g pattern {711111/2111/211/2/1}
 Group   3 Type H   : 5s2p1d contracted to 3s1p1d pattern {311/2/1}

Atom   0C    basis set group =>   1
Atom   1C    basis set group =>   1
Atom   2C    basis set group =>   1
Atom   3O    basis set group =>   2
Atom   4O    basis set group =>   2
Atom   5O    basis set group =>   2
Atom   6H    basis set group =>   3
Atom   7H    basis set group =>   3
Atom   8H    basis set group =>   3
Atom   9H    basis set group =>   3
Atom  10H    basis set group =>   3
Atom  11H    basis set group =>   3
Atom  12H    basis set group =>   3
Atom  13H    basis set group =>   3

Checking for AutoStart:
The File: sp_solv.gbw exists
Trying to determine its content:
     ... Fine, the file contains calculation information
     ... Fine, the calculation information was read
     ... Fine, the file contains a basis set
     ... Fine, the basis set was read
     ... Fine, the file contains a geometry
     ... Fine, the geometry was read
     ... Fine, the file contains a set of orbitals
     ... Fine, the orbitals can be read
     => possible old guess file was deleted
     => GBW file was renamed to GES file
     => GES file is set as startup file
     => Guess is set to MORead
     ... now leaving AutoStart

------------------------------------------------------------------------------
                             ORCA STARTUP CALCULATIONS
                           -- RI-GTO INTEGRALS CHOSEN --
------------------------------------------------------------------------------
------------------------------------------------------------------------------
                   ___                                                        
                  /   \      - P O W E R E D   B Y -                         
                 /     \                                                     
                 |  |  |   _    _      __       _____    __    __             
                 |  |  |  | |  | |    /  \     |  _  \  |  |  /  |          
                  \  \/   | |  | |   /    \    | | | |  |  | /  /          
                 / \  \   | |__| |  /  /\  \   | |_| |  |  |/  /          
                |  |  |   |  __  | /  /__\  \  |    /   |      \           
                |  |  |   | |  | | |   __   |  |    \   |  |\   \          
                \     /   | |  | | |  |  |  |  | |\  \  |  | \   \       
                 \___/    |_|  |_| |__|  |__|  |_| \__\ |__|  \__/        
                                                                              
                      - O R C A' S   B I G   F R I E N D -                    
                                      &                                       
                       - I N T E G R A L  F E E D E R -                       
                                                                              
 v1 FN, 2020, v2 2021, v3 2022-2024                                           
------------------------------------------------------------------------------


----------------------
SHARK INTEGRAL PACKAGE
----------------------

Number of atoms                             ...     14
Number of basis functions                   ...    169
Number of shells                            ...     81
Maximum angular momentum                    ...      2
Integral batch strategy                     ... SHARK/LIBINT Hybrid
RI-J (if used) integral strategy            ... SPLIT-RIJ (Revised 2003 algorithm where possible)
Printlevel                                  ...      1
Contraction scheme used                     ... SEGMENTED contraction
Prescreening option                         ... SCHWARTZ
   Thresh                                   ... 1.000e-10
   Tcut                                     ... 1.000e-11
   Tpresel                                  ... 1.000e-11 
Coulomb Range Separation                    ... NOT USED
Exchange Range Separation                   ... NOT USED
Multipole approximations                    ... NOT USED
Finite Nucleus Model                        ... NOT USED
CABS basis                                  ... NOT available
Auxiliary Coulomb fitting basis             ... AVAILABLE
   # of basis functions in Aux-J            ...    382
   # of shells in Aux-J                     ...    130
   Maximum angular momentum in Aux-J        ...      4
Auxiliary J/K fitting basis                 ... NOT available
Auxiliary Correlation fitting basis         ... NOT available
Auxiliary 'external' fitting basis          ... NOT available

Checking pre-screening integrals            ... done (  0.0 sec) Dimension = 81
Check shell pair data                       ... done (  0.0 sec)
Shell pair information
Shell pair cut-off parameter TPreSel        ...   1.0e-11
Total number of shell pairs                 ...      3321
Shell pairs after pre-screening             ...      3120
Total number of primitive shell pairs       ...     11632
Primitive shell pairs kept                  ...      8114
          la=0 lb=0:    987 shell pairs
          la=1 lb=0:   1127 shell pairs
          la=1 lb=1:    341 shell pairs
          la=2 lb=0:    393 shell pairs
          la=2 lb=1:    228 shell pairs
          la=2 lb=2:     44 shell pairs

Calculating one electron integrals          ... done (  0.0 sec)
Calculating RI/J V-Matrix + Cholesky decomp.... done (  0.1 sec)
Calculating Nuclear repulsion               ... done (  0.0 sec) ENN=    263.290968816312 Eh

Diagonalization of the overlap matrix:
Smallest eigenvalue                        ... 1.986e-04
Time for diagonalization                   ...    0.003 sec
Threshold for overlap eigenvalues          ... 1.000e-07
Number of eigenvalues below threshold      ... 0
Time for construction of square roots      ...    0.013 sec
Total time needed                          ...    0.031 sec

-------------------
DFT GRID GENERATION
-------------------

General Integration Accuracy     IntAcc      ... 4.388
Radial Grid Type                 RadialGrid  ... OptM3 with GC (2021)
Angular Grid (max. ang.)         AngularGrid ... 4 (Lebedev-302)
Angular grid pruning method      GridPruning ... 4 (adaptive)
Weight generation scheme         WeightScheme... mBecke (2022)
Basis function cutoff            BFCut       ... 1.0000e-10
Integration weight cutoff        WCut        ... 1.0000e-14
Partially contracted basis set               ... off
Rotationally invariant grid construction     ... off
Angular grids for H and He will be reduced by one unit
Diffuse basis detected: some atoms will have their outermost
                        angular grid increased by 1.

Total number of grid points                  ...    63018
Total number of batches                      ...      993
Average number of points per batch           ...       63
Average number of grid points per atom       ...     4501
Initializing property integral containers    ... done (  0.0 sec)

SHARK setup successfully completed in   0.9 seconds

Maximum memory used throughout the entire STARTUP-calculation: 27.8 MB
-------------------------------------------------------------------------------
                                 ORCA GUESS
                   Start orbitals & Density for SCF / CASSCF
-------------------------------------------------------------------------------

------------
SCF SETTINGS
------------
Hamiltonian:
 Density Functional     Method          .... DFT(GTOs)
  Functional kind                       .... Exchange
  Functional name                       .... Re-regularized SCAN exchange by Furness et al
  Functional family                     .... MGGA
  Functional refs                              
    [ 0] J. W. Furness, A. D. Kaplan, J. Ning, J. P. Perdew, and J. Sun.,  J. Phys. Chem. Lett. 11, 8208-8215 (2020), doi: 10.1021/acs.jpclett.0c02405
    [ 1] J. W. Furness, A. D. Kaplan, J. Ning, J. P. Perdew, and J. Sun.,  J. Phys. Chem. Lett. 11, 9248-9248 (2020), doi: 10.1021/acs.jpclett.0c03077
  Functional external parameters        .... 6
    Parameter  0 _c1        =  6.670000e-01 : c1 parameter        
    Parameter  1 _c2        =  8.000000e-01 : c2 parameter        
    Parameter  2 _d         =  1.240000e+00 : d parameter         
    Parameter  3 _k1        =  6.500000e-02 : k1 parameter        
    Parameter  4 _eta       =  1.000000e-03 : eta parameter       
    Parameter  5 _dp2       =  3.610000e-01 : dp2 parameter       
  Functional kind                       .... Correlation
  Functional name                       .... Re-regularized SCAN correlation by Furness et al
  Functional family                     .... MGGA
  Functional refs                              
    [ 0] J. W. Furness, A. D. Kaplan, J. Ning, J. P. Perdew, and J. Sun.,  J. Phys. Chem. Lett. 11, 8208-8215 (2020), doi: 10.1021/acs.jpclett.0c02405
    [ 1] J. W. Furness, A. D. Kaplan, J. Ning, J. P. Perdew, and J. Sun.,  J. Phys. Chem. Lett. 11, 9248-9248 (2020), doi: 10.1021/acs.jpclett.0c03077
  Functional external parameters        .... 1
    Parameter  0 _eta       =  1.000000e-03 : Regularization parameter
 Gradients option       PostSCFGGA      .... off
 RI-approximation to the Coulomb term is turned on
   Number of AuxJ basis functions       .... 382


General Settings:
 Integral files         IntName         .... sp_solv
 Hartree-Fock type      HFTyp           .... RHF
 Total Charge           Charge          ....    0
 Multiplicity           Mult            ....    1
 Number of Electrons    NEL             ....   50
 Basis Dimension        Dim             ....  169
 Nuclear Repulsion      ENuc            ....    263.2909688163 Eh

Convergence Acceleration:
 AO-DIIS                CNVDIIS         .... on
   Start iteration      DIISMaxIt       ....    12
   Startup error        DIISStart       ....  0.200000
   # of expansion vecs  DIISMaxEq       ....     5
   Bias factor          DIISBfac        ....   1.050
   Max. coefficient     DIISMaxC        ....  10.000
 MO-DIIS                CNVKDIIS        .... off
 Trust-Rad. Augm. Hess. CNVTRAH         .... auto
   Auto Start mean grad. ratio tolernc. ....  1.125000
   Auto Start start iteration           ....     1
   Auto Start num. interpolation iter.  ....    10
   Max. Number of Micro iterations      ....    24
   Max. Number of Macro iterations      .... Maxiter - #DIIS iter
   Number of Davidson start vectors     ....     2
   Converg. threshold    (grad. norm)   ....   3.330e-04
   Grad. Scal. Fac. for Micro threshold ....   0.100
   Minimum threshold for Micro iter.    ....   1.000e-02
   NR start threshold (gradient norm)   ....   1.000e-04
   Initial trust radius                 ....   0.400
   Minimum AH scaling param. (alpha)    ....   1.000
   Maximum AH scaling param. (alpha)    .... 1000.000
   Quad. conv. algorithm                .... NR
   White noise on init. David. guess    .... on
   Maximum white noise                  ....   0.010
   Pseudo random numbers                .... off
   Inactive MOs                         .... canonical
   Orbital update algorithm             .... Taylor
   Preconditioner                       .... Diag
   Full preconditioner red. dimension   ....   250
   COSX micro iterations for RIJONX calc.... off
 SOSCF                  CNVSOSCF        .... on
   Start iteration      SOSCFMaxIt      ....   150
   Startup grad/error   SOSCFStart      ....  0.003300
   Hessian update       SOSCFHessUp     .... L-BFGS
 Level Shifting         CNVShift        .... on
   Level shift para.    LevelShift      ....    0.2500
   Turn off err/grad.   ShiftErr        ....    0.0010
 Zerner damping         CNVZerner       .... off
 Static damping         CNVDamp         .... on
   Fraction old density DampFac         ....    0.7000
   Max. Damping (<1)    DampMax         ....    0.9800
   Min. Damping (>=0)   DampMin         ....    0.0000
   Turn off err/grad.   DampErr         ....    0.1000

SCF Procedure:
 Maximum # iterations   MaxIter         ....   125
 SCF integral mode      SCFMode         .... Direct
   Integral package                     .... SHARK and LIBINT hybrid scheme
 Reset frequency        DirectResetFreq ....    20
 Integral Threshold     Thresh          ....  1.000e-10 Eh
 Primitive CutOff       TCut            ....  1.000e-11 Eh

Convergence Tolerance:
 Convergence Check Mode ConvCheckMode   .... Total+1el-Energy
 Convergence forced     ConvForced      .... 0
 Energy Change          TolE            ....  1.000e-06 Eh
 1-El. energy change                    ....  1.000e-03 Eh
 Orbital Gradient       TolG            ....  3.330e-04
 Orbital Rotation angle TolX            ....  3.330e-04
 DIIS Error             TolErr          ....  1.000e-06

---------------------
INITIAL GUESS: MOREAD
---------------------
Guess MOs are being read from file: sp_solv.ges
Input Geometry matches current geometry (good)
Atom 0: N(Shells)= 9 and 6 - projection required
Input basis set needs projection
NBasis(read)= 100
NBasis(calc)= 169
Basis set overlap was calculated
Using GuessMode=FMatrix for the initial guess
C*T matrix was formed
Effective Fockian was calculated
Effective Fockian was diagonalized
Initial density was built
                      ------------------
                      INITIAL GUESS DONE (   0.0 sec)
                      ------------------
             **** ENERGY FILE WAS UPDATED (sp_solv.en.tmp) ****
Finished Guess after   0.3 sec
Maximum memory used throughout the entire GUESS-calculation: 11.4 MB

-------------------------------------------------------------------------------------------
                                      ORCA LEAN-SCF
                              memory conserving SCF solver
-------------------------------------------------------------------------------------------

--------------------
CPCM SOLVATION MODEL
--------------------
CPCM parameters:
  Epsilon                                         ...      78.3550
  Refrac                                          ...       1.3328
  Rsolv                                           ...       1.3000
  Surface type                                    ... GAUSSIAN VDW
  Discretization scheme                           ... Constant charge density
    Threshold for H atoms                         ...       5.0000 (charges/Ang^2)
    Threshold for non-H atoms                     ...       5.0000 (charges/Ang^2)
  Epsilon function type                           ...         CPCM
Solvent:                                          ... WATER
SMD-CDS solvent descriptors:
  Soln                                            ...       1.3328
  Soln25                                          ...       1.3323
  Sola                                            ...       0.0000
  Solb                                            ...       0.0000
  Solg                                            ...       0.0000
  Solc                                            ...       0.0000
  Solh                                            ...       0.0000
Radii:
  Scheme                                          ... Element-dependent radii
  Radius for C  used is    3.4960 Bohr (=   1.8500 Ang.)
  Radius for O  used is    2.8724 Bohr (=   1.5200 Ang.)
  Radius for H  used is    2.2677 Bohr (=   1.2000 Ang.)
Calculating surface                               ...        done! (  0.0s)
Cavity surface points                             ...         1033
Cavity Volume                                     ...     605.9093
Cavity Surface-area                               ...     429.5048
Calculating surface distance matrix               ...        done! (  0.0s)
Performing Cholesky decomposition & store         ...        done! (  0.1s)
Overall time for CPCM initialization              ...                 0.1s

----------------------------------------D-I-I-S--------------------------------------------
Iteration    Energy (Eh)           Delta-E    RMSDP     MaxDP     DIISErr   Damp  Time(sec)
-------------------------------------------------------------------------------------------
               ***  Starting incremental Fock matrix formation  ***
    1    -344.5400976056500895     0.00e+00  3.83e-03  7.07e-02  6.27e-01  0.700   2.2
    2    -344.6040935783835266    -6.40e-02  3.29e-03  5.99e-02  4.41e-01  0.700   2.1
    3    -344.6497100109509120    -4.56e-02  2.48e-03  4.61e-02  3.10e-01  0.700   2.0
    4    -344.6818852992309985    -3.22e-02  1.81e-03  3.37e-02  2.17e-01  0.700   2.0
                               ***Turning on AO-DIIS***
    5    -344.7045291603493524    -2.26e-02  1.33e-03  2.46e-02  1.52e-01  0.700   2.0
    6    -344.7204368531022283    -1.59e-02  9.51e-04  1.74e-02  1.06e-01  0.700   2.0
    7    -344.7316175124927895    -1.12e-02  6.74e-04  1.22e-02  7.42e-02  0.700   2.0
    8    -344.7394631421486793    -7.85e-03  1.59e-03  2.86e-02  5.20e-02  0.000   2.0
                              *** Initializing SOSCF ***
---------------------------------------S-O-S-C-F--------------------------------------
Iteration    Energy (Eh)           Delta-E    RMSDP     MaxDP     MaxGrad    Time(sec)
--------------------------------------------------------------------------------------
    9    -344.7578398053337878    -1.84e-02  1.97e-05  3.95e-04  1.55e-04     2.0
               *** Restarting incremental Fock matrix formation ***
   10    -344.7578401192292858    -3.14e-07  1.20e-05  2.47e-04  3.11e-05     2.2
                  *** Gradient check signals convergence ***

               *****************************************************
               *                     SUCCESS                       *
               *           SCF CONVERGED AFTER  10 CYCLES          *
               *****************************************************


SMD CDS free energy correction energy :                 3.05379     Kcal/mol
Total Energy after SMD CDS correction =              -344.752973588 Eh
             **** ENERGY FILE WAS UPDATED (sp_solv.en.tmp) ****

----------------
TOTAL SCF ENERGY
----------------

Total Energy       :       -344.75297358843380 Eh           -9381.20534 eV

Components:
Nuclear Repulsion  :        263.29096881631210 Eh            7164.51150 eV
Electronic Energy  :       -608.01263050624107 Eh          -16544.86480 eV
One Electron Energy:       -993.40197463835545 Eh          -27031.84200 eV
Two Electron Energy:        385.38934413211433 Eh           10486.97720 eV
CPCM Dielectric    :         -0.03617842930029 Eh              -0.98447 eV
SMD CDS (Gcds)     :          0.00486653079550 Eh               0.13243 eV

Virial components:
Potential Energy   :       -688.10036157774459 Eh          -18724.16276 eV
Kinetic Energy     :        343.34738798931079 Eh            9342.95741 eV
Virial Ratio       :          2.00409377105606

DFT components:
N(Alpha)           :       24.999991182083 electrons
N(Beta)            :       24.999991182083 electrons
N(Total)           :       49.999982364166 electrons
E(X)               :      -43.325879468837 Eh       
E(C)               :       -1.628659790903 Eh       
E(XC)              :      -44.954539259740 Eh       

CPCM Solvation Model Properties:
Surface-charge          :         -0.04044904812119
Corrected charge        :          0.00000000000000
Outlying charge corr.   :          0.00014527839832 Eh               0.00395 eV
Free-energy (cav+disp)  :          0.00486653079550 Eh               0.13243 eV

---------------
SCF CONVERGENCE
---------------

  Last Energy change         ...    3.1390e-07  Tolerance :   1.0000e-06
  Last MAX-Density change    ...    2.4705e-04  Tolerance :   1.0000e-05
  Last RMS-Density change    ...    1.1958e-05  Tolerance :   1.0000e-06
  Last DIIS Error            ...    1.5522e-04  Tolerance :   1.0000e-06
  Last Orbital Gradient      ...    3.1129e-05  Tolerance :   3.3300e-04
  Last Orbital Rotation      ...    1.0685e-04  Tolerance :   3.3300e-04


----------------
ORBITAL ENERGIES
----------------

  NO   OCC          E(Eh)            E(eV) 
   0   2.0000     -18.956764      -515.8398 
   1   2.0000     -18.954053      -515.7660 
   2   2.0000     -18.953027      -515.7381 
   3   2.0000     -10.080411      -274.3019 
   4   2.0000     -10.072043      -274.0742 
   5   2.0000     -10.070888      -274.0428 
   6   2.0000      -1.006169       -27.3793 
   7   2.0000      -0.989579       -26.9278 
   8   2.0000      -0.978471       -26.6255 
   9   2.0000      -0.720284       -19.5999 
  10   2.0000      -0.638911       -17.3857 
  11   2.0000      -0.570183       -15.5155 
  12   2.0000      -0.497958       -13.5501 
  13   2.0000      -0.480540       -13.0762 
  14   2.0000      -0.460616       -12.5340 
  15   2.0000      -0.413985       -11.2651 
  16   2.0000      -0.406306       -11.0562 
  17   2.0000      -0.388634       -10.5753 
  18   2.0000      -0.378299       -10.2940 
  19   2.0000      -0.330378        -8.9900 
  20   2.0000      -0.313394        -8.5279 
  21   2.0000      -0.295750        -8.0478 
  22   2.0000      -0.261049        -7.1035 
  23   2.0000      -0.248321        -6.7572 
  24   2.0000      -0.229230        -6.2377 
  25   0.0000       0.062155         1.6913 
  26   0.0000       0.076968         2.0944 
  27   0.0000       0.099764         2.7147 
  28   0.0000       0.116909         3.1812 
  29   0.0000       0.137165         3.7324 
  30   0.0000       0.143768         3.9121 
  31   0.0000       0.160693         4.3727 
  32   0.0000       0.166816         4.5393 
  33   0.0000       0.175087         4.7644 
  34   0.0000       0.195301         5.3144 
  35   0.0000       0.212465         5.7815 
*Only the first 10 virtual orbitals were printed.

                    ********************************
                    * MULLIKEN POPULATION ANALYSIS *
                    ********************************

-----------------------
MULLIKEN ATOMIC CHARGES
-----------------------
   0 C :   -0.181197
   1 C :    0.077468
   2 C :   -0.235997
   3 O :   -0.487668
   4 O :   -0.498928
   5 O :   -0.507362
   6 H :    0.148840
   7 H :    0.158148
   8 H :    0.158074
   9 H :    0.161463
  10 H :    0.153317
  11 H :    0.351585
  12 H :    0.351255
  13 H :    0.351003
Sum of atomic charges:   -0.0000000

--------------------------------
MULLIKEN REDUCED ORBITAL CHARGES
--------------------------------
  0 C s       :     3.289596  s :     3.289596
      pz      :     0.785354  p :     2.833691
      px      :     0.940785
      py      :     1.107552
      dz2     :     0.012897  d :     0.057910
      dxz     :     0.013323
      dyz     :     0.015126
      dx2y2   :     0.010130
      dxy     :     0.006435

  1 C s       :     3.121942  s :     3.121942
      pz      :     0.959268  p :     2.735204
      px      :     0.963897
      py      :     0.812039
      dz2     :     0.013509  d :     0.065386
      dxz     :     0.008567
      dyz     :     0.015302
      dx2y2   :     0.013668
      dxy     :     0.014341

  2 C s       :     3.356041  s :     3.356041
      pz      :     1.087516  p :     2.821777
      px      :     0.720342
      py      :     1.013919
      dz2     :     0.010035  d :     0.058179
      dxz     :     0.010034
      dyz     :     0.005792
      dx2y2   :     0.014781
      dxy     :     0.017538

  3 O s       :     3.747685  s :     3.747685
      pz      :     1.496206  p :     4.718606
      px      :     1.321233
      py      :     1.901167
      dz2     :     0.006707  d :     0.021377
      dxz     :     0.003211
      dyz     :     0.002427
      dx2y2   :     0.004388
      dxy     :     0.004645

  4 O s       :     3.757567  s :     3.757567
      pz      :     1.613024  p :     4.721475
      px      :     1.879868
      py      :     1.228583
      dz2     :     0.003289  d :     0.019886
      dxz     :     0.003846
      dyz     :     0.003797
      dx2y2   :     0.005348
      dxy     :     0.003605

  5 O s       :     3.758553  s :     3.758553
      pz      :     1.248292  p :     4.731011
      px      :     1.803052
      py      :     1.679666
      dz2     :     0.002526  d :     0.017798
      dxz     :     0.002143
      dyz     :     0.005906
      dx2y2   :     0.002988
      dxy     :     0.004234

  6 H s       :     0.834017  s :     0.834017
      pz      :     0.003873  p :     0.017144
      px      :     0.004858
      py      :     0.008412

  7 H s       :     0.824373  s :     0.824373
      pz      :     0.005678  p :     0.017479
      px      :     0.003418
      py      :     0.008383

  8 H s       :     0.824815  s :     0.824815
      pz      :     0.010157  p :     0.017111
      px      :     0.004189
      py      :     0.002766

  9 H s       :     0.820935  s :     0.820935
      pz      :     0.011154  p :     0.017602
      px      :     0.002871
      py      :     0.003576

 10 H s       :     0.829424  s :     0.829424
      pz      :     0.005279  p :     0.017260
      px      :     0.003061
      py      :     0.008920

 11 H s       :     0.605653  s :     0.605653
      pz      :     0.021684  p :     0.042762
      px      :     0.008915
      py      :     0.012163

 12 H s       :     0.605767  s :     0.605767
      pz      :     0.011503  p :     0.042978
      px      :     0.012511
      py      :     0.018964

 13 H s       :     0.606365  s :     0.606365
      pz      :     0.014201  p :     0.042632
      px      :     0.011935
      py      :     0.016495


------------------------
MULLIKEN OVERLAP CHARGES
------------------------
B(  0-C ,  1-C ) :   0.4853 B(  0-C ,  2-C ) :  -0.0638 B(  0-C ,  4-O ) :  -0.1190 
B(  0-C ,  5-O ) :   0.4431 B(  0-C ,  6-H ) :   0.8658 B(  0-C ,  7-H ) :   0.8101 
B(  0-C ,  8-H ) :  -0.0735 B(  0-C , 10-H ) :   0.0504 B(  0-C , 13-H ) :  -0.0854 
B(  1-C ,  2-C ) :   0.1936 B(  1-C ,  3-O ) :  -0.1181 B(  1-C ,  4-O ) :   0.3651 
B(  1-C ,  5-O ) :  -0.2345 B(  1-C ,  6-H ) :  -0.1297 B(  1-C ,  8-H ) :   0.7897 
B(  1-C , 10-H ) :  -0.1622 B(  1-C , 12-H ) :  -0.0635 B(  2-C ,  3-O ) :   0.4909 
B(  2-C ,  4-O ) :  -0.0955 B(  2-C ,  5-O ) :   0.0940 B(  2-C ,  9-H ) :   0.8215 
B(  2-C , 10-H ) :   0.8821 B(  2-C , 11-H ) :  -0.0812 B(  3-O ,  9-H ) :  -0.0981 
B(  3-O , 10-H ) :  -0.1023 B(  3-O , 11-H ) :   0.6328 B(  4-O ,  8-H ) :  -0.0960 
B(  4-O , 12-H ) :   0.6346 B(  5-O ,  6-H ) :  -0.1055 B(  5-O ,  7-H ) :  -0.0967 
B(  5-O , 13-H ) :   0.6232 B(  6-H ,  7-H ) :  -0.0543 B(  9-H , 10-H ) :  -0.0612 



                     *******************************
                     * LOEWDIN POPULATION ANALYSIS *
                     *******************************

----------------------
LOEWDIN ATOMIC CHARGES
----------------------
   0 C :    0.018505
   1 C :    0.073381
   2 C :    0.024943
   3 O :   -0.630871
   4 O :   -0.616602
   5 O :   -0.641761
   6 H :    0.170039
   7 H :    0.187582
   8 H :    0.184807
   9 H :    0.190799
  10 H :    0.175420
  11 H :    0.285760
  12 H :    0.291117
  13 H :    0.286879

-------------------------------
LOEWDIN REDUCED ORBITAL CHARGES
-------------------------------
  0 C s       :     2.872873  s :     2.872873
      pz      :     0.887509  p :     2.978553
      px      :     1.003770
      py      :     1.087273
      dz2     :     0.027685  d :     0.130069
      dxz     :     0.028568
      dyz     :     0.036416
      dx2y2   :     0.023704
      dxy     :     0.013695

  1 C s       :     2.847270  s :     2.847270
      pz      :     0.995468  p :     2.938775
      px      :     1.020948
      py      :     0.922359
      dz2     :     0.030971  d :     0.140575
      dxz     :     0.017271
      dyz     :     0.034117
      dx2y2   :     0.029375
      dxy     :     0.028840

  2 C s       :     2.871445  s :     2.871445
      pz      :     1.089999  p :     2.973304
      px      :     0.846369
      py      :     1.036936
      dz2     :     0.023718  d :     0.130307
      dxz     :     0.021823
      dyz     :     0.013399
      dx2y2   :     0.033032
      dxy     :     0.038335

  3 O s       :     3.511442  s :     3.511442
      pz      :     1.541623  p :     4.847954
      px      :     1.438817
      py      :     1.867514
      dz2     :     0.042613  d :     0.271475
      dxz     :     0.089194
      dyz     :     0.007911
      dx2y2   :     0.060596
      dxy     :     0.071160

  4 O s       :     3.504238  s :     3.504238
      pz      :     1.666668  p :     4.828686
      px      :     1.829832
      py      :     1.332186
      dz2     :     0.062759  d :     0.283678
      dxz     :     0.033711
      dyz     :     0.072394
      dx2y2   :     0.063311
      dxy     :     0.051504

  5 O s       :     3.511969  s :     3.511969
      pz      :     1.374890  p :     4.850533
      px      :     1.776648
      py      :     1.698995
      dz2     :     0.075576  d :     0.279259
      dxz     :     0.065947
      dyz     :     0.091556
      dx2y2   :     0.025621
      dxy     :     0.020559

  6 H s       :     0.789541  s :     0.789541
      pz      :     0.008611  p :     0.040420
      px      :     0.011909
      py      :     0.019900

  7 H s       :     0.771749  s :     0.771749
      pz      :     0.011699  p :     0.040669
      px      :     0.008355
      py      :     0.020615

  8 H s       :     0.773747  s :     0.773747
      pz      :     0.023495  p :     0.041446
      px      :     0.010530
      py      :     0.007420

  9 H s       :     0.769128  s :     0.769128
      pz      :     0.026883  p :     0.040074
      px      :     0.005702
      py      :     0.007488

 10 H s       :     0.783583  s :     0.783583
      pz      :     0.012568  p :     0.040997
      px      :     0.007042
      py      :     0.021387

 11 H s       :     0.591559  s :     0.591559
      pz      :     0.066375  p :     0.122681
      px      :     0.023990
      py      :     0.032317

 12 H s       :     0.586005  s :     0.586005
      pz      :     0.033777  p :     0.122878
      px      :     0.033676
      py      :     0.055424

 13 H s       :     0.590246  s :     0.590246
      pz      :     0.040213  p :     0.122876
      px      :     0.033489
      py      :     0.049173


---------------------------------
LOEWDIN BOND ORDERS (THRESH 0.050000)
---------------------------------
B(  0-C ,  1-C ) :   0.9464 B(  0-C ,  2-C ) :   0.0738 B(  0-C ,  4-O ) :   0.1587 
B(  0-C ,  5-O ) :   1.4516 B(  0-C ,  6-H ) :   0.8244 B(  0-C ,  7-H ) :   0.8179 
B(  1-C ,  2-C ) :   0.9407 B(  1-C ,  3-O ) :   0.1594 B(  1-C ,  4-O ) :   1.3937 
B(  1-C ,  5-O ) :   0.1522 B(  1-C ,  8-H ) :   0.7916 B(  2-C ,  3-O ) :   1.4643 
B(  2-C ,  4-O ) :   0.1611 B(  2-C ,  9-H ) :   0.8120 B(  2-C , 10-H ) :   0.8184 
B(  3-O ,  9-H ) :   0.0989 B(  3-O , 10-H ) :   0.1050 B(  3-O , 11-H ) :   0.9588 
B(  4-O ,  5-O ) :   0.0676 B(  4-O ,  8-H ) :   0.0943 B(  4-O , 12-H ) :   0.9523 
B(  5-O ,  6-H ) :   0.1061 B(  5-O ,  7-H ) :   0.0989 B(  5-O , 13-H ) :   0.9499 


------------------------------------------
LOEWDIN REDUCED ORBITAL POPULATIONS PER MO
-------------------------------------------
THRESHOLD FOR PRINTING IS 0.1%%
                      0         1         2         3         4         5   
                 -18.95676 -18.95405 -18.95303 -10.08041 -10.07204 -10.07089
                   2.00000   2.00000   2.00000   2.00000   2.00000   2.00000
                  --------  --------  --------  --------  --------  --------
 0 C  s               0.0       0.0       0.0       0.0       0.0      99.4
 1 C  s               0.0       0.0       0.0      99.3       0.0       0.0
 2 C  s               0.0       0.0       0.0       0.0      99.4       0.0
 3 O  s               0.0      99.9       0.0       0.0       0.0       0.0
 3 O  px              0.0       0.0       0.0       0.0       0.1       0.0
 3 O  dx2y2           0.0       0.0       0.0       0.0       0.2       0.0
 4 O  s              99.9       0.0       0.0       0.0       0.0       0.0
 4 O  dyz             0.0       0.0       0.0       0.2       0.0       0.0
 5 O  s               0.0       0.0      99.9       0.0       0.0       0.0
 5 O  dz2             0.0       0.0       0.0       0.0       0.0       0.1
 5 O  dxz             0.0       0.0       0.0       0.0       0.0       0.1

                      6         7         8         9        10        11   
                  -1.00617  -0.98958  -0.97847  -0.72028  -0.63891  -0.57018
                   2.00000   2.00000   2.00000   2.00000   2.00000   2.00000
                  --------  --------  --------  --------  --------  --------
 0 C  s               5.0       3.1       2.0       9.5      16.5       3.6
 0 C  pz              2.5       2.7       2.3       0.9       2.1       0.3
 0 C  px              0.3       0.7       1.6       4.2       0.2       4.4
 0 C  py              0.0       0.1       0.5       0.0       0.1       1.2
 0 C  dz2             0.1       0.2       0.2       0.1       0.0       0.0
 0 C  dxz             0.1       0.1       0.1       0.0       0.0       0.0
 1 C  s               8.3       0.0       2.0      18.5       0.0       8.9
 1 C  pz              2.3       0.0       1.1       0.3       2.2       0.5
 1 C  px              0.0       2.2       0.4       0.4       7.6       0.8
 1 C  py              1.4       0.3       4.7       5.0       1.4       1.1
 1 C  dyz             0.2       0.0       0.3       0.1       0.0       0.0
 1 C  dx2y2           0.1       0.0       0.2       0.0       0.2       0.0
 2 C  s               4.0       5.2       0.9      11.2      13.2       4.8
 2 C  pz              0.0       0.0       0.0       0.3       0.7       2.0
 2 C  px              0.7       6.8       1.9       4.1       0.4       0.5
 2 C  py              1.1       0.0       0.3       0.9       0.1       5.4
 2 C  dz2             0.1       0.1       0.0       0.0       0.0       0.0
 2 C  dx2y2           0.1       0.4       0.1       0.1       0.0       0.1
 3 O  s              11.0      39.0      11.4       2.4       2.2       0.1
 3 O  pz              0.2       0.6       0.2       0.4       2.1       4.0
 3 O  px              0.4       0.8       0.2       3.1       8.5       6.2
 3 O  py              0.0       0.0       0.0       0.0       0.2       1.3
 3 O  dz2             0.0       0.0       0.0       0.4       0.5       0.2
 3 O  dx2y2           0.1       0.1       0.0       0.7       0.9       0.2
 3 O  dxy             0.0       0.0       0.0       0.0       0.0       0.5
 4 O  s              29.5       0.1      31.2       4.0       0.0       1.2
 4 O  pz              1.1       0.0       0.9       0.8       0.2       1.7
 4 O  px              0.2       0.0       0.1       0.0       0.4       0.0
 4 O  py              0.2       0.0       0.0       6.3       0.5      14.2
 4 O  dz2             0.0       0.0       0.0       0.0       0.1       0.2
 4 O  dxz             0.0       0.0       0.0       0.1       0.2       0.0
 4 O  dyz             0.1       0.0       0.0       1.3       0.0       1.0
 4 O  dx2y2           0.1       0.0       0.0       0.4       0.2       0.0
 4 O  dxy             0.0       0.1       0.0       0.1       0.2       0.1
 5 O  s              16.3      22.4      22.3       2.7       1.9       0.2
 5 O  pz              0.2       0.1       0.1       2.8      10.2       9.7
 5 O  px              0.3       0.3       0.3       0.5       0.2       0.0
 5 O  py              0.4       0.4       0.4       0.1       0.1       0.8
 5 O  dz2             0.0       0.1       0.1       0.2       0.9       0.4
 5 O  dxz             0.1       0.0       0.0       0.6       0.5       0.0
 5 O  dyz             0.0       0.0       0.0       0.1       0.4       0.1
 5 O  dx2y2           0.0       0.0       0.0       0.2       0.0       0.0
 6 H  s               0.3       0.2       0.1       1.5       5.0       1.3
 6 H  px              0.0       0.0       0.0       0.0       0.1       0.0
 6 H  py              0.0       0.0       0.0       0.1       0.3       0.1
 7 H  s               0.3       0.2       0.1       2.0       4.9       2.7
 7 H  pz              0.0       0.0       0.0       0.1       0.1       0.1
 7 H  py              0.0       0.0       0.0       0.1       0.3       0.1
 8 H  s               0.6       0.0       0.1       3.3       0.1       4.1
 8 H  pz              0.0       0.0       0.0       0.2       0.0       0.3
 9 H  s               0.3       0.3       0.1       2.0       4.5       3.0
 9 H  pz              0.0       0.0       0.0       0.2       0.4       0.2
10 H  s               0.2       0.4       0.1       2.2       3.0       2.5
10 H  py              0.0       0.0       0.0       0.2       0.2       0.1
11 H  s               1.8       6.4       2.0       0.9       2.6       2.4
11 H  pz              0.3       1.3       0.4       0.2       0.4       0.2
11 H  px              0.1       0.2       0.1       0.0       0.0       0.0
12 H  s               4.8       0.0       5.3       2.1       0.1       3.4
12 H  pz              0.2       0.0       0.2       0.2       0.0       0.2
12 H  py              0.9       0.0       1.0       0.3       0.0       0.2
13 H  s               2.9       3.7       3.5       1.0       2.2       2.3
13 H  pz              0.3       0.4       0.4       0.1       0.1       0.0
13 H  py              0.2       0.4       0.4       0.1       0.2       0.2

                     12        13        14        15        16        17   
                  -0.49796  -0.48054  -0.46062  -0.41399  -0.40631  -0.38863
                   2.00000   2.00000   2.00000   2.00000   2.00000   2.00000
                  --------  --------  --------  --------  --------  --------
 0 C  s               0.2       0.8       0.3       0.3       1.2       0.3
 0 C  pz              1.8       2.8       0.4       3.8      18.8       3.8
 0 C  px              2.4       0.7       3.8      14.2       0.2       0.0
 0 C  py              0.0      13.3       1.7       7.2       5.8       2.4
 0 C  dxz             0.0       0.1       0.2       0.0       0.1       0.0
 0 C  dyz             0.0       0.0       0.0       0.0       0.2       0.0
 0 C  dx2y2           0.0       0.0       0.0       0.1       0.1       0.0
 0 C  dxy             0.0       0.0       0.0       0.1       0.0       0.1
 1 C  s               0.6       0.0       0.7       0.9       0.3       0.0
 1 C  pz             15.0       1.3       9.7       0.6       0.1       0.8
 1 C  px              0.1       4.0      10.7       4.5       0.8       0.4
 1 C  py              2.4       3.7       1.8       1.1       3.8       9.7
 1 C  dxz             0.1       0.0       0.0       0.0       0.2       0.0
 1 C  dyz             0.2       0.0       0.0       0.1       0.0       0.2
 1 C  dx2y2           0.0       0.1       0.0       0.0       0.0       0.1
 1 C  dxy             0.0       0.0       0.0       0.1       0.0       0.2
 2 C  s               0.7       0.3       0.5       0.8       0.1       0.4
 2 C  pz              7.3       3.6       1.3       5.3       1.2       3.0
 2 C  px              1.4       7.2       7.2       0.1       0.4       0.5
 2 C  py              2.6       0.1       3.5       2.0       6.0      16.4
 2 C  dx2y2           0.0       0.2       0.0       0.2       0.0       0.0
 3 O  s               0.5       0.7       0.1       2.5       0.1       0.5
 3 O  pz              4.8      13.9       2.8      12.9       0.9       1.4
 3 O  px              0.3       5.8       9.4       1.8       0.6       7.0
 3 O  py              0.3       0.6       0.5       0.3       4.0       8.2
 3 O  dxz             0.3       0.0       0.4       0.1       0.1       0.2
 3 O  dxy             0.2       0.0       0.4       0.1       0.4       0.6
 4 O  s               0.4       0.6       0.3       0.6       1.7       0.2
 4 O  pz              0.9       0.9       5.1       0.4       9.4       8.1
 4 O  px              0.4       1.8       3.6       1.7       5.1       0.1
 4 O  py             29.3       0.0       0.5       5.1       0.0       4.9
 4 O  dz2             0.1       0.0       0.6       0.0       0.1       0.6
 4 O  dxz             0.0       0.2       0.1       0.1       0.1       0.0
 4 O  dyz             0.1       0.0       0.2       0.0       0.0       0.0
 4 O  dx2y2           0.0       0.2       0.0       0.3       0.0       0.1
 4 O  dxy             0.0       0.1       0.6       0.1       0.1       0.0
 5 O  s               0.1       0.7       2.2       0.0       0.3       1.9
 5 O  pz              7.5       9.7       3.5       0.2      14.9       2.1
 5 O  px              0.1       0.0       5.0       6.7       1.8       4.7
 5 O  py              0.3       8.9       4.3       5.5       0.9      10.1
 5 O  dz2             0.0       0.0       0.1       0.3       0.8       0.0
 5 O  dxz             0.0       0.0       0.1       0.4       0.1       0.0
 5 O  dyz             0.1       0.2       0.0       0.3       0.6       0.1
 5 O  dx2y2           0.0       0.2       0.1       0.4       0.0       0.0
 5 O  dxy             0.0       0.2       0.1       0.0       0.1       0.1
 6 H  s               0.0       4.8       0.2      10.3       0.3       0.1
 6 H  pz              0.0       0.0       0.0       0.0       0.1       0.1
 6 H  px              0.0       0.2       0.0       0.0       0.0       0.0
 6 H  py              0.0       0.1       0.0       0.3       0.1       0.0
 7 H  s               0.0       0.2       0.2       0.0      12.4       2.0
 7 H  py              0.0       0.0       0.0       0.0       0.3       0.0
 8 H  s               4.1       0.2       8.0       0.2       0.2       0.5
 8 H  pz              0.1       0.0       0.4       0.0       0.0       0.0
 9 H  s               0.3       0.1       2.3       0.5       0.2       2.4
 9 H  pz              0.0       0.0       0.1       0.0       0.0       0.1
10 H  s               3.8       1.5       1.9       4.0       2.1       3.4
10 H  pz              0.0       0.0       0.1       0.0       0.0       0.1
10 H  py              0.2       0.1       0.0       0.1       0.0       0.0
11 H  s               0.9       4.6       2.4       1.1       0.0       0.0
11 H  pz              0.0       0.2       0.2       0.0       0.0       0.0
11 H  px              0.0       0.0       0.0       0.1       0.0       0.1
11 H  py              0.0       0.0       0.0       0.0       0.1       0.1
12 H  s               7.4       0.0       0.2       1.5       0.2       0.5
12 H  pz              0.2       0.0       0.0       0.0       0.1       0.2
12 H  py              0.2       0.0       0.0       0.0       0.0       0.0
13 H  s               1.7       4.1       1.9       0.3       1.9       0.2
13 H  pz              0.0       0.0       0.0       0.0       0.0       0.1
13 H  px              0.0       0.1       0.0       0.1       0.1       0.0
13 H  py              0.1       0.1       0.0       0.0       0.2       0.1

                     18        19        20        21        22        23   
                  -0.37830  -0.33038  -0.31339  -0.29575  -0.26105  -0.24832
                   2.00000   2.00000   2.00000   2.00000   2.00000   2.00000
                  --------  --------  --------  --------  --------  --------
 0 C  s               0.1       0.0       0.3       0.0       0.4       0.1
 0 C  pz              0.2       1.2       0.3       0.1       0.0       0.0
 0 C  px              4.6       0.4       0.9       1.1       1.1       0.6
 0 C  py              6.5       0.0       7.6       0.6       6.6       0.0
 0 C  dz2             0.0       0.1       0.4       0.0       0.0       0.0
 0 C  dxz             0.0       0.1       0.0       0.0       0.2       0.0
 0 C  dyz             0.1       0.0       0.3       0.1       0.7       0.0
 0 C  dx2y2           0.0       0.0       0.2       0.0       0.0       0.1
 1 C  s               0.2       0.2       0.7       0.3       0.2       1.1
 1 C  pz              0.5       5.1       0.0       6.8       0.9       2.4
 1 C  px              3.4       1.3       3.0       0.8       0.5       0.1
 1 C  py              0.3       0.3       2.7       2.1       0.0       4.1
 1 C  dz2             0.0       0.2       0.0       0.4       0.4       0.1
 1 C  dxz             0.0       0.0       0.0       0.0       0.2       0.1
 1 C  dyz             0.4       0.0       0.0       0.0       0.0       0.1
 1 C  dx2y2           0.0       0.0       0.0       0.4       0.1       0.0
 1 C  dxy             0.0       0.1       0.2       0.1       0.1       0.0
 2 C  s               0.9       0.7       0.0       0.2       0.0       0.2
 2 C  pz             13.4       1.3       1.3      11.3       1.5       0.2
 2 C  px              7.6       0.6       0.2       2.4       0.1       0.2
 2 C  py              1.9       3.5       0.3       0.7       0.2       4.4
 2 C  dz2             0.4       0.0       0.0       0.3       0.1       0.0
 2 C  dxz             0.0       0.3       0.1       0.5       0.0       0.0
 2 C  dyz             0.1       0.0       0.0       0.0       0.1       0.1
 2 C  dx2y2           0.2       0.0       0.0       0.1       0.0       0.1
 2 C  dxy             0.0       0.0       0.0       0.0       0.1       1.4
 3 O  s               0.3       1.8       0.3       2.4       0.1       0.0
 3 O  pz              0.6      13.3       1.6      15.2       0.5       1.3
 3 O  px             13.1       8.1       0.2       4.6       0.0       0.1
 3 O  py              5.7       5.1       0.1       1.7       2.6      52.8
 3 O  dz2             0.0       0.1       0.0       0.4       0.1       0.0
 3 O  dxz             0.9       0.4       0.1       1.4       0.1       0.1
 3 O  dyz             0.1       0.0       0.0       0.1       0.1       0.0
 3 O  dx2y2           0.2       0.1       0.0       0.0       0.1       0.0
 3 O  dxy             0.1       0.0       0.0       0.0       0.0       0.9
 4 O  s               1.0       2.8       0.5       0.9       0.0       0.1
 4 O  pz              2.7      15.1      15.2      13.3       3.8       3.0
 4 O  px              1.0      13.3       6.1       2.5      30.3       9.1
 4 O  py              3.6       0.2       0.0       0.0       0.3       1.3
 4 O  dz2             0.0       0.3       0.0       0.6       0.1       0.3
 4 O  dxz             0.0       0.1       0.4       0.0       0.2       0.0
 4 O  dyz             0.0       0.2       0.2       0.0       0.0       0.0
 4 O  dx2y2           0.2       0.3       0.0       0.1       0.1       0.8
 4 O  dxy             0.2       0.1       0.0       0.1       0.2       0.2
 5 O  s               0.0       0.5       3.4       0.1       0.4       0.0
 5 O  pz              1.8       2.0       0.0       0.1       2.7       0.0
 5 O  px              2.3       1.5      26.0       2.9       9.6       3.5
 5 O  py              1.5       6.9      12.2       4.0      18.2       0.7
 5 O  dz2             0.0       0.0       0.6       0.1       0.0       0.0
 5 O  dxz             0.2       0.0       0.0       0.0       0.1       0.1
 5 O  dyz             0.5       0.0       1.0       0.1       1.1       0.0
 5 O  dx2y2           0.0       0.0       0.0       0.0       0.0       0.1
 5 O  dxy             0.1       0.0       0.1       0.0       0.0       0.0
 6 H  s               3.3       0.1       1.3       0.0       5.4       0.0
 6 H  px              0.0       0.0       0.0       0.0       0.1       0.0
 7 H  s               2.5       0.3       6.2       0.8       3.6       0.1
 8 H  s               1.4       4.4       0.0       5.7       2.8       1.9
 9 H  s              11.4       1.0       0.9       7.8       1.2       0.0
 9 H  pz              0.3       0.0       0.0       0.0       0.0       0.0
10 H  s               0.9       2.4       0.0       2.8       1.2       6.1
10 H  px              0.1       0.0       0.0       0.0       0.0       0.0
10 H  py              0.0       0.0       0.0       0.1       0.0       0.0
11 H  s               0.8       1.2       0.3       1.9       0.1       0.0
11 H  px              0.1       0.3       0.0       0.2       0.0       0.0
11 H  py              0.1       0.0       0.0       0.0       0.0       1.0
12 H  s               1.0       1.4       0.1       0.9       0.0       0.4
12 H  pz              0.0       0.1       0.2       0.1       0.1       0.0
12 H  px              0.0       0.1       0.1       0.0       0.5       0.2
12 H  py              0.0       0.1       0.0       0.1       0.0       0.0
13 H  s               0.2       0.1       2.8       0.2       0.4       0.0
13 H  pz              0.0       0.1       0.2       0.0       0.1       0.0
13 H  px              0.0       0.0       0.1       0.1       0.1       0.1
13 H  py              0.0       0.0       0.0       0.0       0.3       0.0

                     24        25        26        27        28        29   
                  -0.22923   0.06215   0.07697   0.09976   0.11691   0.13716
                   2.00000   0.00000   0.00000   0.00000   0.00000   0.00000
                  --------  --------  --------  --------  --------  --------
 0 C  s               0.4       4.2       0.9       4.0       5.7       0.2
 0 C  pz              0.4      11.7       0.9      14.7       3.5       2.3
 0 C  px              8.7       1.9       3.0       2.6       2.0       2.0
 0 C  py              0.6       0.3       0.5       0.7       0.6      15.1
 0 C  dz2             0.1       0.7       0.2       0.9       0.0       0.1
 0 C  dxz             0.3       0.7       0.0       0.1       0.1       0.6
 0 C  dyz             0.2       0.2       0.0       0.0       0.0       0.6
 0 C  dx2y2           0.4       0.2       0.0       0.0       0.0       0.0
 0 C  dxy             0.1       0.0       0.1       0.0       0.8       0.0
 1 C  s               0.0       2.7       0.8       1.9       3.2       1.4
 1 C  pz              0.1       3.8       1.8       8.3       9.9       2.5
 1 C  px             10.1       0.6       4.5       0.9       1.5       1.6
 1 C  py              0.3       7.8       0.0       6.9      10.0       1.9
 1 C  dz2             0.1       0.0       0.1       0.5       0.2       0.0
 1 C  dxz             0.1       0.4       0.0       0.1       0.3       0.3
 1 C  dyz             0.0       0.8       0.1       0.4       0.7       0.9
 1 C  dx2y2           0.1       0.4       0.6       0.0       0.6       0.4
 1 C  dxy             0.4       0.0       0.1       0.0       0.3       0.0
 2 C  s               0.1       2.5       3.6       1.1       3.0       0.6
 2 C  pz              0.6       0.1       1.6       3.1       3.0       8.9
 2 C  px              0.3       0.7      23.4       2.7       3.6       0.9
 2 C  py              2.2       0.0       1.2       0.9       0.2       5.9
 2 C  dz2             0.0       0.2       0.6       0.3       0.0       1.0
 2 C  dxz             0.0       0.0       0.1       0.0       0.0       0.0
 2 C  dyz             0.1       0.1       0.1       0.5       0.0       0.0
 2 C  dx2y2           0.0       0.0       1.7       0.1       1.2       0.0
 2 C  dxy             0.2       0.0       0.1       0.0       0.0       0.0
 3 O  s               0.1       0.1      11.1       0.8       0.2       0.1
 3 O  pz              0.5       0.1       3.1       0.1       2.0       0.5
 3 O  px              1.5       0.3       2.7       0.3       3.0       0.3
 3 O  py             10.2       0.4       0.1       0.2       0.1       0.0
 3 O  dz2             0.0       0.0       2.3       0.4       4.7       0.7
 3 O  dxz             0.2       0.0       0.4       0.1       0.1       0.5
 3 O  dyz             0.0       0.0       0.0       0.5       0.2       0.4
 3 O  dx2y2           0.1       1.1       0.2       0.0       0.2       0.4
 3 O  dxy             0.3       0.1       0.0       0.1       0.0       0.1
 4 O  s               0.1       7.1       0.3       1.1       4.0       0.0
 4 O  pz              0.8       1.4       0.1       1.8       2.7       3.0
 4 O  px             15.7       1.1       0.6       0.2       0.1       0.3
 4 O  py              0.0       1.2       0.0       2.5       0.7       4.7
 4 O  dz2             0.0       0.0       0.6       0.0       0.4       0.2
 4 O  dxz             0.3       0.3       0.1       0.9       0.2       0.0
 4 O  dyz             0.0       0.9       0.2       2.6       1.2       5.5
 4 O  dx2y2           0.2       0.2       0.0       2.0       0.8       0.1
 4 O  dxy             0.3       0.0       0.4       0.2       0.3       1.0
 5 O  s               0.1       6.1       1.2       4.5       0.5       0.0
 5 O  pz              1.2       0.5       0.1       0.5       0.2       5.7
 5 O  px             23.2       1.7       0.1       0.8       0.1       0.0
 5 O  py              9.3       1.3       0.1       1.5       0.2       1.0
 5 O  dz2             0.1       0.2       0.0       1.7       1.6       0.0
 5 O  dxz             0.8       0.1       0.4       0.0       0.1       0.9
 5 O  dyz             0.1       1.2       0.2       0.0       0.1       1.3
 5 O  dx2y2           0.2       0.3       0.0       0.4       0.0       0.0
 5 O  dxy             0.0       0.1       0.8       0.1       1.2       0.1
 6 H  s               5.0       0.8       0.4       0.6       4.3       0.7
 6 H  pz              0.0       0.2       0.0       0.7       0.0       0.3
 6 H  px              0.0       0.1       0.3       0.1       0.7       0.0
 6 H  py              0.0       0.4       0.0       0.3       0.6       0.3
 7 H  s               0.0       1.8       0.2       0.7       0.9       2.4
 7 H  pz              0.0       0.1       0.1       0.6       0.0       0.1
 7 H  px              0.2       0.1       0.1       0.0       0.0       0.3
 7 H  py              0.0       0.7       0.0       0.1       0.5       0.7
 8 H  s               1.1       1.6       0.7       1.0       4.1       1.0
 8 H  pz              0.0       0.1       0.0       0.9       1.9       0.0
 8 H  px              0.1       0.4       0.2       0.1       0.2       0.3
 8 H  py              0.0       0.5       0.0       0.6       0.3       0.3
 9 H  s               0.1       0.5       0.4       1.6       0.9       4.6
 9 H  pz              0.0       0.0       0.2       0.7       0.1       1.4
 9 H  px              0.0       0.0       0.8       0.0       0.1       0.0
 9 H  py              0.0       0.0       0.0       0.2       0.0       0.0
10 H  s               0.6       1.8       1.0       0.7       0.7       1.0
10 H  pz              0.0       0.0       0.5       0.0       0.2       0.1
10 H  px              0.0       0.0       0.5       0.2       0.4       0.2
10 H  py              0.0       0.2       0.2       0.0       0.0       0.8
11 H  s               0.1       0.7      16.6       0.6       3.3       0.3
11 H  pz              0.0       0.1       3.6       0.2       0.9       0.0
11 H  px              0.0       0.0       0.7       0.0       0.0       0.0
11 H  py              0.2       0.0       0.0       0.0       0.0       0.0
12 H  s               0.1      11.0       0.5       7.2       3.1       2.7
12 H  pz              0.0       0.3       0.0       0.4       0.0       0.6
12 H  px              0.3       0.1       0.0       0.1       0.1       0.1
12 H  py              0.0       2.1       0.1       1.3       1.0       0.2
13 H  s               0.1       8.4       1.0       5.1       0.1       6.0
13 H  pz              0.0       1.2       0.2       1.3       0.0       0.5
13 H  px              0.5       0.1       0.0       0.0       0.0       0.1
13 H  py              0.1       1.0       0.2       0.4       0.0       0.7

                     30        31        32        33        34        35   
                   0.14377   0.16069   0.16682   0.17509   0.19530   0.21246
                   0.00000   0.00000   0.00000   0.00000   0.00000   0.00000
                  --------  --------  --------  --------  --------  --------
 0 C  s               2.7       3.8       4.5       1.6       1.8       1.6
 0 C  pz              1.8       6.4       7.0       1.1       8.3       5.8
 0 C  px              1.5       9.1      22.9       3.6       3.7       6.3
 0 C  py              7.0       4.5       7.2       7.2       0.1       1.5
 0 C  dz2             0.1       0.0       0.0       0.0       0.1       0.9
 0 C  dxz             0.3       0.0       0.2       0.4       0.0       0.0
 0 C  dyz             0.1       0.1       0.2       0.2       0.9       0.0
 0 C  dx2y2           0.1       0.2       0.8       0.7       1.6       0.4
 0 C  dxy             0.0       1.1       0.0       0.1       0.1       0.0
 1 C  s               0.2       0.2       8.5       0.9       0.9       1.5
 1 C  pz              2.1       0.7       0.8       3.3       1.7       6.5
 1 C  px              3.5       6.7       0.1       6.9       1.6       3.7
 1 C  py              2.2       2.9       1.7       0.8       0.3       1.4
 1 C  dz2             0.1       0.0       0.0       0.1       0.8       0.2
 1 C  dxz             0.2       0.0       0.0       0.6       0.1       0.0
 1 C  dyz             0.1       0.4       0.0       0.0       0.3       0.1
 1 C  dx2y2           0.1       0.2       0.0       0.0       0.1       0.6
 1 C  dxy             0.2       0.8       0.2       0.0       0.1       0.0
 2 C  s              11.6       3.7       0.4       1.9       2.0       1.5
 2 C  pz              2.3       2.8       3.0      19.8       3.6       5.2
 2 C  px              1.6       1.3       4.5       0.3       0.8       0.5
 2 C  py             16.5      13.2       8.9       2.4       8.3       1.1
 2 C  dz2             0.3       0.4       0.1       0.1       0.9       0.1
 2 C  dxz             0.0       0.0       0.1       0.3       0.0       0.1
 2 C  dyz             0.0       0.6       0.6       0.0       0.3       0.3
 2 C  dx2y2           0.1       0.0       0.4       0.1       0.0       0.5
 2 C  dxy             0.2       0.0       0.4       0.1       0.0       0.0
 3 O  s               0.1       0.5       0.5       0.2       0.4       0.2
 3 O  pz              2.1       0.1       0.3       0.6       0.4       1.0
 3 O  px              0.1       0.6       0.1       0.1       1.7       1.4
 3 O  py              0.2       0.1       2.1       0.2       0.9       0.4
 3 O  dz2             0.0       0.1       0.5       0.4       0.1       4.4
 3 O  dxz             0.4       0.1       0.0       2.4       0.5       0.7
 3 O  dyz             1.1       2.5       0.6       0.2       0.5       3.3
 3 O  dx2y2           0.5       2.7       0.6       0.7       1.6       0.3
 3 O  dxy             1.7       0.0       0.7       0.3       0.1       0.1
 4 O  s               0.2       0.2       0.2       0.3       0.2       0.1
 4 O  pz              0.3       0.9       0.2       0.0       1.4       0.3
 4 O  px              0.0       0.8       0.0       1.4       0.1       0.3
 4 O  py              0.2       2.3       0.0       0.0       0.8       2.8
 4 O  dz2             0.0       0.5       0.3       0.2       0.2       0.1
 4 O  dxz             0.9       0.6       0.0       0.0       1.5       4.5
 4 O  dyz             0.1       0.0       1.3       1.1       0.0       1.4
 4 O  dx2y2           0.0       0.1       1.1       0.7       2.3       4.7
 4 O  dxy             0.5       1.2       0.0       3.5       0.8       0.4
 5 O  s               0.2       0.2       0.2       0.2       0.1       0.2
 5 O  pz              1.1       0.9       0.2       1.3       3.7       3.8
 5 O  px              0.0       1.0       1.7       0.6       0.9       0.5
 5 O  py              0.6       0.7       0.2       1.3       0.4       1.0
 5 O  dz2             1.1       0.0       0.3       0.6       1.6       1.1
 5 O  dxz             0.7       3.6       0.8       1.0       2.2       0.4
 5 O  dyz             0.0       1.4       0.0       2.4       1.6       1.0
 5 O  dx2y2           0.9       0.2       1.3       3.5       1.2       0.8
 5 O  dxy             0.0       2.5       0.1       0.4       0.3       0.6
 6 H  s               0.0       1.9       3.5       3.2       1.8       0.1
 6 H  pz              0.0       0.0       0.9       0.0       0.4       0.2
 6 H  px              0.1       0.0       1.8       0.0       0.0       0.5
 6 H  py              0.1       0.1       0.4       2.0       1.8       0.0
 7 H  s               3.5       2.8       0.3       0.1       9.0       1.1
 7 H  pz              0.7       1.0       0.0       0.1       0.1       0.9
 7 H  px              0.0       1.0       0.4       0.6       0.0       0.2
 7 H  py              1.1       0.5       0.1       0.2       2.5       0.0
 8 H  s               2.2       0.1       0.5       3.0       1.4       1.6
 8 H  pz              0.4       0.0       0.4       0.6       0.4       0.4
 8 H  px              0.4       0.6       0.2       0.3       0.1       0.6
 8 H  py              0.1       0.1       0.2       0.1       0.0       0.2
 9 H  s               5.8       0.2       0.4       5.1       1.4       0.5
 9 H  pz              2.6       0.1       0.0       2.1       0.1       0.1
 9 H  px              0.0       0.0       0.2       0.3       0.1       0.0
 9 H  py              0.0       0.9       0.6       0.1       0.1       0.4
10 H  s               6.5       0.3       0.5       1.1       3.9       1.2
10 H  pz              1.4       0.3       0.5       0.1       0.1       0.8
10 H  px              0.3       0.1       0.6       0.1       0.1       0.1
10 H  py              1.5       0.6       0.1       0.4       1.9       0.0
11 H  s               3.9       0.3       0.1       1.3       0.3       1.3
[...]
 5 O  dxz             0.1       2.3       3.7       0.6       1.1       6.1
 5 O  dyz             0.0       0.1       0.0       0.0       3.2      18.2
 5 O  dx2y2           0.0       0.1       0.0       0.0       0.4       3.0
 5 O  dxy             0.1       2.2       2.0       0.3       0.5       3.6
 6 H  s               0.4       0.2       0.2       0.1       0.0       0.0
 6 H  px              0.1       0.1       0.4       0.0       0.0       0.0
 6 H  py              0.7       0.2       0.3       0.1       0.0       0.0
 7 H  s               0.0       0.3       0.1       0.0       0.0       0.1
 7 H  pz              0.1       0.0       0.2       0.0       0.0       0.0
 7 H  px              0.0       0.1       0.1       0.0       0.0       0.0
 7 H  py              0.1       0.5       0.2       0.1       0.0       0.1
 8 H  s               3.1       0.1       0.1       0.5       0.0       0.0
 8 H  pz              7.6       0.1       0.0       0.4       0.0       0.0
 8 H  px              0.5       0.1       0.2       0.1       0.0       0.0
 8 H  py              0.1       0.3       0.3       0.2       0.0       0.0
 9 H  s               7.6       0.1       0.0       0.1       0.0       0.1
 9 H  pz             15.8       0.2       0.0       0.2       0.1       0.1
 9 H  px              1.0       0.2       0.2       0.2       0.0       0.0
 9 H  py              0.8       0.0       0.0       0.0       0.0       0.0
10 H  s               3.8       0.2       0.1       0.5       0.0       0.0
10 H  pz              0.9       0.1       0.0       0.4       0.0       0.0
10 H  px              0.6       0.0       0.0       0.1       0.0       0.0
10 H  py              6.7       0.2       0.1       0.6       0.0       0.0
11 H  s               0.1       0.3       0.0       0.5       7.4       3.0
11 H  pz              0.0       0.5       0.1       0.6       8.0       3.3
11 H  px              0.1       0.0       0.0       0.3       0.8       0.3
12 H  s               0.0       0.1       0.3       0.4       4.5       0.0
12 H  pz              0.1       0.0       0.1       0.1       1.1       0.0
12 H  px              0.0       0.0       0.1       0.0       0.3       0.0
12 H  py              0.0       0.4       0.3       0.6       4.0       0.1
13 H  s               0.0       0.3       0.3       0.1       1.7      10.3
13 H  pz              0.1       0.3       0.4       0.0       0.9       5.7
13 H  px              0.1       0.0       0.0       0.0       0.2       1.1
13 H  py              0.0       0.2       0.1       0.0       1.0       5.9

                    162       163       164       165       166       167   
                   4.58805  22.03627  22.04516  22.13772  43.58904  43.60461
                   0.00000   0.00000   0.00000   0.00000   0.00000   0.00000
                  --------  --------  --------  --------  --------  --------
 0 C  s               0.0      61.2      36.8       1.5       0.0       0.0
 0 C  pz              0.1       0.0       0.0       0.0       0.0       0.0
 1 C  s               0.1       5.2       0.8      93.7       0.0       0.0
 1 C  pz              0.4       0.0       0.0       0.0       0.0       0.0
 1 C  py              0.5       0.0       0.0       0.0       0.0       0.0
 1 C  dyz             0.9       0.0       0.0       0.0       0.0       0.0
 1 C  dx2y2           0.2       0.0       0.0       0.0       0.0       0.0
 2 C  s               0.1      33.2      62.0       4.3       0.0       0.0
 2 C  pz              0.1       0.0       0.0       0.0       0.0       0.0
 2 C  px              0.2       0.0       0.0       0.0       0.0       0.0
 2 C  dz2             0.4       0.0       0.0       0.0       0.0       0.0
 2 C  dx2y2           0.2       0.0       0.0       0.0       0.0       0.0
 3 O  s               0.9       0.0       0.1       0.0      83.5       5.7
 3 O  pz              3.3       0.0       0.0       0.0       0.0       0.0
 3 O  px              1.7       0.0       0.0       0.0       0.0       0.0
 3 O  dz2             7.4       0.0       0.0       0.0       0.0       0.0
 3 O  dxz             1.6       0.0       0.0       0.0       0.0       0.0
 3 O  dyz             0.2       0.0       0.0       0.0       0.0       0.0
 3 O  dx2y2           0.2       0.0       0.0       0.0       0.0       0.0
 4 O  s               4.7       0.0       0.0       0.0      13.9       3.3
 4 O  pz              0.6       0.0       0.0       0.0       0.0       0.0
 4 O  px              0.3       0.0       0.0       0.0       0.0       0.0
 4 O  py             12.7       0.0       0.0       0.0       0.0       0.0
 4 O  dz2             0.7       0.0       0.0       0.0       0.0       0.0
 4 O  dxz             0.6       0.0       0.0       0.0       0.0       0.0
 4 O  dyz            16.8       0.0       0.0       0.0       0.0       0.0
 4 O  dx2y2           4.5       0.0       0.0       0.0       0.0       0.0
 4 O  dxy             3.7       0.0       0.0       0.0       0.0       0.0
 5 O  s               0.6       0.0       0.0       0.0       2.5      90.9
 5 O  pz              1.2       0.0       0.0       0.0       0.0       0.0
 5 O  py              0.5       0.0       0.0       0.0       0.0       0.0
 5 O  dxz             0.7       0.0       0.0       0.0       0.0       0.0
 5 O  dyz             2.4       0.0       0.0       0.0       0.0       0.0
 5 O  dx2y2           0.3       0.0       0.0       0.0       0.0       0.0
 5 O  dxy             0.4       0.0       0.0       0.0       0.0       0.0
11 H  s               3.1       0.0       0.0       0.0       0.0       0.0
11 H  pz              3.4       0.0       0.0       0.0       0.0       0.0
11 H  px              0.3       0.0       0.0       0.0       0.0       0.0
12 H  s               9.1       0.0       0.0       0.0       0.0       0.0
12 H  pz              2.2       0.0       0.0       0.0       0.0       0.0
12 H  px              0.7       0.0       0.0       0.0       0.0       0.0
12 H  py              7.9       0.0       0.0       0.0       0.0       0.0
13 H  s               1.3       0.0       0.0       0.0       0.0       0.0
13 H  pz              0.7       0.0       0.0       0.0       0.0       0.0
13 H  px              0.2       0.0       0.0       0.0       0.0       0.0
13 H  py              0.7       0.0       0.0       0.0       0.0       0.0

                    168   
                  43.73274
                   0.00000
                  --------
 3 O  s              10.7
 4 O  s              82.6
 5 O  s               6.6


                      *****************************
                      * MAYER POPULATION ANALYSIS *
                      *****************************

  NA   - Mulliken gross atomic population
  ZA   - Total nuclear charge
  QA   - Mulliken gross atomic charge
  VA   - Mayer's total valence
  BVA  - Mayer's bonded valence
  FA   - Mayer's free valence

  ATOM       NA         ZA         QA         VA         BVA        FA
  0 C      6.1812     6.0000    -0.1812     3.8256     3.8256     0.0000
  1 C      5.9225     6.0000     0.0775     3.5820     3.5820    -0.0000
  2 C      6.2360     6.0000    -0.2360     3.9150     3.9150    -0.0000
  3 O      8.4877     8.0000    -0.4877     1.8225     1.8225    -0.0000
  4 O      8.4989     8.0000    -0.4989     1.7909     1.7909    -0.0000
  5 O      8.5074     8.0000    -0.5074     1.7671     1.7671    -0.0000
  6 H      0.8512     1.0000     0.1488     0.9510     0.9510    -0.0000
  7 H      0.8419     1.0000     0.1581     0.9533     0.9533     0.0000
  8 H      0.8419     1.0000     0.1581     0.9532     0.9532    -0.0000
  9 H      0.8385     1.0000     0.1615     0.9491     0.9491    -0.0000
 10 H      0.8467     1.0000     0.1533     0.9503     0.9503    -0.0000
 11 H      0.6484     1.0000     0.3516     0.8793     0.8793    -0.0000
 12 H      0.6487     1.0000     0.3513     0.8833     0.8833    -0.0000
 13 H      0.6490     1.0000     0.3510     0.8866     0.8866    -0.0000

  Mayer bond orders larger than 0.100000
B(  0-C ,  1-C ) :   0.9513 B(  0-C ,  5-O ) :   0.9366 B(  0-C ,  6-H ) :   0.9617 
B(  0-C ,  7-H ) :   0.9614 B(  1-C ,  2-C ) :   0.9284 B(  1-C ,  4-O ) :   0.9024 
B(  1-C ,  8-H ) :   0.9293 B(  2-C ,  3-O ) :   0.9794 B(  2-C ,  9-H ) :   0.9693 
B(  2-C , 10-H ) :   0.9667 B(  3-O , 11-H ) :   0.8667 B(  4-O , 12-H ) :   0.8702 
B(  5-O , 13-H ) :   0.8539 

-------
TIMINGS
-------

Total SCF time: 0 days 0 hours 0 min 20 sec 

Total time                  ....      20.945 sec
Sum of individual times     ....      20.440 sec  ( 97.6%)

SCF preparation             ....       0.261 sec  (  1.2%)
Fock matrix formation       ....      19.240 sec  ( 91.9%)
  Startup                   ....       0.064 sec  (  0.3% of F)
  Split-RI-J                ....       2.628 sec  ( 13.7% of F)
  XC integration            ....      13.164 sec  ( 68.4% of F)
    Basis function eval.    ....       2.274 sec  ( 17.3% of XC)
    Density eval.           ....       3.714 sec  ( 28.2% of XC)
    XC-Functional eval.     ....       1.847 sec  ( 14.0% of XC)
    XC-Potential eval.      ....       4.492 sec  ( 34.1% of XC)
  CPCM terms                ....       2.802 sec  ( 14.6% of F)
Diagonalization             ....       0.000 sec  (  0.0%)
Density matrix formation    ....       0.269 sec  (  1.3%)
Total Energy calculation    ....       0.044 sec  (  0.2%)
Population analysis         ....       0.091 sec  (  0.4%)
Orbital Transformation      ....       0.047 sec  (  0.2%)
Orbital Orthonormalization  ....       0.000 sec  (  0.0%)
DIIS solution               ....       0.445 sec  (  2.1%)
  MO trafo                  ....       0.000 sec  (  0.0 % of DIIS)
  Orb grad                  ....       0.000 sec  (  0.0 % of DIIS)
  Energy W gradient         ....       0.000 sec  (  0.0 % of DIIS)
  DIIS error                ....       0.007 sec  (  1.5 % of DIIS)
  DIIS work                 ....       0.393 sec  ( 88.2 % of DIIS)
  Form Q                    ....       0.000 sec  (  0.0 % of DIIS)
  Form QpQm                 ....       0.000 sec  (  0.0 % of DIIS)
  Exp/Cayley                ....       0.000 sec  (  0.0 % of DIIS)
  Orb update                ....       0.000 sec  (  0.0 % of DIIS)
  Wake-sleep                ....       0.020 sec  (  4.6 % of DIIS)
SOSCF solution              ....       0.044 sec  (  0.2%)
  MO trafo                  ....       0.033 sec  ( 74.9 % of SOSCF)
  Orb grad                  ....       0.000 sec  (  1.1 % of SOSCF)
  Rot update                ....       0.000 sec  (  0.1 % of SOSCF)
  Step                      ....       0.010 sec  ( 23.8 % of SOSCF)
Finished LeanSCF after  21.0 sec

Maximum memory used throughout the entire LEANSCF-calculation: 17.8 MB


-------------------------------------------------------------------------------
                          DFT DISPERSION CORRECTION                            
                                                                               
                                DFTD4 V3.4.0                                   
-------------------------------------------------------------------------------
The R2SCAN3C composite method is recognized
Using three-body term ABC
Active option DFTDOPT                   ...         5   

-------------------------   ----------------
Dispersion correction           -0.003037864
-------------------------   ----------------

------------------   -----------------
gCP correction             0.010458597
------------------   -----------------

-------------------------   --------------------
FINAL SINGLE POINT ENERGY      -344.745552854618
-------------------------   --------------------


------------------------------------------------------------------------------
                              ORCA PROPERTY CALCULATIONS
------------------------------------------------------------------------------

GBWName                                 ... sp_solv.gbw
Number of atoms                         ...     14
Number of basis functions               ...    169
Max core memory                         ...   1024 MB

Electric properties:
Dipole moment                           ... YES
Quadrupole moment                       ...  NO
Static polarizability (Dipole/Dipole)   ...  NO
Static polarizability (Dipole/Quad.)    ...  NO
Static polarizability (Quad./Quad.)     ...  NO
Static polarizability (Velocity)        ...  NO

Atomic electric properties:
Dipole moment                           ...  NO
Quadrupole moment                       ...  NO
Static polarizability                   ...  NO

Choice of electric origin               ... Center of mass
Position of electric origin             ...    -0.000009    -0.000006     0.000018

General magnetic properties:
Magnetizability                         ...  NO

EPR properties:
g-Tensor (aka g-matrix)                 ...  NO
Zero-Field splitting spin-orbit         ...  NO
Zero-field splitting spin-spin          ...  NO
Hyperfine couplings                     ...  NO (   0 nuclei)
Quadrupole couplings                    ...  NO (   0 nuclei)
Contact density                         ...  NO (   0 nuclei)

NMR properties:
Chemical shifts                         ...  NO (   0 nuclei)
Spin-rotation constants                 ...  NO (   0 nuclei)
Spin-spin couplings                     ...  NO (   0 nuclei,    0 pairs)

Choice of magnetic origin               ... GIAO
Position of magnetic origin             ...     0.000000     0.000000     0.000000

Properties with geometric perturbations:
SCF Hessian                             ...  NO
IR spectrum                             ...  NO
VCD spectrum                            ...  NO
X-ray spectroscopy properties:
SCF XES/XAS/RIXS spectra                ...  NO


-------------
DIPOLE MOMENT
-------------

Method             : SCF
Type of density    : Electron Density
Multiplicity       :   1
Irrep              :   0
Energy             :  -344.7529735884338038 Eh
Relativity type    : 
Basis              : AO
                                X                 Y                 Z
Electronic contribution:      0.898730388       0.923541522      -1.123087253
Nuclear contribution   :     -1.118972271      -0.120196007       2.754756413
                        -----------------------------------------
Total Dipole Moment    :     -0.220241883       0.803345515       1.631669160
                        -----------------------------------------
Magnitude (a.u.)       :      1.831997476
Magnitude (Debye)      :      4.656567520



--------------------
Rotational spectrum 
--------------------
 
Rotational constants in cm-1:             0.197336             0.075536             0.065079 
Rotational constants in MHz :          5915.985272          2264.503670          1951.031474 

Dipole components along the rotational axes: 
x,y,z [a.u.] :     0.277422     0.695522     1.671975 
x,y,z [Debye]:     0.705152     1.767876     4.249823 

 

Dipole moment calculation done in   0.0 sec 

Maximum memory used throughout the entire PROP-calculation: 9.9 MB

--------------------------------
SUGGESTED CITATIONS FOR THIS RUN
--------------------------------

Below you find a list of papers that are relevant to this ORCA run
We neither can nor want to force you to cite these papers, but we appreciate if you do
You receive ORCA, which is the product of decades of hard work by many enthusiastic individuals, for free
The only thing we kindly ask in return is that you cite our papers,
We deeply appreciate it, if you show your appreciation for ORCA by not just citing the generic ORCA reference.

Please note that relegating all ORCA citations to the supporting information does *not* help us.
SI sections are not indexed - citations you put there will not count into any citation statistics
But we need these citations in order to attract the funding resources that allow us to do what we are doing

Therefore, if you are a happy ORCA user, please consider citing a few of the papers listed below in the main body of your paper

In addition to the list printed below, the program has created the file sp_solv.bibtex that contains the list in bibtex format
You can import this file easily into all common literature databanks and citation aid programs


List of essential papers. We consider these as the minimum necessary citations

  1. Neese,F.
     Software update: the ORCA program system, version 5.0
     WIRES Comput. Molec. Sci., 2022 12(1)e1606
     doi.org/10.1002/wcms.1606
  2. Grimme,S.; Hansen,A.; Ehlert,S.; Mewes,J.
     r2SCAN-3c: A 'Swiss army knife' composite electronic-structure method
     J. Chem. Phys., 2021 154 064103
     doi.org/10.1063/5.0040021

List of papers to cite with high priority. The work reported in these papers was absolutely
necessary for this run to complete.
Our perspective: the developers of density functionals and basis sets usually get cited in chemistry papers
Good! But without the algorithms to do something with them, the functionals or basis sets would not do anything.
Hence, in our opinion, the algorithm design and method developments papers are equally worthy of getting cited

  1. Neese,F.
     An improvement of the resolution of the identity approximation for the formation of the Coulomb matrix
     J. Comp. Chem., 2003 24(14)1740-1747
     doi.org/10.1002/jcc.10318
  2. Garcia-Rates,M.; Neese,F.
     Effect of the Solute Cavity on the Solvation Energy and its Derivatives within the Framework of the Gaussian Charge Scheme
     J. Comput. Chem., 2020 41 922-939
     doi.org/10.1002/jcc.26139
  3. Neese,F.
     The SHARK Integral Generation and Digestion System
     J. Comp. Chem., 2022  1-16
     doi.org/10.1002/jcc.26942
  4. Lehtola,S.; Steigemann,C.; Oliveira,M.; Marques,M.
     Recent developments in Libxc - A comprehensive library of functionals for density functional theory
     Software X, 2018 7 
     doi.org/10.1016/j.softx.2017.11.002
  5. Caldeweyher,E.; Bannwarth,C.; Grimme,S.
     Extension of the D3 dispersion coefficient model
     J. Chem. Phys., 2017 147 034112-XXXX
     doi.org/10.1063/1.4993215
  6. Caldeweyher,E.; Ehlert,S.; Hansen,A.; Neugebauer,H.; Spicher,S.; Bannwarth,C.; Grimme,S.
     A generally applicable atomic-charge dependent London dispersion correction
     J. Chem. Phys., 2019 150 154122-XXXX
     doi.org/10.1063/1.5090222
  7. Caldeweyher,E.; Mewes,J.; Ehlert,S.; Grimme,S.
     Extension and evaluation of the D4 London-dispersion model for periodic systems
     Phys. Chem. Chem. Phys., 2020 22(16)8499-8512
     doi.org/10.1039/D0CP00502A

List of suggested additional citations. These are papers that are important in the 'surrounding' of 
of this run, or papers that preceded the highly important papers. If you like your results we are grateful for a citation.

  1. Neese,F.
     The ORCA program system
     WIRES Comput. Molec. Sci., 2012 2(1)73-78
     doi.org/10.1002/wcms.81
  2. Neese,F.
     Software update: the ORCA program system, version 4.0
     WIRES Comput. Molec. Sci., 2018 8(1)1-6
     doi.org/10.1002/wcms.1327
  3. Neese,F.; Wennmohs,F.; Becker,U.; Riplinger,C.
     The ORCA quantum chemistry program package
     J. Chem. Phys., 2020 152 Art. No. L224108
     doi.org/10.1063/5.0004608

List of optional additional citations

  1. Neese,F.
     Approximate second-order SCF convergence for spin unrestricted wavefunctions
     Chem. Phys. Lett., 2000 325(1-3)93-98
     doi.org/10.1016/s0009-2614(00)00662-x

Timings for individual modules:

Sum of individual times          ...       22.461 sec (=   0.374 min)
Startup calculation              ...        0.981 sec (=   0.016 min)   4.4 %
SCF iterations                   ...       21.381 sec (=   0.356 min)  95.2 %
Property calculations            ...        0.098 sec (=   0.002 min)   0.4 %
                             ****ORCA TERMINATED NORMALLY****
TOTAL RUN TIME: 0 days 0 hours 0 minutes 23 seconds 238 msec
