      -----------------------------------------------------------      
     |                   =====================                   |     
     |                           x T B                           |     
     |                   =====================                   |     
     |                         S. Grimme                         |     
     |          Mulliken Center for Theoretical Chemistry        |     
     |                    University of Bonn                     |     
      -----------------------------------------------------------      

   * xtb version 6.7.1 (edcfbbe) compiled by 'albert@albert-system' on 2024-07-22

   xtb is free software: you can redistribute it and/or modify it under
   the terms of the GNU Lesser General Public License as published by
   the Free Software Foundation, either version 3 of the License, or
   (at your option) any later version.
   
   xtb is distributed in the hope that it will be useful,
   but WITHOUT ANY WARRANTY; without even the implied warranty of
   MERCHANTABILITY or FITNESS FOR A PARTICULAR PURPOSE.  See the
   GNU Lesser General Public License for more details.
   
   Cite this work as:
   * C. Bannwarth, E. Caldeweyher, S. Ehlert, A. Hansen, P. Pracht,
     J. Seibert, S. Spicher, S. Grimme, WIREs Comput. Mol. Sci., 2020, 11,
     e01493. DOI: 10.1002/wcms.1493
   
   for GFN2-xTB:
   * C. Bannwarth, S. Ehlert and S. Grimme., J. Chem. Theory Comput., 2019,
     15, 1652-1671. DOI: 10.1021/acs.jctc.8b01176
   for GFN1-xTB:
   * S. Grimme, C. Bannwarth, P. Shushkov, J. Chem. Theory Comput., 2017,
     13, 1989-2009. DOI: 10.1021/acs.jctc.7b00118
   for GFN0-xTB:
   * P. Pracht, E. Caldeweyher, S. Ehlert, S. Grimme, ChemRxiv, 2019, preprint.
     DOI: 10.26434/chemrxiv.8326202.v1
   for GFN-FF:
   * S. Spicher and S. Grimme, Angew. Chem. Int. Ed., 2020, 59, 15665-15673.
     DOI: 10.1002/anie.202004239
   
   for ALPB and GBSA implicit solvation:
   * S. Ehlert, M. Stahn, S. Spicher, S. Grimme, J. Chem. Theory Comput.,
     2021, 17, 4250-4261. DOI: 10.1021/acs.jctc.1c00471
   
   for ddCOSMO and CPCM-X implicit solvation:
   * M. Stahn, S. Ehlert, S. Grimme, J. Phys. Chem. A,
     2023, XX, XXXX-XXXX. DOI: 10.1021/acs.jpca.3c04382
   
   for DFT-D4:
   * E. Caldeweyher, C. Bannwarth and S. Grimme, J. Chem. Phys., 2017,
     147, 034112. DOI: 10.1063/1.4993215
   * E. Caldeweyher, S. Ehlert, A. Hansen, H. Neugebauer, S. Spicher,
     C. Bannwarth and S. Grimme, J. Chem. Phys., 2019, 150, 154122.
     DOI: 10.1063/1.5090222
   * E. Caldeweyher, J.-M. Mewes, S. Ehlert and S. Grimme, Phys. Chem. Chem. Phys.
     2020, 22, 8499-8512. DOI: 10.1039/D0CP00502A
   
   for sTDA-xTB:
   * S. Grimme and C. Bannwarth, J. Chem. Phys., 2016, 145, 054103.
     DOI: 10.1063/1.4959605
   
   in the mass-spec context:
   * V. Asgeirsson, C. Bauer and S. Grimme, Chem. Sci., 2017, 8, 4879.
     DOI: 10.1039/c7sc00601b
   * J. Koopman and S. Grimme, ACS Omega 2019, 4, 12, 15120-15133.
     DOI: 10.1021/acsomega.9b02011
   
   for metadynamics refer to:
   * S. Grimme, J. Chem. Theory Comput., 2019, 155, 2847-2862
     DOI: 10.1021/acs.jctc.9b00143
   
   for SPH calculations refer to:
   * S. Spicher and S. Grimme, J. Chem. Theory Comput., 2021, 17, 1701-1714
     DOI: 10.1021/acs.jctc.0c01306
   
   for ONIOM refer to:
   * C. Plett, A. Katbashev, S. Ehlert, S. Grimme, M. Bursch,
     Phys. Chem. Chem. Phys., 2023, 25, 17860-17868. DOI: 10.1039/D3CP02178E
   
   for DIPRO refer to:
   * J. Kohn, N. Gildemeister, S. Grimme, D. Fazzi, A. Hansen,
     J. Chem. Phys., 2023, just accepted.
   
   for PTB refer to:
   * S. Grimme, M. Mueller, A. Hansen, J. Chem. Phys., 2023, 158, 124111.
     DOI: 10.1063/5.0137838
   
   with help from (in alphabetical order)
   P. Atkinson, C. Bannwarth, F. Bohle, G. Brandenburg, E. Caldeweyher
   M. Checinski, S. Dohm, S. Ehlert, S. Ehrlich, I. Gerasimov, C. Hölzer
   A. Katbashev, J. Kohn, J. Koopman, C. Lavigne, S. Lehtola, F. März, M. Müller,
   F. Musil, H. Neugebauer, J. Pisarek, C. Plett, P. Pracht, F. Pultar,
   J. Seibert, P. Shushkov, S. Spicher, M. Stahn, M. Steiner, T. Strunk,
   J. Stückrath, T. Rose, and J. Unsleber
   
 * started run on 2025/04/11 at 11:44:21.521     
   ID    Z sym.   atoms
    1    6 C      1-4, 6-11
    2    1 H      5, 13-25
    3    8 O      12

           -------------------------------------------------
          |                Calculation Setup                |
           -------------------------------------------------

          program call               : /srv/scratch/z5358697/.xtb/bin/xtb solv.coord --gfn2 --sp --chrg 0 --norestart --parallel 1 --alpb water reference -I xtb_sp-xcontrol-inp
          hostname                   : k063
          coordinate file            : solv.coord
          omp threads                :                     1


           -------------------------------------------------
          |                 G F N 2 - x T B                 |
           -------------------------------------------------

        Reference                      10.1021/acs.jctc.8b01176
      * Hamiltonian:
        H0-scaling (s, p, d)           1.850000    2.230000    2.230000
        zeta-weighting                 0.500000
      * Dispersion:
        s8                             2.700000
        a1                             0.520000
        a2                             5.000000
        s9                             5.000000
      * Repulsion:
        kExp                           1.500000    1.000000
        rExp                           1.000000
      * Coulomb:
        alpha                          2.000000
        third order                    shell-resolved
        anisotropic                    true
        a3                             3.000000
        a5                             4.000000
        cn-shift                       1.200000
        cn-exp                         4.000000
        max-rad                        5.000000

      * Solvation model:               ALPB
        Solvent                        water
        Parameter file                 internal GFN2-xTB/ALPB
        Dielectric constant                8.0200E+01
        Reference state                gsolv=reference [X=1]
        Free energy shift                  2.8945E-03 Eh       1.8164E+00 kcal/mol
        Temperature                        2.9815E+02 K
        Density                            1.0000E+00 kg/L
        Solvent mass                       1.8000E+01 g/mol
        Interaction kernel             P16
        Born radius scaling (c1)           1.4744E+00
        Born radii integrator          GBOBC
        Born offset                        0.0000E+00 a0       0.0000E+00 AA
        H-bond correction              true
        Ion screening                  false
        Surface tension                    1.0000E-05 Eh       1.5569E+01 dyn/cm
        Grid points                               974 per atom

          ...................................................
          :                      SETUP                      :
          :.................................................:
          :  # basis functions                  58          :
          :  # atomic orbitals                  58          :
          :  # shells                           36          :
          :  # electrons                        60          :
          :  max. iterations                   250          :
          :  Hamiltonian                  GFN2-xTB          :
          :  restarted?                      false          :
          :  GBSA solvation                   true          :
          :  PC potential                    false          :
          :  electronic temp.          300.0000000     K    :
          :  accuracy                    1.0000000          :
          :  -> integral cutoff          0.2500000E+02      :
          :  -> integral neglect         0.1000000E-07      :
          :  -> SCF convergence          0.1000000E-05 Eh   :
          :  -> wf. convergence          0.1000000E-03 e    :
          :  Broyden damping             0.4000000          :
          :  net charge                          0          :
          :  unpaired electrons                  0          :
          ...................................................

 iter      E             dE          RMSdq      gap      omega  full diag
   1    -33.0092593 -0.330093E+02  0.405E+00    2.78       0.0  T
   2    -33.0619893 -0.527300E-01  0.214E+00    2.49       1.0  T
   3    -33.0600761  0.191322E-02  0.117E+00    2.81       1.0  T
   4    -33.0661829 -0.610676E-02  0.411E-01    2.64       1.0  T
   5    -33.0682918 -0.210895E-02  0.986E-02    2.59       1.0  T
   6    -33.0684114 -0.119570E-03  0.448E-02    2.59       1.0  T
   7    -33.0684153 -0.396553E-05  0.219E-02    2.59       1.0  T
   8    -33.0684181 -0.279127E-05  0.103E-02    2.59       1.9  T
   9    -33.0684195 -0.137986E-05  0.320E-03    2.59       6.2  T
  10    -33.0684195 -0.274904E-07  0.109E-03    2.59      18.3  T
  11    -33.0684195 -0.349208E-08  0.464E-04    2.59      43.1  T
  12    -33.0684195 -0.805180E-09  0.125E-04    2.59     159.8  T

   *** convergence criteria satisfied after 12 iterations ***

         #    Occupation            Energy/Eh            Energy/eV
      -------------------------------------------------------------
         1        2.0000           -0.7148852             -19.4530
       ...           ...                  ...                  ...
        24        2.0000           -0.4420193             -12.0280
        25        2.0000           -0.4283695             -11.6565
        26        2.0000           -0.4261795             -11.5969
        27        2.0000           -0.4161100             -11.3229
        28        2.0000           -0.4034695             -10.9790
        29        2.0000           -0.4013666             -10.9217
        30        2.0000           -0.3858915             -10.5006 (HOMO)
        31                         -0.2906747              -7.9097 (LUMO)
        32                         -0.1953144              -5.3148
        33                         -0.1709369              -4.6514
        34                          0.0595615               1.6207
        35                          0.0812750               2.2116
       ...                                ...                  ...
        58                          0.6465848              17.5945
      -------------------------------------------------------------
                  HL-Gap            0.0952168 Eh            2.5910 eV
             Fermi-level           -0.3382831 Eh           -9.2052 eV

 SCC (total)                   0 d,  0 h,  0 min,  0.036 sec
 SCC setup                      ...        0 min,  0.002 sec (  5.214%)
 Dispersion                     ...        0 min,  0.000 sec (  0.566%)
 classical contributions        ...        0 min,  0.000 sec (  0.143%)
 integral evaluation            ...        0 min,  0.003 sec (  7.879%)
 iterations                     ...        0 min,  0.022 sec ( 59.714%)
 molecular gradient             ...        0 min,  0.009 sec ( 25.907%)
 printout                       ...        0 min,  0.000 sec (  0.525%)

         :::::::::::::::::::::::::::::::::::::::::::::::::::::
         ::                     SUMMARY                     ::
         :::::::::::::::::::::::::::::::::::::::::::::::::::::
         :: total energy             -32.572468156198 Eh    ::
         :: total w/o Gsasa/hb       -32.574416379562 Eh    ::
         :: gradient norm              0.000146225664 Eh/a0 ::
         :: HOMO-LUMO gap              2.590980035760 eV    ::
         ::.................................................::
         :: SCC energy               -33.068338482448 Eh    ::
         :: -> isotropic ES            0.039707377086 Eh    ::
         :: -> anisotropic ES          0.003065981186 Eh    ::
         :: -> anisotropic XC          0.017561540236 Eh    ::
         :: -> dispersion             -0.020218371014 Eh    ::
         :: -> Gsolv                  -0.006709172182 Eh    ::
         ::    -> Gelec               -0.008657395546 Eh    ::
         ::    -> Gsasa                0.000831310229 Eh    ::
         ::    -> Ghb                 -0.001777636025 Eh    ::
         ::    -> Gshift               0.002894549160 Eh    ::
         :: repulsion energy           0.495870326250 Eh    ::
         :: add. restraining           0.000000000000 Eh    ::
         :: total charge              -0.000000000000 e     ::
         :::::::::::::::::::::::::::::::::::::::::::::::::::::

           -------------------------------------------------
          |                Property Printout                |
           -------------------------------------------------

    * Orbital Energies and Occupations

         #    Occupation            Energy/Eh            Energy/eV
      -------------------------------------------------------------
         1        2.0000           -0.7148852             -19.4530
       ...           ...                  ...                  ...
        18        2.0000           -0.4883194             -13.2878
        19        2.0000           -0.4806318             -13.0787
        20        2.0000           -0.4757742             -12.9465
        21        2.0000           -0.4724676             -12.8565
        22        2.0000           -0.4634708             -12.6117
        23        2.0000           -0.4608794             -12.5412
        24        2.0000           -0.4420193             -12.0280
        25        2.0000           -0.4283695             -11.6565
        26        2.0000           -0.4261795             -11.5969
        27        2.0000           -0.4161100             -11.3229
        28        2.0000           -0.4034695             -10.9790
        29        2.0000           -0.4013666             -10.9217
        30        2.0000           -0.3858915             -10.5006 (HOMO)
        31                         -0.2906747              -7.9097 (LUMO)
        32                         -0.1953144              -5.3148
        33                         -0.1709369              -4.6514
        34                          0.0595615               1.6207
        35                          0.0812750               2.2116
        36                          0.0868483               2.3633
        37                          0.1013004               2.7565
        38                          0.1128498               3.0708
        39                          0.1259810               3.4281
        40                          0.1356192               3.6904
        41                          0.1490781               4.0566
       ...                                ...                  ...
        58                          0.6465848              17.5945
      -------------------------------------------------------------
                  HL-Gap            0.0952168 Eh            2.5910 eV
             Fermi-level           -0.3382831 Eh           -9.2052 eV

     #   Z          covCN         q      C6AA      α(0)
     1   6 C        3.759    -0.123    22.913     6.824
     2   6 C        2.939     0.013    27.716     8.634
     3   6 C        2.843    -0.116    30.929     9.114
     4   6 C        3.863    -0.028    21.030     6.521
     5   1 H        0.924     0.048     2.346     2.395
     6   6 C        3.809    -0.062    21.681     6.628
     7   6 C        3.810    -0.069    21.806     6.647
     8   6 C        2.945    -0.021    28.530     8.761
     9   6 C        2.905    -0.003    28.101     8.692
    10   6 C        3.811    -0.067    21.777     6.642
    11   6 C        2.772     0.207    23.601     7.956
    12   8 O        0.856    -0.435    22.396     6.345
    13   1 H        0.925     0.054     2.270     2.356
    14   1 H        0.925     0.047     2.358     2.402
    15   1 H        0.925     0.055     2.264     2.353
    16   1 H        0.926     0.031     2.566     2.505
    17   1 H        0.926     0.033     2.543     2.494
    18   1 H        0.924     0.044     2.393     2.419
    19   1 H        0.924     0.046     2.376     2.410
    20   1 H        0.924     0.059     2.214     2.327
    21   1 H        0.924     0.052     2.290     2.367
    22   1 H        0.925     0.063     2.166     2.301
    23   1 H        0.924     0.071     2.078     2.254
    24   1 H        0.924     0.082     1.960     2.190
    25   1 H        0.922     0.019     2.751     2.594

 Mol. C6AA /au·bohr⁶  :       5716.922075
 Mol. C8AA /au·bohr⁸  :     131030.168498
 Mol. α(0) /au        :        116.132578


Wiberg/Mayer (AO) data.
largest (>0.10) Wiberg bond orders for each atom

 ---------------------------------------------------------------------------
     #   Z sym  total        # sym  WBO       # sym  WBO       # sym  WBO
 ---------------------------------------------------------------------------
     1   6 C    3.995 --     2 C    1.028    14 H    0.984    13 H    0.970
                            15 H    0.969
     2   6 C    3.987 --     3 C    1.930     1 C    1.028     4 C    0.994
     3   6 C    3.988 --     2 C    1.930    17 H    0.975    16 H    0.973
     4   6 C    3.994 --     2 C    0.994     6 C    0.986    10 C    0.982
                             5 H    0.967
     5   1 H    0.998 --     4 C    0.967
     6   6 C    3.996 --     7 C    1.006     4 C    0.986    18 H    0.977
                            19 H    0.975
     7   6 C    3.996 --     8 C    1.010     6 C    1.006    21 H    0.964
                            20 H    0.958
     8   6 C    3.985 --     9 C    1.726    11 C    1.107     7 C    1.010
     9   6 C    3.979 --     8 C    1.726    10 C    1.056    22 H    0.961
    10   6 C    3.995 --     9 C    1.056     4 C    0.982    23 H    0.951
                            24 H    0.930
    11   6 C    3.914 --    12 O    1.779     8 C    1.107    25 H    0.935
    12   8 O    2.010 --    11 C    1.779
    13   1 H    0.997 --     1 C    0.970
    14   1 H    0.997 --     1 C    0.984
    15   1 H    0.997 --     1 C    0.969
    16   1 H    0.999 --     3 C    0.973
    17   1 H    0.998 --     3 C    0.975
    18   1 H    0.998 --     6 C    0.977
    19   1 H    0.998 --     6 C    0.975
    20   1 H    0.997 --     7 C    0.958
    21   1 H    0.997 --     7 C    0.964
    22   1 H    0.996 --     9 C    0.961
    23   1 H    0.995 --    10 C    0.951
    24   1 H    0.993 --    10 C    0.930
    25   1 H    0.999 --    11 C    0.935
 ---------------------------------------------------------------------------

Topologies differ in total number of bonds
Writing topology from bond orders to xtbtopo.mol

molecular dipole:
                 x           y           z       tot (Debye)
 q only:        1.934      -0.452      -0.216
   full:        1.871      -0.542      -0.274       5.000
molecular quadrupole (traceless):
                xx          xy          yy          xz          yz          zz
 q only:      -15.584       8.522       7.781      -1.024       1.830       7.803
  q+dip:      -16.723      10.472       7.332       0.036       1.753       9.391
   full:      -17.098      10.310       7.594      -0.455       1.221       9.503


           -------------------------------------------------
          | TOTAL ENERGY              -32.572468156198 Eh   |
          | GRADIENT NORM               0.000146225664 Eh/α |
          | HOMO-LUMO GAP               2.590980035760 eV   |
           -------------------------------------------------

------------------------------------------------------------------------
 * finished run on 2025/04/11 at 11:44:21.611     
------------------------------------------------------------------------
 total:
 * wall-time:     0 d,  0 h,  0 min,  0.089 sec
 *  cpu-time:     0 d,  0 h,  0 min,  0.043 sec
 * ratio c/w:     0.483 speedup
 SCF:
 * wall-time:     0 d,  0 h,  0 min,  0.037 sec
 *  cpu-time:     0 d,  0 h,  0 min,  0.028 sec
 * ratio c/w:     0.763 speedup

