
                                 *****************
                                 * O   R   C   A *
                                 *****************

                                            #,                                       
                                            ###                                      
                                            ####                                     
                                            #####                                    
                                            ######                                   
                                           ########,                                 
                                     ,,################,,,,,                         
                               ,,#################################,,                 
                          ,,##########################################,,             
                       ,#########################################, ''#####,          
                    ,#############################################,,   '####,        
                  ,##################################################,,,,####,       
                ,###########''''           ''''###############################       
              ,#####''   ,,,,##########,,,,          '''####'''          '####       
            ,##' ,,,,###########################,,,                        '##       
           ' ,,###''''                  '''############,,,                           
         ,,##''                                '''############,,,,        ,,,,,,###''
      ,#''                                            '''#######################'''  
     '                                                          ''''####''''         
             ,#######,   #######,   ,#######,      ##                                
            ,#'     '#,  ##    ##  ,#'     '#,    #''#        ,####,   ,####,        
            ##       ##  ##   ,#'  ##            #'  '#       #'       #'  '#        
            ##       ##  #######   ##           ,######,      #####,   #    #        
            '#,     ,#'  ##    ##  '#,     ,#' ,#      #,     #,   #   #,  ,#        
             '#######'   ##     ##  '#######'  #'      '#     '####' # '####'        



                #########################################################
                #                        -***-                          #
                #          Department of theory and spectroscopy        #
                #                                                       #
                #                      Frank Neese                      #
                #                                                       #
                #     Directorship, Architecture, Infrastructure        #
                #                    SHARK, DRIVERS                     #
                #        Core code/Algorithms in most modules           #
                #                                                       #
                #        Max Planck Institute fuer Kohlenforschung      #
                #                Kaiser Wilhelm Platz 1                 #
                #                 D-45470 Muelheim/Ruhr                 #
                #                      Germany                          #
                #                                                       #
                #                  All rights reserved                  #
                #                        -***-                          #
                #########################################################


                         Program Version 6.0.0  -   RELEASE  -


 With contributions from (in alphabetic order):
   Daniel Aravena         : Magnetic Suceptibility
   Michael Atanasov       : Ab Initio Ligand Field Theory (pilot matlab implementation)
   Alexander A. Auer      : GIAO ZORA, VPT2 properties, NMR spectrum
   Ute Becker             : All parallelization in ORCA, NUMFREQ, NUMCALC
   Giovanni Bistoni       : ED, misc. LED, open-shell LED, HFLD
   Martin Brehm           : Molecular dynamics
   Dmytro Bykov           : pre 5.0 version of the SCF Hessian
   Marcos Casanova-Páez   : Triplet and SCS-CIS(D). UHF-(DLPNO)-IP/EA/STEOM-CCSD. UHF-CVS-IP/STEOM-CCSD
   Vijay G. Chilkuri      : MRCI spin determinant printing, contributions to CSF-ICE
   Pauline Colinet        : FMM embedding
   Dipayan Datta          : RHF DLPNO-CCSD density
   Achintya Kumar Dutta   : EOM-CC, STEOM-CC
   Nicolas Foglia         : Exact transition moments, OPA infrastructure, MCD improvements
   Dmitry Ganyushin       : Spin-Orbit,Spin-Spin,Magnetic field MRCI
   Miquel Garcia          : C-PCM and meta-GGA Hessian, CCSD/C-PCM, Gaussian charge scheme
   Tiago L. C. Gouveia    : GS-ROHF, GS-ROCIS
   Yang Guo               : DLPNO-NEVPT2, F12-NEVPT2, CIM, IAO-localization
   Andreas Hansen         : Spin unrestricted coupled pair/coupled cluster methods
   Ingolf Harden          : AUTO-CI MPn and infrastructure 
   Benjamin Helmich-Paris : MC-RPA, TRAH-(SCF,CASSCF), AVAS, COSX integrals, SCF dyn. polar.
   Lee Huntington         : MR-EOM, pCC
   Robert Izsak           : Overlap fitted RIJCOSX, COSX-SCS-MP3, EOM
   Riya Kayal             : Wick's Theorem for AUTO-CI, AUTO-CI UHF-CCSDT
   Emily Kempfer          : AUTO-CI, RHF CISDT and CCSDT
   Christian Kollmar      : KDIIS, OOCD, Brueckner-CCSD(T), CCSD density, CASPT2, CASPT2-K, improved NEVPT2
   Axel Koslowski         : Symmetry handling
   Simone Kossmann        : Meta GGA functionals, TD-DFT gradient, OOMP2, (MP2 Hessian; deprecated post 5.0)
   Lucas Lang             : DCDCAS
   Marvin Lechner         : AUTO-CI (C++ implementation), FIC-MRCC
   Spencer Leger          : CASSCF response
   Dagmar Lenk            : GEPOL surface, SMD, ORCA-2-JSON
   Dimitrios Liakos       : Extrapolation schemes; Compound Job, initial MDCI parallelization
   Dimitrios Manganas     : Further ROCIS development; embedding schemes. LFT, Crystal Embedding
   Dimitrios Pantazis     : SARC Basis sets
   Anastasios Papadopoulos: AUTO-CI, single reference methods and gradients
   Taras Petrenko         : pre 6.0 DFT Hessian and TD-DFT gradient, (ASA, deprecated), ECA, 1-Electron XAS/XES, NRVS
   Peter Pinski           : DLPNO-MP2, DLPNO-MP2 Gradient
   Christoph Reimann      : Effective Core Potentials
   Marius Retegan         : Local ZFS, SOC
   Christoph Riplinger    : Optimizer, TS searches, QM/MM, DLPNO-CCSD(T), (RO)-DLPNO pert. Triples
   Michael Roemelt        : Original ROCIS implementation
   Masaaki Saitow         : Open-shell DLPNO-CCSD energy and density
   Barbara Sandhoefer     : DKH picture change effects
   Kantharuban Sivalingam : CASSCF convergence/infrastructure, NEVPT2 and variants, FIC-MRCI
   Bernardo de Souza      : ESD, SOC TD-DFT
   Georgi Stoychev        : AutoAux, RI-MP2 NMR, DLPNO-MP2 response, X2C
   Van Anh Tran           : RI-MP2 g-tensors
   Willem Van den Heuvel  : Paramagnetic NMR
   Zikuan Wang            : NOTCH, Electric field optimization 
   Frank Wennmohs         : Technical directorship and infrastructure
   Hang Xu                : AUTO-CI-Response properties 


 We gratefully acknowledge several colleagues who have allowed us to
 interface, adapt or use parts of their codes:
   Stefan Grimme, W. Hujo, H. Kruse, P. Pracht,  : VdW corrections, initial TS optimization,
                  C. Bannwarth, S. Ehlert,         DFT functionals, gCP, sTDA/sTD-DF
                  L. Wittmann, M. Mueller
   Ed Valeev, F. Pavosevic, A. Kumar             : LibInt (2-el integral package), F12 methods
   Garnet Chan, S. Sharma, J. Yang, R. Olivares  : DMRG
   Ulf Ekstrom                                   : XCFun DFT Library
   Mihaly Kallay                                 : mrcc  (arbitrary order and MRCC methods)
   Frank Weinhold                                : gennbo (NPA and NBO analysis)
   Simon Mueller                                 : openCOSMO-RS
   Christopher J. Cramer and Donald G. Truhlar   : smd solvation model
   Lars Goerigk                                  : TD-DFT with DH, B97 family of functionals
   V. Asgeirsson, H. Jonsson                     : NEB implementation
   FAccTs GmbH                                   : IRC, NEB, NEB-TS, DLPNO-Multilevel, CI-OPT
                                                   MM, QMMM, 2- and 3-layer-ONIOM, Crystal-QMMM,
                                                   LR-CPCM, SF, NACMEs, symmetry and pop. for TD-DFT,
                                                   nearIR, NL-DFT gradient (VV10), updates on ESD,
                                                   ML-optimized integration grids, MBIS, APM,
                                                   GOAT, DOCKER, SOLVATOR, interface openCOSMO-RS
   S Lehtola, MJT Oliveira, MAL Marques          : LibXC Library
   Liviu Ungur et al                             : ANISO software


 Your calculation uses the libint2 library for the computation of 2-el integrals
 For citations please refer to: http://libint.valeyev.net

 Your ORCA version has been built with support for libXC version: 6.2.2
 For citations please refer to: https://libxc.gitlab.io

 This ORCA versions uses:
   CBLAS   interface :  Fast vector & matrix operations
   LAPACKE interface :  Fast linear algebra routines
   SCALAPACK package :  Parallel linear algebra routines
   Shared memory     :  Shared parallel matrices
   BLAS/LAPACK       :  OpenBLAS 0.3.27  USE64BITINT DYNAMIC_ARCH NO_AFFINITY SkylakeX SINGLE_THREADED
        Core in use  :  SkylakeX
   Copyright (c) 2011-2014, The OpenBLAS Project


Your calculation utilizes the geometrical counterpoise correction gCP
Please cite in your paper:
H.Kruse, S. Grimme J.Chem.Phys., 136, (2012), 154101 
   

Your calculation utilizes the atom-pairwise dispersion correction
based on EEQ partial charges (D4)


================================================================================

----- Orbital basis set information -----
Your calculation utilizes the basis: def2-mTZVPP
   Stefan Grimme, Andreas Hansen, Sebastian Ehlert, and Jan-Michael Mewes 
   J. Chem. Phys. 154, 064103 (2021). DOI: 10.1063/5.0040021

----- AuxJ basis set information -----
Your calculation utilizes the auxiliary basis: def2/J
   F. Weigend, Phys. Chem. Chem. Phys. 8, 1057 (2006).

================================================================================
                                        WARNINGS
                       Please study these warnings very carefully!
================================================================================

Using LibXC functional ID 497 : Re-regularized SCAN exchange by Furness et al
[ 1]  J. W. Furness, A. D. Kaplan, J. Ning, J. P. Perdew, and J. Sun.,  J. Phys. Chem. Lett. 11, 8208-8215 (2020)
[ 2]  J. W. Furness, A. D. Kaplan, J. Ning, J. P. Perdew, and J. Sun.,  J. Phys. Chem. Lett. 11, 9248-9248 (2020)
Using LibXC functional ID 498 : Re-regularized SCAN correlation by Furness et al
[ 1]  J. W. Furness, A. D. Kaplan, J. Ning, J. P. Perdew, and J. Sun.,  J. Phys. Chem. Lett. 11, 8208-8215 (2020)
[ 2]  J. W. Furness, A. D. Kaplan, J. Ning, J. P. Perdew, and J. Sun.,  J. Phys. Chem. Lett. 11, 9248-9248 (2020)
Using LibXC functional ID 497 : Re-regularized SCAN exchange by Furness et al
[ 1]  J. W. Furness, A. D. Kaplan, J. Ning, J. P. Perdew, and J. Sun.,  J. Phys. Chem. Lett. 11, 8208-8215 (2020)
[ 2]  J. W. Furness, A. D. Kaplan, J. Ning, J. P. Perdew, and J. Sun.,  J. Phys. Chem. Lett. 11, 9248-9248 (2020)
Using LibXC functional ID 498 : Re-regularized SCAN correlation by Furness et al
[ 1]  J. W. Furness, A. D. Kaplan, J. Ning, J. P. Perdew, and J. Sun.,  J. Phys. Chem. Lett. 11, 8208-8215 (2020)
[ 2]  J. W. Furness, A. D. Kaplan, J. Ning, J. P. Perdew, and J. Sun.,  J. Phys. Chem. Lett. 11, 9248-9248 (2020)

================================================================================
                                       INPUT FILE
================================================================================
NAME = sp_gas.inp
|  1> ! r2scan-3c def2/J RI DEFGRID2 scfconv6 printgap
|  2> %output
|  3>     printlevel normal
|  4> end
|  5> * xyz 0 1
|  6> C 1.4833429573 0.1548363425 -1.1744000331
|  7> C 1.1160530159 -0.2329381749 0.2537919794
|  8> H 0.9954067843 -1.3257593318 0.3082973705
|  9> C -0.1474006563 0.4538913739 0.7946939054
| 10> C -1.5047738557 0.0949852587 0.1640812147
| 11> C -1.7794591491 0.8307654938 -1.1465086593
| 12> C -1.6867179528 -1.4107956158 -0.0165243062
| 13> O 2.2339099878 0.132884083 1.0589404791
| 14> H 0.8381143778 -0.3426770934 -1.889769708
| 15> H 1.4138611936 1.23119985 -1.3030179525
| 16> H 2.5110482419 -0.1482451956 -1.3605506269
| 17> H -0.2077853929 0.2039081961 1.858764127
| 18> H 0.0030143987 1.5339346085 0.7243903686
| 19> H -2.2609599656 0.436111102 0.8823999802
| 20> H -1.622871025 1.8998189979 -1.0252123035
| 21> H -2.8124053876 0.6698760935 -1.4477299727
| 22> H -1.1369667495 0.476855276 -1.9457633014
| 23> H -1.0263920435 -1.7919695117 -0.7911516698
| 24> H -1.4774388518 -1.9383676192 0.9110943824
| 25> H -2.7113847859 -1.6276885205 -0.309121323
| 26> H 2.0517159866 -0.0844181498 1.9826201713
| 27> *
| 28> 
| 29>                          ****END OF INPUT****
================================================================================

                       ****************************
                       * Single Point Calculation *
                       ****************************

---------------------------------
CARTESIAN COORDINATES (ANGSTROEM)
---------------------------------
  C      1.483343    0.154836   -1.174400
  C      1.116053   -0.232938    0.253792
  H      0.995407   -1.325759    0.308297
  C     -0.147401    0.453891    0.794694
  C     -1.504774    0.094985    0.164081
  C     -1.779459    0.830765   -1.146509
  C     -1.686718   -1.410796   -0.016524
  O      2.233910    0.132884    1.058940
  H      0.838114   -0.342677   -1.889770
  H      1.413861    1.231200   -1.303018
  H      2.511048   -0.148245   -1.360551
  H     -0.207785    0.203908    1.858764
  H      0.003014    1.533935    0.724390
  H     -2.260960    0.436111    0.882400
  H     -1.622871    1.899819   -1.025212
  H     -2.812405    0.669876   -1.447730
  H     -1.136967    0.476855   -1.945763
  H     -1.026392   -1.791970   -0.791152
  H     -1.477439   -1.938368    0.911094
  H     -2.711385   -1.627689   -0.309121
  H      2.051716   -0.084418    1.982620

----------------------------
CARTESIAN COORDINATES (A.U.)
----------------------------
  NO LB      ZA    FRAG     MASS         X           Y           Z
   0 C     6.0000    0    12.011    2.803112    0.292598   -2.219294
   1 C     6.0000    0    12.011    2.109035   -0.440189    0.479597
   2 H     1.0000    0     1.008    1.881046   -2.505322    0.582598
   3 C     6.0000    0    12.011   -0.278547    0.857730    1.501754
   4 C     6.0000    0    12.011   -2.843610    0.179496    0.310069
   5 C     6.0000    0    12.011   -3.362690    1.569919   -2.166587
   6 C     6.0000    0    12.011   -3.187435   -2.666017   -0.031226
   7 O     8.0000    0    15.999    4.221478    0.251115    2.001107
   8 H     1.0000    0     1.008    1.583807   -0.647566   -3.571147
   9 H     1.0000    0     1.008    2.671810    2.326631   -2.462347
  10 H     1.0000    0     1.008    4.745193   -0.280143   -2.571068
  11 H     1.0000    0     1.008   -0.392657    0.385331    3.512555
  12 H     1.0000    0     1.008    0.005696    2.898716    1.368899
  13 H     1.0000    0     1.008   -4.272595    0.824131    1.667494
  14 H     1.0000    0     1.008   -3.066782    3.590138   -1.937370
  15 H     1.0000    0     1.008   -5.314676    1.265882   -2.735813
  16 H     1.0000    0     1.008   -2.148556    0.901126   -3.676960
  17 H     1.0000    0     1.008   -1.939600   -3.386332   -1.495060
  18 H     1.0000    0     1.008   -2.791955   -3.662984    1.721719
  19 H     1.0000    0     1.008   -5.123775   -3.075886   -0.584155
  20 H     1.0000    0     1.008    3.877181   -0.159527    3.746609

--------------------------------
INTERNAL COORDINATES (ANGSTROEM)
--------------------------------
 C      0   0   0     0.000000000000     0.00000000     0.00000000
 C      1   0   0     1.524796183746     0.00000000     0.00000000
 H      2   1   0     1.100810806554   108.98030464     0.00000000
 C      2   1   3     1.536432525187   114.46532095   236.82994293
 C      4   2   1     1.539138709684   118.47227928    67.24636294
 C      5   4   2     1.527897373061   113.43445765   279.16506916
 C      5   4   2     1.527448215377   112.54276042    45.69050954
 O      2   1   3     1.425375122755   105.95613785   116.25370113
 H      1   2   3     1.084247808608   110.97408978    46.79474251
 H      1   2   3     1.086245223214   110.33419696   168.71036119
 H      1   2   3     1.087514880038   108.48653771   287.37070224
 H      4   2   1     1.094706966312   106.58732643   188.13131291
 H      4   2   1     1.092730829007   107.81798642   302.96412546
 H      5   4   2     1.097345033543   105.48792854   162.69545470
 H      6   5   4     1.087247920747   110.60463246   309.12801904
 H      6   5   4     1.087932723291   109.69257025   189.80241924
 H      6   5   4     1.084830359423   111.61642465    70.06119472
 H      7   5   4     1.086909102845   110.95425742   290.29064516
 H      7   5   4     1.087477076690   110.76096529    51.12965555
 H      7   5   4     1.087473064128   109.91758956   170.77436660
 H      8   2   1     0.966229314519   109.53560140   179.48295411

---------------------------
INTERNAL COORDINATES (A.U.)
---------------------------
 C      0   0   0     0.000000000000     0.00000000     0.00000000
 C      1   0   0     2.881447197329     0.00000000     0.00000000
 H      2   1   0     2.080230949648   108.98030464     0.00000000
 C      2   1   3     2.903436695852   114.46532095   236.82994293
 C      4   2   1     2.908550643421   118.47227928    67.24636294
 C      5   4   2     2.887307595822   113.43445765   279.16506916
 C      5   4   2     2.886458810810   112.54276042    45.69050954
 O      2   1   3     2.693568620112   105.95613785   116.25370113
 H      1   2   3     2.048931419573   110.97408978    46.79474251
 H      1   2   3     2.052705986155   110.33419696   168.71036119
 H      1   2   3     2.055105289836   108.48653771   287.37070224
 H      4   2   1     2.068696363226   106.58732643   188.13131291
 H      4   2   1     2.064962004916   107.81798642   302.96412546
 H      5   4   2     2.073681587816   105.48792854   162.69545470
 H      6   5   4     2.054600809887   110.60463246   309.12801904
 H      6   5   4     2.055894899150   109.69257025   189.80241924
 H      6   5   4     2.050032281072   111.61642465    70.06119472
 H      7   5   4     2.053960536842   110.95425742   290.29064516
 H      7   5   4     2.055033851862   110.76096529    51.12965555
 H      7   5   4     2.055026269219   109.91758956   170.77436660
 H      8   2   1     1.825908787007   109.53560140   179.48295411

---------------------
BASIS SET INFORMATION
---------------------
There are 3 groups of distinct atoms

 Group   1 Type C   : 11s6p1d contracted to 5s3p1d pattern {62111/411/1}
 Group   2 Type H   : 4s1p contracted to 2s1p pattern {31/1}
 Group   3 Type O   : 11s6p2d contracted to 5s3p2d pattern {62111/411/11}

Atom   0C    basis set group =>   1
Atom   1C    basis set group =>   1
Atom   2H    basis set group =>   2
Atom   3C    basis set group =>   1
Atom   4C    basis set group =>   1
Atom   5C    basis set group =>   1
Atom   6C    basis set group =>   1
Atom   7O    basis set group =>   3
Atom   8H    basis set group =>   2
Atom   9H    basis set group =>   2
Atom  10H    basis set group =>   2
Atom  11H    basis set group =>   2
Atom  12H    basis set group =>   2
Atom  13H    basis set group =>   2
Atom  14H    basis set group =>   2
Atom  15H    basis set group =>   2
Atom  16H    basis set group =>   2
Atom  17H    basis set group =>   2
Atom  18H    basis set group =>   2
Atom  19H    basis set group =>   2
Atom  20H    basis set group =>   2
---------------------------------
AUXILIARY/J BASIS SET INFORMATION
---------------------------------
There are 3 groups of distinct atoms

 Group   1 Type C   : 12s5p4d2f1g contracted to 6s4p3d1f1g pattern {711111/2111/211/2/1}
 Group   2 Type H   : 5s2p1d contracted to 3s1p1d pattern {311/2/1}
 Group   3 Type O   : 12s5p4d2f1g contracted to 6s4p3d1f1g pattern {711111/2111/211/2/1}

Atom   0C    basis set group =>   1
Atom   1C    basis set group =>   1
Atom   2H    basis set group =>   2
Atom   3C    basis set group =>   1
Atom   4C    basis set group =>   1
Atom   5C    basis set group =>   1
Atom   6C    basis set group =>   1
Atom   7O    basis set group =>   3
Atom   8H    basis set group =>   2
Atom   9H    basis set group =>   2
Atom  10H    basis set group =>   2
Atom  11H    basis set group =>   2
Atom  12H    basis set group =>   2
Atom  13H    basis set group =>   2
Atom  14H    basis set group =>   2
Atom  15H    basis set group =>   2
Atom  16H    basis set group =>   2
Atom  17H    basis set group =>   2
Atom  18H    basis set group =>   2
Atom  19H    basis set group =>   2
Atom  20H    basis set group =>   2

Checking for AutoStart:
The File: sp_gas.gbw exists
Trying to determine its content:
     ... Fine, the file contains calculation information
     ... Fine, the calculation information was read
     ... Fine, the file contains a basis set
     ... Fine, the basis set was read
     ... Fine, the file contains a geometry
     ... Fine, the geometry was read
     ... Fine, the file contains a set of orbitals
     ... Fine, the orbitals can be read
     => possible old guess file was deleted
     => GBW file was renamed to GES file
     => GES file is set as startup file
     => Guess is set to MORead
     ... now leaving AutoStart

------------------------------------------------------------------------------
                             ORCA STARTUP CALCULATIONS
                           -- RI-GTO INTEGRALS CHOSEN --
------------------------------------------------------------------------------
------------------------------------------------------------------------------
                   ___                                                        
                  /   \      - P O W E R E D   B Y -                         
                 /     \                                                     
                 |  |  |   _    _      __       _____    __    __             
                 |  |  |  | |  | |    /  \     |  _  \  |  |  /  |          
                  \  \/   | |  | |   /    \    | | | |  |  | /  /          
                 / \  \   | |__| |  /  /\  \   | |_| |  |  |/  /          
                |  |  |   |  __  | /  /__\  \  |    /   |      \           
                |  |  |   | |  | | |   __   |  |    \   |  |\   \          
                \     /   | |  | | |  |  |  |  | |\  \  |  | \   \       
                 \___/    |_|  |_| |__|  |__|  |_| \__\ |__|  \__/        
                                                                              
                      - O R C A' S   B I G   F R I E N D -                    
                                      &                                       
                       - I N T E G R A L  F E E D E R -                       
                                                                              
 v1 FN, 2020, v2 2021, v3 2022-2024                                           
------------------------------------------------------------------------------


----------------------
SHARK INTEGRAL PACKAGE
----------------------

Number of atoms                             ...     21
Number of basis functions                   ...    208
Number of shells                            ...    106
Maximum angular momentum                    ...      2
Integral batch strategy                     ... SHARK/LIBINT Hybrid
RI-J (if used) integral strategy            ... SPLIT-RIJ (Revised 2003 algorithm where possible)
Printlevel                                  ...      1
Contraction scheme used                     ... SEGMENTED contraction
Prescreening option                         ... SCHWARTZ
   Thresh                                   ... 1.000e-10
   Tcut                                     ... 1.000e-11
   Tpresel                                  ... 1.000e-11 
Coulomb Range Separation                    ... NOT USED
Exchange Range Separation                   ... NOT USED
Multipole approximations                    ... NOT USED
Finite Nucleus Model                        ... NOT USED
CABS basis                                  ... NOT available
Auxiliary Coulomb fitting basis             ... AVAILABLE
   # of basis functions in Aux-J            ...    497
   # of shells in Aux-J                     ...    175
   Maximum angular momentum in Aux-J        ...      4
Auxiliary J/K fitting basis                 ... NOT available
Auxiliary Correlation fitting basis         ... NOT available
Auxiliary 'external' fitting basis          ... NOT available

Checking pre-screening integrals            ... done (  0.0 sec) Dimension = 106
Check shell pair data                       ... done (  0.0 sec)
Shell pair information
Shell pair cut-off parameter TPreSel        ...   1.0e-11
Total number of shell pairs                 ...      5671
Shell pairs after pre-screening             ...      5240
Total number of primitive shell pairs       ...     19699
Primitive shell pairs kept                  ...     13132
          la=0 lb=0:   1852 shell pairs
          la=1 lb=0:   2033 shell pairs
          la=1 lb=1:    584 shell pairs
          la=2 lb=0:    473 shell pairs
          la=2 lb=1:    264 shell pairs
          la=2 lb=2:     34 shell pairs

Calculating one electron integrals          ... done (  0.0 sec)
Calculating RI/J V-Matrix + Cholesky decomp.... done (  0.1 sec)
Calculating Nuclear repulsion               ... done (  0.0 sec) ENN=    336.839981069269 Eh

Diagonalization of the overlap matrix:
Smallest eigenvalue                        ... 1.532e-04
Time for diagonalization                   ...    0.005 sec
Threshold for overlap eigenvalues          ... 1.000e-07
Number of eigenvalues below threshold      ... 0
Time for construction of square roots      ...    0.018 sec
Total time needed                          ...    0.037 sec

-------------------
DFT GRID GENERATION
-------------------

General Integration Accuracy     IntAcc      ... 4.388
Radial Grid Type                 RadialGrid  ... OptM3 with GC (2021)
Angular Grid (max. ang.)         AngularGrid ... 4 (Lebedev-302)
Angular grid pruning method      GridPruning ... 4 (adaptive)
Weight generation scheme         WeightScheme... mBecke (2022)
Basis function cutoff            BFCut       ... 1.0000e-10
Integration weight cutoff        WCut        ... 1.0000e-14
Partially contracted basis set               ... off
Rotationally invariant grid construction     ... off
Angular grids for H and He will be reduced by one unit
Diffuse basis detected: some atoms will have their outermost
                        angular grid increased by 1.

Total number of grid points                  ...    86895
Total number of batches                      ...     1370
Average number of points per batch           ...       63
Average number of grid points per atom       ...     4138
Initializing property integral containers    ... done (  0.0 sec)

SHARK setup successfully completed in   1.3 seconds

Maximum memory used throughout the entire STARTUP-calculation: 38.2 MB
-------------------------------------------------------------------------------
                                 ORCA GUESS
                   Start orbitals & Density for SCF / CASSCF
-------------------------------------------------------------------------------

------------
SCF SETTINGS
------------
Hamiltonian:
 Density Functional     Method          .... DFT(GTOs)
  Functional kind                       .... Exchange
  Functional name                       .... Re-regularized SCAN exchange by Furness et al
  Functional family                     .... MGGA
  Functional refs                              
    [ 0] J. W. Furness, A. D. Kaplan, J. Ning, J. P. Perdew, and J. Sun.,  J. Phys. Chem. Lett. 11, 8208-8215 (2020), doi: 10.1021/acs.jpclett.0c02405
    [ 1] J. W. Furness, A. D. Kaplan, J. Ning, J. P. Perdew, and J. Sun.,  J. Phys. Chem. Lett. 11, 9248-9248 (2020), doi: 10.1021/acs.jpclett.0c03077
  Functional external parameters        .... 6
    Parameter  0 _c1        =  6.670000e-01 : c1 parameter        
    Parameter  1 _c2        =  8.000000e-01 : c2 parameter        
    Parameter  2 _d         =  1.240000e+00 : d parameter         
    Parameter  3 _k1        =  6.500000e-02 : k1 parameter        
    Parameter  4 _eta       =  1.000000e-03 : eta parameter       
    Parameter  5 _dp2       =  3.610000e-01 : dp2 parameter       
  Functional kind                       .... Correlation
  Functional name                       .... Re-regularized SCAN correlation by Furness et al
  Functional family                     .... MGGA
  Functional refs                              
    [ 0] J. W. Furness, A. D. Kaplan, J. Ning, J. P. Perdew, and J. Sun.,  J. Phys. Chem. Lett. 11, 8208-8215 (2020), doi: 10.1021/acs.jpclett.0c02405
    [ 1] J. W. Furness, A. D. Kaplan, J. Ning, J. P. Perdew, and J. Sun.,  J. Phys. Chem. Lett. 11, 9248-9248 (2020), doi: 10.1021/acs.jpclett.0c03077
  Functional external parameters        .... 1
    Parameter  0 _eta       =  1.000000e-03 : Regularization parameter
 Gradients option       PostSCFGGA      .... off
 RI-approximation to the Coulomb term is turned on
   Number of AuxJ basis functions       .... 497


General Settings:
 Integral files         IntName         .... sp_gas
 Hartree-Fock type      HFTyp           .... RHF
 Total Charge           Charge          ....    0
 Multiplicity           Mult            ....    1
 Number of Electrons    NEL             ....   58
 Basis Dimension        Dim             ....  208
 Nuclear Repulsion      ENuc            ....    336.8399810693 Eh

Convergence Acceleration:
 AO-DIIS                CNVDIIS         .... on
   Start iteration      DIISMaxIt       ....    12
   Startup error        DIISStart       ....  0.200000
   # of expansion vecs  DIISMaxEq       ....     5
   Bias factor          DIISBfac        ....   1.050
   Max. coefficient     DIISMaxC        ....  10.000
 MO-DIIS                CNVKDIIS        .... off
 Trust-Rad. Augm. Hess. CNVTRAH         .... auto
   Auto Start mean grad. ratio tolernc. ....  1.125000
   Auto Start start iteration           ....     1
   Auto Start num. interpolation iter.  ....    10
   Max. Number of Micro iterations      ....    24
   Max. Number of Macro iterations      .... Maxiter - #DIIS iter
   Number of Davidson start vectors     ....     2
   Converg. threshold    (grad. norm)   ....   3.330e-04
   Grad. Scal. Fac. for Micro threshold ....   0.100
   Minimum threshold for Micro iter.    ....   1.000e-02
   NR start threshold (gradient norm)   ....   1.000e-04
   Initial trust radius                 ....   0.400
   Minimum AH scaling param. (alpha)    ....   1.000
   Maximum AH scaling param. (alpha)    .... 1000.000
   Quad. conv. algorithm                .... NR
   White noise on init. David. guess    .... on
   Maximum white noise                  ....   0.010
   Pseudo random numbers                .... off
   Inactive MOs                         .... canonical
   Orbital update algorithm             .... Taylor
   Preconditioner                       .... Diag
   Full preconditioner red. dimension   ....   250
   COSX micro iterations for RIJONX calc.... off
 SOSCF                  CNVSOSCF        .... on
   Start iteration      SOSCFMaxIt      ....   150
   Startup grad/error   SOSCFStart      ....  0.003300
   Hessian update       SOSCFHessUp     .... L-BFGS
 Level Shifting         CNVShift        .... on
   Level shift para.    LevelShift      ....    0.2500
   Turn off err/grad.   ShiftErr        ....    0.0010
 Zerner damping         CNVZerner       .... off
 Static damping         CNVDamp         .... on
   Fraction old density DampFac         ....    0.7000
   Max. Damping (<1)    DampMax         ....    0.9800
   Min. Damping (>=0)   DampMin         ....    0.0000
   Turn off err/grad.   DampErr         ....    0.1000

SCF Procedure:
 Maximum # iterations   MaxIter         ....   125
 SCF integral mode      SCFMode         .... Direct
   Integral package                     .... SHARK and LIBINT hybrid scheme
 Reset frequency        DirectResetFreq ....    20
 Integral Threshold     Thresh          ....  1.000e-10 Eh
 Primitive CutOff       TCut            ....  1.000e-11 Eh

Convergence Tolerance:
 Convergence Check Mode ConvCheckMode   .... Total+1el-Energy
 Convergence forced     ConvForced      .... 0
 Energy Change          TolE            ....  1.000e-06 Eh
 1-El. energy change                    ....  1.000e-03 Eh
 Orbital Gradient       TolG            ....  3.330e-04
 Orbital Rotation angle TolX            ....  3.330e-04
 DIIS Error             TolErr          ....  1.000e-06

---------------------
INITIAL GUESS: MOREAD
---------------------
Guess MOs are being read from file: sp_gas.ges
Input Geometry matches current geometry (good)
Atom 0: N(Shells)= 9 and 6 - projection required
Input basis set needs projection
NBasis(read)= 126
NBasis(calc)= 208
Basis set overlap was calculated
Using GuessMode=FMatrix for the initial guess
C*T matrix was formed
Effective Fockian was calculated
Effective Fockian was diagonalized
Initial density was built
                      ------------------
                      INITIAL GUESS DONE (   0.0 sec)
                      ------------------
             **** ENERGY FILE WAS UPDATED (sp_gas.en.tmp) ****
Finished Guess after   0.3 sec
Maximum memory used throughout the entire GUESS-calculation: 14.4 MB

-------------------------------------------------------------------------------------------
                                      ORCA LEAN-SCF
                              memory conserving SCF solver
-------------------------------------------------------------------------------------------

----------------------------------------D-I-I-S--------------------------------------------
Iteration    Energy (Eh)           Delta-E    RMSDP     MaxDP     DIISErr   Damp  Time(sec)
-------------------------------------------------------------------------------------------
               ***  Starting incremental Fock matrix formation  ***
    1    -312.0265661931548493     0.00e+00  4.58e-03  1.62e-01  6.28e-01  0.700   2.9
    2    -312.0792964053184733    -5.27e-02  3.62e-03  9.91e-02  4.41e-01  0.700   2.7
    3    -312.1166679217506044    -3.74e-02  2.63e-03  7.23e-02  3.09e-01  0.700   2.9
    4    -312.1429204255897503    -2.63e-02  1.87e-03  5.14e-02  2.17e-01  0.700   2.7
                               ***Turning on AO-DIIS***
    5    -312.1613434837937575    -1.84e-02  1.35e-03  3.66e-02  1.52e-01  0.700   2.6
    6    -312.1742643986715393    -1.29e-02  9.53e-04  2.58e-02  1.06e-01  0.700   2.6
    7    -312.1833244583532405    -9.06e-03  6.72e-04  1.81e-02  7.43e-02  0.700   2.6
    8    -312.1896744819096057    -6.35e-03  1.57e-03  4.24e-02  5.20e-02  0.000   2.5
                              *** Initializing SOSCF ***
---------------------------------------S-O-S-C-F--------------------------------------
Iteration    Energy (Eh)           Delta-E    RMSDP     MaxDP     MaxGrad    Time(sec)
--------------------------------------------------------------------------------------
    9    -312.2045171009273190    -1.48e-02  9.65e-06  3.71e-04  1.71e-04     2.7
               *** Restarting incremental Fock matrix formation ***
   10    -312.2045171933394840    -9.24e-08  6.36e-06  2.21e-04  2.55e-05     2.9
                  *** Gradient check signals convergence ***

               *****************************************************
               *                     SUCCESS                       *
               *           SCF CONVERGED AFTER  10 CYCLES          *
               *****************************************************

             **** ENERGY FILE WAS UPDATED (sp_gas.en.tmp) ****

----------------
TOTAL SCF ENERGY
----------------

Total Energy       :       -312.20451719333948 Eh           -8495.51682 eV

Components:
Nuclear Repulsion  :        336.83998106926867 Eh            9165.88187 eV
Electronic Energy  :       -649.04449826260816 Eh          -17661.39869 eV
One Electron Energy:      -1089.28445874483964 Eh          -29640.93704 eV
Two Electron Energy:        440.23996048223148 Eh           11979.53835 eV

Virial components:
Potential Energy   :       -623.00036574947092 Eh          -16952.70181 eV
Kinetic Energy     :        310.79584855613143 Eh            8457.18499 eV
Virial Ratio       :          2.00453245641392

DFT components:
N(Alpha)           :       29.000082410484 electrons
N(Beta)            :       29.000082410484 electrons
N(Total)           :       58.000164820969 electrons
E(X)               :      -44.500607312871 Eh       
E(C)               :       -1.813166113198 Eh       
E(XC)              :      -46.313773426069 Eh       

---------------
SCF CONVERGENCE
---------------

  Last Energy change         ...    9.2412e-08  Tolerance :   1.0000e-06
  Last MAX-Density change    ...    2.2069e-04  Tolerance :   1.0000e-05
  Last RMS-Density change    ...    6.3642e-06  Tolerance :   1.0000e-06
  Last DIIS Error            ...    1.7069e-04  Tolerance :   1.0000e-06
  Last Orbital Gradient      ...    2.5479e-05  Tolerance :   3.3300e-04
  Last Orbital Rotation      ...    4.6840e-05  Tolerance :   3.3300e-04


----------------
ORBITAL ENERGIES
----------------

  NO   OCC          E(Eh)            E(eV) 
   0   2.0000     -18.941492      -515.4242 
   1   2.0000     -10.079359      -274.2733 
   2   2.0000     -10.038162      -273.1523 
   3   2.0000     -10.024681      -272.7854 
   4   2.0000     -10.019011      -272.6312 
   5   2.0000     -10.015558      -272.5372 
   6   2.0000     -10.014634      -272.5121 
   7   2.0000      -0.978837       -26.6355 
   8   2.0000      -0.779570       -21.2132 
   9   2.0000      -0.716566       -19.4987 
  10   2.0000      -0.656003       -17.8507 
  11   2.0000      -0.652485       -17.7550 
  12   2.0000      -0.565353       -15.3840 
  13   2.0000      -0.520550       -14.1649 
  14   2.0000      -0.479643       -13.0518 
  15   2.0000      -0.436821       -11.8865 
  16   2.0000      -0.417459       -11.3596 
  17   2.0000      -0.403932       -10.9915 
  18   2.0000      -0.389915       -10.6101 
  19   2.0000      -0.364887        -9.9291 
  20   2.0000      -0.360884        -9.8202 
  21   2.0000      -0.347221        -9.4484 
  22   2.0000      -0.333642        -9.0789 
  23   2.0000      -0.328569        -8.9408 
  24   2.0000      -0.309585        -8.4242 
  25   2.0000      -0.298645        -8.1265 
  26   2.0000      -0.291993        -7.9455 
  27   2.0000      -0.278829        -7.5873 
  28   2.0000      -0.228845        -6.2272 
  29   0.0000       0.064254         1.7484 
  30   0.0000       0.077690         2.1140 
  31   0.0000       0.106829         2.9070 
  32   0.0000       0.119926         3.2633 
  33   0.0000       0.124144         3.3781 
  34   0.0000       0.136335         3.7099 
  35   0.0000       0.139510         3.7962 
  36   0.0000       0.145375         3.9559 
  37   0.0000       0.149992         4.0815 
  38   0.0000       0.156894         4.2693 
  39   0.0000       0.169144         4.6026 
*Only the first 10 virtual orbitals were printed.

                    ********************************
                    * MULLIKEN POPULATION ANALYSIS *
                    ********************************

-----------------------
MULLIKEN ATOMIC CHARGES
-----------------------
   0 C :   -0.504342
   1 C :    0.030653
   2 H :    0.139578
   3 C :   -0.283730
   4 C :   -0.035438
   5 C :   -0.484469
   6 C :   -0.502136
   7 O :   -0.424008
   8 H :    0.142083
   9 H :    0.159978
  10 H :    0.160640
  11 H :    0.127110
  12 H :    0.159554
  13 H :    0.143066
  14 H :    0.148763
  15 H :    0.144659
  16 H :    0.146099
  17 H :    0.153045
  18 H :    0.150406
  19 H :    0.147041
  20 H :    0.281449
Sum of atomic charges:    0.0000000

--------------------------------
MULLIKEN REDUCED ORBITAL CHARGES
--------------------------------
  0 C s       :     3.344328  s :     3.344328
      pz      :     0.951257  p :     3.134356
      px      :     1.108570
      py      :     1.074529
      dz2     :     0.006923  d :     0.025658
      dxz     :     0.005248
      dyz     :     0.004508
      dx2y2   :     0.006481
      dxy     :     0.002498

  1 C s       :     3.231585  s :     3.231585
      pz      :     0.844169  p :     2.670122
      px      :     0.804201
      py      :     1.021751
      dz2     :     0.014623  d :     0.067640
      dxz     :     0.016830
      dyz     :     0.008098
      dx2y2   :     0.016525
      dxy     :     0.011564

  2 H s       :     0.843457  s :     0.843457
      pz      :     0.002903  p :     0.016965
      px      :     0.002881
      py      :     0.011181

  3 C s       :     3.216511  s :     3.216511
      pz      :     1.044505  p :     3.031727
      px      :     0.918994
      py      :     1.068228
      dz2     :     0.009715  d :     0.035491
      dxz     :     0.006696
      dyz     :     0.002144
      dx2y2   :     0.010501
      dxy     :     0.006435

  4 C s       :     3.096148  s :     3.096148
      pz      :     0.978346  p :     2.892847
      px      :     1.012035
      py      :     0.902466
      dz2     :     0.008192  d :     0.046444
      dxz     :     0.010835
      dyz     :     0.009087
      dx2y2   :     0.010964
      dxy     :     0.007366

  5 C s       :     3.326342  s :     3.326342
      pz      :     0.981762  p :     3.131057
      px      :     1.085194
      py      :     1.064102
      dz2     :     0.006459  d :     0.027070
      dxz     :     0.006710
      dyz     :     0.004733
      dx2y2   :     0.007630
      dxy     :     0.001537

  6 C s       :     3.330423  s :     3.330423
      pz      :     1.090332  p :     3.144516
      px      :     1.107695
      py      :     0.946490
      dz2     :     0.004125  d :     0.027197
      dxz     :     0.004252
      dyz     :     0.007026
      dx2y2   :     0.007303
      dxy     :     0.004491

  7 O s       :     3.770562  s :     3.770562
      pz      :     1.238723  p :     4.638782
      px      :     1.554669
      py      :     1.845390
      dz2     :     0.001776  d :     0.014664
      dxz     :     0.002756
      dyz     :     0.002951
      dx2y2   :     0.004716
      dxy     :     0.002466

  8 H s       :     0.839256  s :     0.839256
      pz      :     0.007032  p :     0.018661
      px      :     0.006419
      py      :     0.005210

  9 H s       :     0.821762  s :     0.821762
      pz      :     0.003623  p :     0.018259
      px      :     0.003680
      py      :     0.010957

 10 H s       :     0.821091  s :     0.821091
      pz      :     0.003695  p :     0.018269
      px      :     0.010449
      py      :     0.004126

 11 H s       :     0.854965  s :     0.854965
      pz      :     0.010535  p :     0.017925
      px      :     0.003515
      py      :     0.003875

 12 H s       :     0.822656  s :     0.822656
      pz      :     0.003450  p :     0.017790
      px      :     0.003466
      py      :     0.010874

 13 H s       :     0.839541  s :     0.839541
      pz      :     0.006471  p :     0.017393
      px      :     0.006891
      py      :     0.004031

 14 H s       :     0.832919  s :     0.832919
      pz      :     0.003657  p :     0.018317
      px      :     0.003888
      py      :     0.010773

 15 H s       :     0.837067  s :     0.837067
      pz      :     0.004303  p :     0.018274
      px      :     0.010171
      py      :     0.003800

 16 H s       :     0.835236  s :     0.835236
      pz      :     0.007745  p :     0.018665
      px      :     0.006522
      py      :     0.004399

 17 H s       :     0.828623  s :     0.828623
      pz      :     0.007360  p :     0.018332
      px      :     0.006426
      py      :     0.004547

 18 H s       :     0.831355  s :     0.831355
      pz      :     0.008828  p :     0.018239
      px      :     0.003950
      py      :     0.005461

 19 H s       :     0.834692  s :     0.834692
      pz      :     0.004239  p :     0.018267
      px      :     0.010072
      py      :     0.003957

 20 H s       :     0.675173  s :     0.675173
      pz      :     0.020775  p :     0.043378
      px      :     0.009525
      py      :     0.013079


------------------------
MULLIKEN OVERLAP CHARGES
------------------------
B(  0-C ,  1-C ) :   0.4274 B(  0-C ,  3-C ) :  -0.2192 B(  0-C ,  4-C ) :   0.0677 
B(  0-C ,  7-O ) :  -0.0980 B(  0-C ,  8-H ) :   0.8210 B(  0-C ,  9-H ) :   0.8629 
B(  0-C , 10-H ) :   0.7733 B(  1-C ,  2-H ) :   0.8436 B(  1-C ,  3-C ) :   0.3392 
B(  1-C ,  4-C ) :  -0.1082 B(  1-C ,  7-O ) :   0.3598 B(  1-C ,  8-H ) :  -0.0600 
B(  1-C ,  9-H ) :  -0.1216 B(  1-C , 11-H ) :  -0.0636 B(  1-C , 12-H ) :  -0.0929 
B(  1-C , 20-H ) :  -0.0937 B(  2-H ,  3-C ) :  -0.1330 B(  2-H ,  7-O ) :  -0.1212 
B(  3-C ,  4-C ) :   0.2126 B(  3-C ,  5-C ) :  -0.2152 B(  3-C ,  6-C ) :  -0.1787 
B(  3-C ,  7-O ) :  -0.1424 B(  3-C , 11-H ) :   0.7631 B(  3-C , 12-H ) :   0.8670 
B(  3-C , 13-H ) :  -0.1163 B(  3-C , 17-H ) :  -0.0521 B(  4-C ,  5-C ) :   0.5638 
B(  4-C ,  6-C ) :   0.3805 B(  4-C , 12-H ) :  -0.1103 B(  4-C , 13-H ) :   0.8588 
B(  4-C , 14-H ) :  -0.0968 B(  4-C , 15-H ) :  -0.0827 B(  4-C , 16-H ) :  -0.0800 
B(  4-C , 17-H ) :  -0.0716 B(  4-C , 18-H ) :  -0.0993 B(  4-C , 19-H ) :  -0.0712 
B(  5-C ,  6-C ) :  -0.2167 B(  5-C , 13-H ) :  -0.0538 B(  5-C , 14-H ) :   0.8200 
B(  5-C , 15-H ) :   0.8026 B(  5-C , 16-H ) :   0.8495 B(  6-C , 13-H ) :  -0.0786 
B(  6-C , 17-H ) :   0.8380 B(  6-C , 18-H ) :   0.8097 B(  6-C , 19-H ) :   0.7999 
B(  7-O , 20-H ) :   0.5748 


                     *******************************
                     * LOEWDIN POPULATION ANALYSIS *
                     *******************************

----------------------
LOEWDIN ATOMIC CHARGES
----------------------
   0 C :   -0.382173
   1 C :    0.051799
   2 H :    0.161916
   3 C :   -0.282673
   4 C :   -0.243087
   5 C :   -0.415792
   6 C :   -0.418265
   7 O :   -0.620824
   8 H :    0.152838
   9 H :    0.159555
  10 H :    0.168130
  11 H :    0.158622
  12 H :    0.167300
  13 H :    0.156781
  14 H :    0.154251
  15 H :    0.152785
  16 H :    0.152863
  17 H :    0.152271
  18 H :    0.153990
  19 H :    0.153740
  20 H :    0.265972

-------------------------------
LOEWDIN REDUCED ORBITAL CHARGES
-------------------------------
  0 C s       :     2.968940  s :     2.968940
      pz      :     1.056087  p :     3.352637
      px      :     1.148188
      py      :     1.148363
      dz2     :     0.015416  d :     0.060596
      dxz     :     0.012733
      dyz     :     0.009862
      dx2y2   :     0.016449
      dxy     :     0.006136

  1 C s       :     2.841697  s :     2.841697
      pz      :     0.977619  p :     2.962848
      px      :     0.923883
      py      :     1.061346
      dz2     :     0.032325  d :     0.143657
      dxz     :     0.034613
      dyz     :     0.014630
      dx2y2   :     0.037278
      dxy     :     0.024811

  2 H s       :     0.797507  s :     0.797507
      pz      :     0.007289  p :     0.040577
      px      :     0.006842
      py      :     0.026446

  3 C s       :     2.936444  s :     2.936444
      pz      :     1.106461  p :     3.268879
      px      :     1.038667
      py      :     1.123752
      dz2     :     0.022323  d :     0.077350
      dxz     :     0.013974
      dyz     :     0.004696
      dx2y2   :     0.023354
      dxy     :     0.013003

  4 C s       :     2.904576  s :     2.904576
      pz      :     1.092137  p :     3.243333
      px      :     1.080623
      py      :     1.070573
      dz2     :     0.016408  d :     0.095177
      dxz     :     0.023230
      dyz     :     0.018237
      dx2y2   :     0.023581
      dxy     :     0.013721

  5 C s       :     2.969001  s :     2.969001
      pz      :     1.097623  p :     3.383122
      px      :     1.150891
      py      :     1.134609
      dz2     :     0.014734  d :     0.063669
      dxz     :     0.015551
      dyz     :     0.010997
      dx2y2   :     0.018825
      dxy     :     0.003562

  6 C s       :     2.968022  s :     2.968022
      pz      :     1.151241  p :     3.386399
      px      :     1.157329
      py      :     1.077829
      dz2     :     0.010240  d :     0.063843
      dxz     :     0.010863
      dyz     :     0.015737
      dx2y2   :     0.017740
      dxy     :     0.009263

  7 O s       :     3.520407  s :     3.520407
      pz      :     1.355640  p :     4.810854
      px      :     1.613446
      py      :     1.841767
      dz2     :     0.096880  d :     0.289563
      dxz     :     0.060973
      dyz     :     0.028525
      dx2y2   :     0.054589
      dxy     :     0.048595

  8 H s       :     0.802629  s :     0.802629
      pz      :     0.016868  p :     0.044533
      px      :     0.015364
      py      :     0.012301

  9 H s       :     0.796797  s :     0.796797
      pz      :     0.008011  p :     0.043648
      px      :     0.008072
      py      :     0.027565

 10 H s       :     0.788570  s :     0.788570
      pz      :     0.007736  p :     0.043300
      px      :     0.026268
      py      :     0.009296

 11 H s       :     0.798674  s :     0.798674
      pz      :     0.025703  p :     0.042704
      px      :     0.007935
      py      :     0.009066

 12 H s       :     0.789217  s :     0.789217
      pz      :     0.007932  p :     0.043484
      px      :     0.008161
      py      :     0.027391

 13 H s       :     0.800328  s :     0.800328
      pz      :     0.015963  p :     0.042891
      px      :     0.017014
      py      :     0.009914

 14 H s       :     0.802216  s :     0.802216
      pz      :     0.008266  p :     0.043533
      px      :     0.008508
      py      :     0.026759

 15 H s       :     0.803658  s :     0.803658
      pz      :     0.009838  p :     0.043557
      px      :     0.025228
      py      :     0.008491

 16 H s       :     0.802370  s :     0.802370
      pz      :     0.019100  p :     0.044766
      px      :     0.015502
      py      :     0.010164

 17 H s       :     0.803803  s :     0.803803
      pz      :     0.017938  p :     0.043926
      px      :     0.015366
      py      :     0.010622

 18 H s       :     0.802518  s :     0.802518
      pz      :     0.021888  p :     0.043491
      px      :     0.008741
      py      :     0.012863

 19 H s       :     0.802615  s :     0.802615
      pz      :     0.009459  p :     0.043644
      px      :     0.025077
      py      :     0.009108

 20 H s       :     0.610786  s :     0.610786
      pz      :     0.062444  p :     0.123241
      px      :     0.026481
      py      :     0.034316


---------------------------------
LOEWDIN BOND ORDERS (THRESH 0.050000)
---------------------------------
B(  0-C ,  1-C ) :   1.0481 B(  0-C ,  3-C ) :   0.0631 B(  0-C ,  7-O ) :   0.1790 
B(  0-C ,  8-H ) :   0.9167 B(  0-C ,  9-H ) :   0.9185 B(  0-C , 10-H ) :   0.9078 
B(  1-C ,  2-H ) :   0.8020 B(  1-C ,  3-C ) :   1.0063 B(  1-C ,  4-C ) :   0.0573 
B(  1-C ,  7-O ) :   1.3897 B(  2-H ,  7-O ) :   0.0985 B(  3-C ,  4-C ) :   1.0717 
B(  3-C ,  5-C ) :   0.0651 B(  3-C ,  6-C ) :   0.0622 B(  3-C ,  7-O ) :   0.1771 
B(  3-C , 11-H ) :   0.8739 B(  3-C , 12-H ) :   0.8764 B(  4-C ,  5-C ) :   1.1121 
B(  4-C ,  6-C ) :   1.1099 B(  4-C , 13-H ) :   0.8593 B(  5-C ,  6-C ) :   0.0705 
B(  5-C , 14-H ) :   0.9242 B(  5-C , 15-H ) :   0.9233 B(  5-C , 16-H ) :   0.9188 
B(  6-C , 17-H ) :   0.9209 B(  6-C , 18-H ) :   0.9229 B(  6-C , 19-H ) :   0.9227 
B(  7-O , 20-H ) :   0.9713 

------------------------------------------
LOEWDIN REDUCED ORBITAL POPULATIONS PER MO
-------------------------------------------
THRESHOLD FOR PRINTING IS 0.1%%
                      0         1         2         3         4         5   
                 -18.94149 -10.07936 -10.03816 -10.02468 -10.01901 -10.01556
                   2.00000   2.00000   2.00000   2.00000   2.00000   2.00000
                  --------  --------  --------  --------  --------  --------
 1 C  s               0.0      99.4       0.0       0.0       0.0       0.0
 3 C  s               0.0       0.0       0.0      99.7       0.0       0.0
 4 C  s               0.0       0.0      99.7       0.0       0.0       0.0
 5 C  s               0.0       0.0       0.0       0.0       0.0      99.7
 6 C  s               0.0       0.0       0.0       0.0      99.7       0.0
 7 O  s              99.9       0.0       0.0       0.0       0.0       0.0
 7 O  dxz             0.0       0.2       0.0       0.0       0.0       0.0

                      6         7         8         9        10        11   
                 -10.01463  -0.97884  -0.77957  -0.71657  -0.65600  -0.65249
                   2.00000   2.00000   2.00000   2.00000   2.00000   2.00000
                  --------  --------  --------  --------  --------  --------
 0 C  s              99.7       0.9       1.8      21.1      11.5       2.0
 0 C  pz              0.0       1.5       0.3       1.0       0.4       0.0
 0 C  px              0.0       0.0       0.3       0.1       0.1       0.1
 1 C  s               0.0       9.7       3.7      13.8       0.1       0.0
 1 C  pz              0.1       3.0       0.2       4.7       5.7       1.0
 1 C  px              0.0       4.6       2.9       0.4       4.7       0.7
 1 C  py              0.0       0.6       0.2       0.2       0.1       0.4
 1 C  dz2             0.0       0.0       0.0       0.0       0.1       0.0
 1 C  dxz             0.0       0.4       0.1       0.1       0.0       0.0
 1 C  dx2y2           0.0       0.2       0.0       0.0       0.0       0.0
 2 H  s               0.0       0.7       0.5       2.2       0.0       0.1
 2 H  py              0.0       0.1       0.0       0.2       0.0       0.0
 3 C  s               0.0       0.9      14.5       2.8      15.9       4.0
 3 C  pz              0.0       0.0       1.0       0.1       1.2       0.0
 3 C  px              0.0       1.5       1.5       4.0       0.0       0.0
 3 C  py              0.0       0.1       0.4       0.1       0.0       0.9
 4 C  s               0.0       0.1      25.1       4.1       0.0       0.0
 4 C  pz              0.0       0.0       0.1       0.8       7.3       0.4
 4 C  px              0.0       0.1       0.6       1.8       3.8       0.6
 4 C  py              0.0       0.0       0.1       0.3       0.2      13.9
 4 C  dz2             0.0       0.0       0.0       0.0       0.1       0.1
 4 C  dx2y2           0.0       0.0       0.0       0.1       0.1       0.2
 5 C  s               0.0       0.0       9.8       4.4      15.8      11.3
 5 C  pz              0.0       0.0       2.1       0.3       0.5       0.0
 5 C  px              0.0       0.0       0.2       0.1       0.1       0.0
 5 C  py              0.0       0.0       0.8       0.2       0.0       0.8
 6 C  s               0.0       0.0      10.5       4.5       0.0      27.7
 6 C  pz              0.0       0.0       0.0       0.0       0.4       0.0
 6 C  px              0.0       0.0       0.1       0.1       0.2       0.0
 6 C  py              0.0       0.0       3.0       0.4       0.0       1.0
 7 O  s               0.0      59.4       1.3       3.5       0.2       0.0
 7 O  pz              0.0       0.1       0.5       4.6       0.3       0.1
 7 O  px              0.0       2.1       0.4       1.4       0.3       0.0
 7 O  py              0.0       0.4       0.0       0.1       0.0       0.0
 7 O  dz2             0.0       0.0       0.0       0.0       0.5       0.1
 7 O  dxz             0.0       0.1       0.1       1.0       0.0       0.0
 7 O  dx2y2           0.0       0.1       0.2       0.3       0.2       0.0
 8 H  s               0.0       0.1       0.3       3.7       3.0       0.4
 8 H  pz              0.0       0.0       0.0       0.2       0.1       0.0
 8 H  px              0.0       0.0       0.0       0.1       0.1       0.0
 9 H  s               0.0       0.0       0.3       3.5       2.5       0.4
 9 H  py              0.0       0.0       0.0       0.3       0.2       0.0
10 H  s               0.0       0.1       0.2       3.6       2.9       0.5
10 H  px              0.0       0.0       0.0       0.3       0.2       0.0
11 H  s               0.0       0.1       1.8       0.4       4.6       0.9
11 H  pz              0.0       0.0       0.2       0.0       0.4       0.1
12 H  s               0.0       0.1       1.8       0.5       3.2       1.3
12 H  py              0.0       0.0       0.2       0.0       0.3       0.1
13 H  s               0.0       0.0       3.2       0.8       0.0       0.0
13 H  pz              0.0       0.0       0.1       0.0       0.0       0.0
13 H  px              0.0       0.0       0.1       0.0       0.0       0.0
14 H  s               0.0       0.0       1.2       0.7       3.4       3.2
14 H  py              0.0       0.0       0.1       0.1       0.3       0.3
15 H  s               0.0       0.0       1.2       0.8       4.0       2.4
15 H  px              0.0       0.0       0.1       0.1       0.3       0.2
16 H  s               0.0       0.0       1.3       0.6       4.1       2.3
16 H  pz              0.0       0.0       0.1       0.0       0.2       0.1
16 H  px              0.0       0.0       0.0       0.0       0.1       0.1
17 H  s               0.0       0.0       1.3       0.7       0.0       6.5
17 H  pz              0.0       0.0       0.1       0.0       0.0       0.3
17 H  px              0.0       0.0       0.0       0.0       0.0       0.2
18 H  s               0.0       0.0       1.3       0.7       0.0       6.9
18 H  pz              0.0       0.0       0.1       0.0       0.0       0.4
18 H  py              0.0       0.0       0.0       0.0       0.0       0.1
19 H  s               0.0       0.0       1.3       0.9       0.0       6.7
19 H  px              0.0       0.0       0.1       0.1       0.0       0.5
20 H  s               0.0      10.4       0.4       2.0       0.0       0.0
20 H  pz              0.0       2.1       0.1       0.3       0.0       0.0

                     12        13        14        15        16        17   
                  -0.56535  -0.52055  -0.47964  -0.43682  -0.41746  -0.40393
                   2.00000   2.00000   2.00000   2.00000   2.00000   2.00000
                  --------  --------  --------  --------  --------  --------
 0 C  s               8.5       0.9       0.0       0.4       0.1       0.1
 0 C  pz              5.2       2.6       0.7       1.7       0.1       3.4
 0 C  px              0.3       0.6       2.5       3.3       2.0       2.2
 0 C  py              0.7       0.7       4.2       1.3       2.6       0.4
 0 C  dz2             0.1       0.1       0.0       0.0       0.0       0.0
 1 C  s               9.5       1.9       1.2       0.0       0.8       0.7
 1 C  pz              1.6       0.1       0.3       1.5       0.4       4.6
 1 C  px              0.2       4.8       7.1       0.7       3.8       0.4
 1 C  py              1.8       1.8      16.9       4.9       3.7       0.2
 1 C  dx2y2           0.0       0.0       0.1       0.0       0.0       0.1
 1 C  dxy             0.0       0.1       0.0       0.0       0.1       0.0
 2 H  s               4.8       1.2       8.5       1.5       0.3       0.8
 2 H  py              0.4       0.1       0.4       0.0       0.0       0.0
 3 C  s               0.5       3.7       0.6       0.2       0.1       0.1
 3 C  pz              0.1       0.9       0.7      17.5       0.0       6.6
 3 C  px              6.8       3.0       0.1       0.2      11.5       0.0
 3 C  py              1.2       1.1       8.6       0.5       0.0       6.9
 3 C  dxz             0.1       0.0       0.0       0.0       0.1       0.0
 3 C  dx2y2           0.0       0.1       0.0       0.0       0.0       0.0
 3 C  dxy             0.1       0.0       0.0       0.0       0.1       0.0
 4 C  s               4.6       9.6       0.3       0.8       0.0       0.1
 4 C  pz              3.4       1.3       0.2       8.9       1.2       0.7
 4 C  px              0.0       3.2       0.5       6.2      13.4       0.9
 4 C  py              0.7       0.2       0.4       0.2       0.5       9.3
 5 C  s               3.4       1.8       0.0       0.5       0.1       0.0
 5 C  pz              2.5       5.9       0.0       0.8       0.8       7.1
 5 C  px              0.2       0.2       0.2       8.1       7.4       0.0
 5 C  py              0.1       0.8       0.4       3.9       4.4      12.2
 6 C  s               1.3       2.4       0.6       0.1       0.1       0.3
 6 C  pz              0.4       0.6       0.0       5.1       1.2       0.8
 6 C  px              0.0       0.1       2.0       2.7      11.4       2.5
 6 C  py              1.7       6.5       1.1       1.2       3.2       7.7
 6 C  dx2y2           0.0       0.1       0.0       0.0       0.0       0.1
 7 O  s               1.2       0.0       0.6       0.5       1.1       0.0
 7 O  pz              7.3      11.8      21.5       0.1       5.3       2.9
 7 O  px              4.2       0.5       0.7       0.5       3.4       1.1
 7 O  py              0.5       0.5       3.0       1.8       0.6       0.0
 7 O  dz2             0.6       0.0       0.0       0.0       0.0       0.1
 7 O  dxz             0.5       0.2       0.1       0.1       0.0       0.3
 7 O  dyz             0.2       0.2       0.1       0.1       0.1       0.0
 7 O  dx2y2           0.2       0.1       0.0       0.0       0.3       0.0
 7 O  dxy             0.3       0.2       0.7       0.2       0.0       0.0
 8 H  s               3.5       1.2       1.7       0.2       0.0       0.1
 8 H  px              0.1       0.0       0.0       0.1       0.0       0.0
 9 H  s               3.8       1.1       0.7       0.1       1.2       0.3
 9 H  py              0.3       0.1       0.0       0.0       0.0       0.0
10 H  s               3.2       0.1       0.1       2.5       1.1       1.3
10 H  px              0.2       0.0       0.0       0.1       0.0       0.0
11 H  s               0.3       2.2       0.2       7.4       0.1       4.7
11 H  pz              0.0       0.1       0.0       0.2       0.0       0.1
12 H  s               0.4       2.9       3.7       0.1       0.0       2.6
12 H  py              0.0       0.2       0.2       0.0       0.0       0.0
13 H  s               2.7       7.1       0.0       2.8       1.2       1.3
13 H  pz              0.1       0.2       0.0       0.0       0.1       0.0
13 H  px              0.1       0.2       0.0       0.0       0.0       0.0
14 H  s               1.1       1.3       0.2       1.5       2.7       5.2
14 H  py              0.1       0.1       0.0       0.0       0.1       0.1
15 H  s               1.7       0.8       0.1       3.7       2.0       0.6
15 H  px              0.1       0.1       0.0       0.1       0.0       0.1
16 H  s               1.4       2.6       0.1       0.3       1.3       4.3
16 H  px              0.1       0.1       0.0       0.0       0.0       0.1
17 H  s               1.0       2.6       0.0       1.4       1.7       0.0
17 H  pz              0.0       0.1       0.0       0.0       0.1       0.0
18 H  s               0.5       1.6       0.4       1.9       2.7       1.8
19 H  s               0.6       1.3       1.3       0.7       3.1       2.1
20 H  s               2.4       2.8       6.0       0.0       1.0       0.8
20 H  pz              0.2       0.1       0.2       0.0       0.0       0.0

                     18        19        20        21        22        23   
                  -0.38991  -0.36489  -0.36088  -0.34722  -0.33364  -0.32857
                   2.00000   2.00000   2.00000   2.00000   2.00000   2.00000
                  --------  --------  --------  --------  --------  --------
 0 C  pz              0.7       6.8       5.7       3.8       2.7       0.0
 0 C  px              2.6       1.6      14.4      17.0       4.7       0.5
 0 C  py             10.2       8.9       2.4       1.8      15.2       5.9
 0 C  dz2             0.0       0.1       0.0       0.1       0.0       0.0
 0 C  dxz             0.0       0.0       0.2       0.2       0.0       0.0
 0 C  dyz             0.0       0.0       0.1       0.1       0.1       0.0
 0 C  dx2y2           0.1       0.0       0.0       0.0       0.3       0.1
 0 C  dxy             0.0       0.0       0.1       0.1       0.0       0.0
 1 C  s               0.2       0.0       0.0       0.1       0.1       0.0
 1 C  pz              0.0      14.0       1.1       0.3       1.7       0.1
 1 C  px              1.5       0.2       0.8       0.3       0.1       2.0
 1 C  py              4.0       0.3       0.0       0.9       2.1       3.2
 1 C  dxz             0.0       0.1       0.2       0.2       0.0       0.1
 1 C  dyz             0.0       0.0       0.0       0.1       0.2       0.1
 1 C  dx2y2           0.0       0.0       0.0       0.0       0.0       0.2
 2 H  s               0.9       0.2       0.0       0.6       1.3       2.3
 2 H  pz              0.0       0.2       0.0       0.0       0.0       0.0
 3 C  s               0.6       0.5       0.1       0.1       0.0       0.1
 3 C  pz              1.5       0.0       0.2       0.6       3.5       0.2
 3 C  px              0.2       0.4       0.1       0.0       3.9       0.5
 3 C  py              7.8       0.5       0.8       0.0       1.8      12.9
 3 C  dz2             0.0       0.0       0.0       0.0       0.1       0.1
 3 C  dx2y2           0.1       0.0       0.0       0.0       0.0       0.1
 4 C  s               0.0       0.2       0.0       0.0       0.1       0.0
 4 C  pz              3.9       1.4       0.5       0.5       3.1       0.1
 4 C  px              0.1       0.0       0.3       0.8       0.0       0.3
 4 C  py              2.4       1.9       0.0       0.5       0.4       1.1
 4 C  dyz             0.1       0.0       0.0       0.0       0.1       0.0
 4 C  dxy             0.0       0.0       0.1       0.2       0.0       0.0
 5 C  s               0.1       0.0       0.0       0.1       0.1       0.0
 5 C  pz              2.0       8.2       2.0       1.1       1.5       1.6
 5 C  px              0.0       3.8      15.1       9.5       0.3       1.0
 5 C  py              3.4       3.7       0.3       0.5       0.6      12.9
 5 C  dxz             0.0       0.0       0.2       0.0       0.0       0.0
 5 C  dx2y2           0.0       0.2       0.0       0.0       0.0       0.3
 6 C  pz             23.3       1.8       1.6       2.0      11.4       3.1
 6 C  px              1.6       1.1      10.3      12.9       1.4       3.6
 6 C  py              0.2       0.6       0.0       0.9       0.2       2.0
 6 C  dxz             0.0       0.0       0.1       0.1       0.0       0.0
 6 C  dyz             0.0       0.0       0.0       0.0       0.2       0.1
 6 C  dx2y2           0.1       0.0       0.0       0.0       0.1       0.0
 7 O  s               0.0       2.1       0.0       0.7       0.4       0.6
 7 O  pz              0.1       0.2       1.5       2.3       0.5       0.2
 7 O  px              0.2      17.4       2.6       0.4       6.7       0.7
 7 O  py              1.8       3.5       0.5       1.8       0.6       9.2
 7 O  dz2             0.0       0.2       0.4       0.4       0.0       0.0
 7 O  dxz             0.1       0.2       0.0       0.0       0.0       0.0
 7 O  dyz             0.2       0.1       0.0       0.0       0.0       0.0
 7 O  dx2y2           0.1       0.0       0.0       0.0       0.1       0.3
 7 O  dxy             0.0       0.1       0.0       0.0       0.1       0.0
 8 H  s               0.5       0.0      11.1      11.2       1.2       0.4
 8 H  pz              0.0       0.1       0.1       0.1       0.0       0.0
 8 H  px              0.1       0.0       0.0       0.0       0.2       0.0
 9 H  s               3.9       5.8       0.7       0.4       8.4       3.9
 9 H  px              0.0       0.0       0.1       0.1       0.0       0.0
 9 H  py              0.1       0.1       0.0       0.0       0.1       0.0
10 H  s               2.7       0.4       3.9       5.7       6.4       1.1
10 H  px              0.1       0.0       0.0       0.0       0.2       0.0
11 H  s               0.6       0.1       0.0       0.1       3.1       1.2
12 H  s               4.3       0.6       0.1       0.1       1.7       6.5
12 H  py              0.1       0.0       0.0       0.0       0.0       0.1
13 H  s               0.3       0.0       0.5       1.1       1.0       0.4
14 H  s               1.4       2.9       0.0       0.0       0.2       8.7
14 H  px              0.0       0.0       0.1       0.1       0.0       0.0
14 H  py              0.0       0.1       0.0       0.0       0.0       0.1
15 H  s               0.0       4.5       5.5       2.8       0.1       2.1
15 H  px              0.0       0.1       0.1       0.0       0.0       0.1
16 H  s               0.3       1.2       7.2       3.1       0.5       1.4
16 H  pz              0.0       0.0       0.1       0.1       0.0       0.0
16 H  px              0.0       0.1       0.0       0.0       0.0       0.1
17 H  s               3.8       1.7       3.6       7.3       1.9       0.1
17 H  px              0.2       0.0       0.0       0.0       0.1       0.0
18 H  s               7.1       0.1       0.1       0.0       5.3       3.9
18 H  px              0.0       0.0       0.1       0.1       0.0       0.0
18 H  py              0.2       0.0       0.0       0.0       0.1       0.0
19 H  s               3.1       0.1       3.2       4.5       2.5       2.7
19 H  px              0.1       0.0       0.0       0.0       0.1       0.0
20 H  s               0.0       0.0       0.3       0.7       0.1       0.2
20 H  px              0.0       0.3       0.1       0.0       0.1       0.0
20 H  py              0.0       0.0       0.0       0.0       0.0       0.1

                     24        25        26        27        28        29   
                  -0.30958  -0.29865  -0.29199  -0.27883  -0.22884   0.06425
                   2.00000   2.00000   2.00000   2.00000   2.00000   0.00000
                  --------  --------  --------  --------  --------  --------
 0 C  s               0.2       0.0       0.0       1.0       0.0       4.3
 0 C  pz              9.6       0.1       0.2       6.0       0.0       1.0
 0 C  px              0.2       0.2       1.1       3.5       0.0       0.3
 0 C  py              1.7       0.0       0.5       0.4       0.3       0.1
 0 C  dz2             0.1       0.0       0.0       0.1       0.0       0.0
 0 C  dxz             0.1       0.0       0.0       0.0       0.0       0.3
 0 C  dyz             0.0       0.0       0.0       0.0       0.0       0.2
 1 C  s               0.3       0.0       0.2       0.3       0.1       4.3
 1 C  pz              3.5       0.0       0.8       4.0       0.1       4.9
 1 C  px              1.0       1.1       0.1       7.2       1.4       2.7
 1 C  py              2.3       0.4       1.9       1.5       5.6       4.0
 1 C  dz2             0.5       0.0       0.0       0.7       0.0       0.2
 1 C  dxz             0.1       0.1       0.1       0.0       0.0       0.2
 1 C  dyz             0.0       0.0       0.0       0.1       0.1       0.1
 1 C  dx2y2           0.1       0.0       0.1       0.1       0.8       0.1
 1 C  dxy             0.0       0.0       0.0       0.0       0.7       0.0
 2 H  s               0.8       0.1       1.5       4.1       7.2       1.7
 2 H  pz              0.0       0.0       0.0       0.0       0.0       0.2
 2 H  px              0.0       0.0       0.0       0.1       0.0       0.0
 2 H  py              0.0       0.0       0.0       0.0       0.0       0.9
 3 C  s               1.3       0.0       0.5       0.0       0.6       3.5
 3 C  pz              5.2       0.8      12.1       2.4       0.5       3.8
 3 C  px              0.9       0.0       4.4       6.3       6.4       2.8
 3 C  py              1.2       7.2       2.0       0.5       1.6       0.3
 3 C  dz2             0.0       0.2       0.2       0.3       0.0       0.1
 3 C  dxz             0.1       0.0       0.0       0.1       0.1       0.1
 3 C  dyz             0.0       0.0       0.0       0.0       0.0       0.2
 3 C  dx2y2           0.0       0.2       0.4       0.0       0.0       0.0
 3 C  dxy             0.0       0.2       0.0       0.1       0.0       0.2
 4 C  s               0.1       0.0       0.0       0.1       0.1       0.4
 4 C  pz              2.2       1.9      13.1       3.3       0.0       0.0
 4 C  px              7.0       0.1       5.1       6.6       2.3       1.0
 4 C  py              0.1      19.1       2.0       0.0       0.0       0.0
 4 C  dz2             0.1       0.4       0.0       0.0       0.0       0.0
 4 C  dxz             0.3       0.0       0.0       0.4       0.1       0.1
 4 C  dyz             0.1       0.2       0.2       0.1       0.0       0.0
 4 C  dx2y2           0.0       0.2       0.5       0.0       0.0       0.0
 5 C  s               0.0       0.6       0.3       0.2       0.0       3.4
 5 C  pz              1.8       4.0       9.4       3.1       0.0       0.3
 5 C  px              6.5       1.3       2.3       1.0       0.2       0.1
 5 C  py              0.0      11.5       0.1       0.1       0.0       0.1
 5 C  dz2             0.0       0.3       0.0       0.0       0.0       0.0
 5 C  dxz             0.3       0.0       0.0       0.2       0.0       0.0
 5 C  dyz             0.0       0.0       0.1       0.0       0.0       0.0
 5 C  dx2y2           0.0       0.1       0.2       0.0       0.0       0.0
 6 C  s               0.0       0.8       0.1       0.1       0.0       3.7
 6 C  pz              1.2       0.6       3.5       0.4       0.0       0.0
 6 C  px              5.4       0.2       1.2       0.7       0.4       0.1
 6 C  py              0.0      20.3       3.4       0.0       0.3       0.4
 6 C  dxz             0.1       0.0       0.0       0.0       0.0       0.0
 6 C  dyz             0.1       0.2       0.2       0.1       0.0       0.0
 6 C  dx2y2           0.0       0.1       0.1       0.0       0.0       0.1
 6 C  dxy             0.1       0.0       0.0       0.1       0.0       0.0
 7 O  s               1.9       0.2       0.4       1.7       0.0       4.9
 7 O  pz              5.6       0.0       0.6       1.2       1.1       4.3
 7 O  px              7.4       0.5       9.4       9.3      11.4       1.2
 7 O  py              1.1       5.5       0.4       9.3      51.4       0.3
 7 O  dz2             1.0       0.0       0.1       1.3       0.0       2.1
 7 O  dxz             0.0       0.0       0.0       0.0       0.0       1.5
 7 O  dyz             0.0       0.0       0.0       0.0       0.3       1.5
 7 O  dx2y2           0.0       0.1       0.0       0.0       0.5       0.6
 7 O  dxy             0.1       0.0       0.0       0.0       0.3       0.0
 8 H  s               1.2       0.1       0.0       0.0       0.0       2.6
 8 H  pz              0.0       0.0       0.0       0.1       0.0       0.2
 8 H  px              0.0       0.0       0.0       0.0       0.0       0.3
 8 H  py              0.1       0.0       0.0       0.0       0.0       0.1
 9 H  s               1.3       0.1       0.6       0.2       0.7       0.6
 9 H  py              0.0       0.0       0.0       0.0       0.0       0.1
10 H  s               0.1       0.1       1.1       1.9       0.3       0.3
10 H  px              0.0       0.0       0.0       0.0       0.0       0.1
11 H  s               1.0       1.8       5.5       3.7       0.0       2.3
11 H  pz              0.0       0.0       0.0       0.0       0.0       0.8
11 H  px              0.0       0.0       0.1       0.0       0.1       0.1
11 H  py              0.0       0.0       0.1       0.0       0.0       0.4
12 H  s               0.0       6.3       1.3       1.4       0.4       0.8
12 H  pz              0.0       0.0       0.1       0.0       0.0       0.2
12 H  px              0.0       0.0       0.0       0.1       0.1       0.1
12 H  py              0.0       0.0       0.0       0.0       0.0       0.2
13 H  s               6.4       0.4       1.8       7.5       1.4       0.3
13 H  px              0.0       0.0       0.2       0.0       0.0       0.1
13 H  py              0.0       0.2       0.0       0.0       0.0       0.0
14 H  s               0.1       5.3       0.8       0.0       0.0       0.3
15 H  s               3.7       0.3       2.9       0.6       0.2       1.1
15 H  px              0.0       0.0       0.0       0.0       0.0       0.3
15 H  py              0.0       0.1       0.0       0.0       0.0       0.0
16 H  s               4.2       0.6       0.8       2.4       0.1       0.6
16 H  px              0.0       0.0       0.1       0.0       0.0       0.2
17 H  s               4.1       0.0       0.9       1.2       0.4       0.6
17 H  pz              0.0       0.0       0.0       0.0       0.0       0.2
17 H  px              0.0       0.0       0.1       0.0       0.0       0.1
17 H  py              0.0       0.2       0.0       0.0       0.0       0.0
18 H  s               0.2       4.0       1.3       0.3       0.0       0.7
18 H  pz              0.0       0.1       0.0       0.0       0.0       0.3
19 H  s               3.1       0.2       2.1       0.3       0.4       0.7
19 H  px              0.0       0.0       0.0       0.0       0.0       0.3
19 H  py              0.0       0.2       0.0       0.0       0.0       0.0
20 H  s               1.7       0.1       0.3       1.2       0.0      16.9
20 H  pz              0.0       0.0       0.0       0.0       0.0       3.8
20 H  px              0.1       0.0       0.1       0.1       0.2       0.2
20 H  py              0.0       0.1       0.0       0.1       1.0       0.2

                     30        31        32        33        34        35   
                   0.07769   0.10683   0.11993   0.12414   0.13633   0.13951
                   0.00000   0.00000   0.00000   0.00000   0.00000   0.00000
                  --------  --------  --------  --------  --------  --------
 0 C  s               1.6       3.4       2.6      12.6       2.3       2.6
 0 C  pz              0.2       2.1      10.0       6.4       1.7       2.3
 0 C  px              0.8       0.3       1.0       0.9       1.0       0.7
 0 C  py              0.0       4.1       1.1       1.4       5.4       3.5
 0 C  dz2             0.3       0.0       0.3       0.0       0.1       0.4
 0 C  dxz             0.2       0.1       0.0       0.3       0.1       0.1
 0 C  dyz             0.0       0.1       0.0       0.4       0.1       0.0
 0 C  dx2y2           0.1       0.2       0.0       0.1       0.2       0.2
 0 C  dxy             0.0       0.0       0.0       0.1       0.1       0.0
 1 C  s               0.7       2.1       3.6       0.1       0.3       0.1
 1 C  pz              5.3       1.8       0.1       9.5       2.0       1.3
 1 C  px              8.0       2.2       0.4       0.4       1.2       1.1
 1 C  py              0.4       4.4       0.6       0.9       1.4       3.7
[...]
 2 H  px              0.0       0.1       0.0       0.0       0.0       0.0
 2 H  py              0.0       1.4       0.0       0.0       0.0       0.0
 3 C  s               0.3       0.0       0.1       4.0       0.0       3.7
 3 C  pz              5.1       0.1       0.0       0.0       0.0       0.0
 3 C  px              0.2       0.1       0.0       0.0       0.0       0.0
 3 C  py              1.3       0.0       0.0       0.0       0.0       0.0
 3 C  dz2             9.8       0.0       0.0       0.0       0.0       0.0
 3 C  dxz             0.8       0.2       0.0       0.0       0.0       0.0
 3 C  dyz             0.5       0.0       0.0       0.0       0.0       0.0
 3 C  dx2y2           0.2       0.1       0.0       0.0       0.0       0.0
 3 C  dxy             0.3       0.1       0.0       0.0       0.0       0.0
 4 C  s               1.6       0.1       0.1       9.8       0.0       0.4
 4 C  pz              2.0       0.0       0.0       0.0       0.0       0.0
 4 C  px              3.6       0.1       0.0       0.0       0.0       0.0
 4 C  py              0.6       0.0       0.0       0.0       0.0       0.0
 4 C  dz2             1.0       0.0       0.0       0.0       0.0       0.0
 4 C  dxz             8.9       0.1       0.0       0.0       0.0       0.0
 4 C  dyz             0.7       0.0       0.0       0.0       0.0       0.0
 4 C  dx2y2           1.3       0.0       0.0       0.0       0.0       0.0
 4 C  dxy             2.1       0.0       0.0       0.0       0.0       0.0
 5 C  s               0.0       0.1       0.0      25.7       0.9      59.7
 5 C  pz              0.7       0.0       0.0       0.0       0.0       0.0
 5 C  px              0.7       0.0       0.0       0.0       0.0       0.0
 5 C  dz2             0.1       0.0       0.0       0.0       0.0       0.0
 5 C  dxz             1.9       0.0       0.0       0.0       0.0       0.0
 5 C  dyz             0.6       0.0       0.0       0.0       0.0       0.0
 5 C  dx2y2           0.2       0.0       0.0       0.0       0.0       0.0
 5 C  dxy             0.3       0.0       0.0       0.0       0.0       0.0
 6 C  s               0.2       0.0       0.0      33.6      38.6      21.9
 6 C  pz              0.3       0.0       0.0       0.0       0.0       0.0
 6 C  py              0.7       0.0       0.0       0.0       0.0       0.0
 6 C  dz2             0.2       0.0       0.0       0.0       0.0       0.0
 6 C  dxz             0.7       0.0       0.0       0.0       0.0       0.0
 6 C  dyz             0.3       0.0       0.0       0.0       0.0       0.0
 6 C  dx2y2           1.2       0.0       0.0       0.0       0.0       0.0
 6 C  dxy             0.2       0.0       0.0       0.0       0.0       0.0
 7 O  s               0.5      28.0       6.1       0.0       0.0       0.0
 7 O  pz              0.1       3.5      20.2       0.0       0.0       0.0
 7 O  px              0.1      13.3       0.1       0.0       0.0       0.0
 7 O  py              0.0       1.4       0.3       0.0       0.0       0.0
 7 O  dz2             0.0       2.9      24.5       0.0       0.0       0.0
 7 O  dxz             0.0       9.1       8.4       0.0       0.0       0.0
 7 O  dyz             0.0       0.1       6.5       0.0       0.0       0.0
 7 O  dx2y2           0.0       6.2       0.4       0.0       0.0       0.0
 7 O  dxy             0.0       3.9       0.0       0.0       0.0       0.0
 8 H  px              0.1       0.1       0.0       0.0       0.0       0.0
10 H  px              0.2       0.0       0.0       0.0       0.0       0.0
11 H  s               4.4       0.0       0.0       0.0       0.0       0.0
11 H  pz              9.4       0.0       0.0       0.0       0.0       0.0
11 H  py              0.6       0.0       0.0       0.0       0.0       0.0
12 H  s               1.8       0.0       0.0       0.0       0.0       0.0
12 H  pz              0.5       0.0       0.0       0.0       0.0       0.0
12 H  px              0.1       0.0       0.0       0.0       0.0       0.0
12 H  py              4.0       0.0       0.0       0.0       0.0       0.0
13 H  s               5.2       0.0       0.0       0.0       0.0       0.0
13 H  pz              5.7       0.0       0.0       0.0       0.0       0.0
13 H  px              5.6       0.0       0.0       0.0       0.0       0.0
13 H  py              2.0       0.0       0.0       0.0       0.0       0.0
15 H  s               0.2       0.0       0.0       0.0       0.0       0.0
15 H  pz              0.1       0.0       0.0       0.0       0.0       0.0
15 H  px              0.3       0.0       0.0       0.0       0.0       0.0
16 H  s               1.4       0.0       0.0       0.0       0.0       0.0
16 H  pz              2.8       0.0       0.0       0.0       0.0       0.0
16 H  px              0.7       0.0       0.0       0.0       0.0       0.0
16 H  py              0.4       0.0       0.0       0.0       0.0       0.0
17 H  s               0.5       0.0       0.0       0.0       0.0       0.0
17 H  pz              0.6       0.0       0.0       0.0       0.0       0.0
17 H  px              0.7       0.0       0.0       0.0       0.0       0.0
17 H  py              0.1       0.0       0.0       0.0       0.0       0.0
20 H  s               0.0       0.6      14.0       0.0       0.0       0.0
20 H  pz              0.0       1.0      14.5       0.0       0.0       0.0
20 H  px              0.0       0.0       0.6       0.0       0.0       0.0
20 H  py              0.0       0.0       0.8       0.0       0.0       0.0

                    204       205       206       207   
                  22.06013  22.13859  22.14481  43.70410
                   0.00000   0.00000   0.00000   0.00000
                  --------  --------  --------  --------
 0 C  s               0.1       2.4       2.1       0.0
 1 C  s               2.7      40.3      51.1       0.1
 3 C  s              76.1      12.2       3.6       0.0
 4 C  s              17.9      33.5      38.2       0.0
 5 C  s               2.6      10.7       0.1       0.0
 6 C  s               0.3       0.5       4.7       0.0
 7 O  s               0.0       0.0       0.0      99.8


                      *****************************
                      * MAYER POPULATION ANALYSIS *
                      *****************************

  NA   - Mulliken gross atomic population
  ZA   - Total nuclear charge
  QA   - Mulliken gross atomic charge
  VA   - Mayer's total valence
  BVA  - Mayer's bonded valence
  FA   - Mayer's free valence

  ATOM       NA         ZA         QA         VA         BVA        FA
  0 C      6.5043     6.0000    -0.5043     3.8156     3.8156     0.0000
  1 C      5.9693     6.0000     0.0307     3.5757     3.5757    -0.0000
  2 H      0.8604     1.0000     0.1396     0.9450     0.9450    -0.0000
  3 C      6.2837     6.0000    -0.2837     3.5692     3.5692    -0.0000
  4 C      6.0354     6.0000    -0.0354     3.5310     3.5310    -0.0000
  5 C      6.4845     6.0000    -0.4845     3.7828     3.7828    -0.0000
  6 C      6.5021     6.0000    -0.5021     3.7602     3.7602     0.0000
  7 O      8.4240     8.0000    -0.4240     1.7805     1.7805     0.0000
  8 H      0.8579     1.0000     0.1421     0.9648     0.9648     0.0000
  9 H      0.8400     1.0000     0.1600     0.9613     0.9613     0.0000
 10 H      0.8394     1.0000     0.1606     0.9624     0.9624    -0.0000
 11 H      0.8729     1.0000     0.1271     0.9667     0.9667     0.0000
 12 H      0.8404     1.0000     0.1596     0.9650     0.9650     0.0000
 13 H      0.8569     1.0000     0.1431     0.9550     0.9550    -0.0000
 14 H      0.8512     1.0000     0.1488     0.9650     0.9650     0.0000
 15 H      0.8553     1.0000     0.1447     0.9640     0.9640     0.0000
 16 H      0.8539     1.0000     0.1461     0.9670     0.9670     0.0000
 17 H      0.8470     1.0000     0.1530     0.9618     0.9618     0.0000
 18 H      0.8496     1.0000     0.1504     0.9618     0.9618     0.0000
 19 H      0.8530     1.0000     0.1470     0.9638     0.9638     0.0000
 20 H      0.7186     1.0000     0.2814     0.9208     0.9208     0.0000

  Mayer bond orders larger than 0.100000
B(  0-C ,  1-C ) :   0.9004 B(  0-C ,  8-H ) :   0.9706 B(  0-C ,  9-H ) :   0.9808 
B(  0-C , 10-H ) :   0.9643 B(  1-C ,  2-H ) :   0.9640 B(  1-C ,  3-C ) :   0.8920 
B(  1-C ,  7-O ) :   0.8734 B(  3-C ,  4-C ) :   0.8917 B(  3-C , 11-H ) :   0.9620 
B(  3-C , 12-H ) :   0.9926 B(  4-C ,  5-C ) :   0.9373 B(  4-C ,  6-C ) :   0.8856 
B(  4-C , 13-H ) :   0.9595 B(  5-C , 14-H ) :   0.9771 B(  5-C , 15-H ) :   0.9716 
B(  5-C , 16-H ) :   0.9741 B(  6-C , 17-H ) :   0.9752 B(  6-C , 18-H ) :   0.9769 
B(  6-C , 19-H ) :   0.9691 B(  7-O , 20-H ) :   0.9011 

-------
TIMINGS
-------

Total SCF time: 0 days 0 hours 0 min 27 sec 

Total time                  ....      27.657 sec
Sum of individual times     ....      27.119 sec  ( 98.1%)

SCF preparation             ....       0.207 sec  (  0.8%)
Fock matrix formation       ....      25.820 sec  ( 93.4%)
  Startup                   ....       0.074 sec  (  0.3% of F)
  Split-RI-J                ....       4.767 sec  ( 18.5% of F)
  XC integration            ....      20.357 sec  ( 78.8% of F)
    Basis function eval.    ....       3.789 sec  ( 18.6% of XC)
    Density eval.           ....       6.226 sec  ( 30.6% of XC)
    XC-Functional eval.     ....       2.608 sec  ( 12.8% of XC)
    XC-Potential eval.      ....       6.571 sec  ( 32.3% of XC)
Diagonalization             ....       0.000 sec  (  0.0%)
Density matrix formation    ....       0.269 sec  (  1.0%)
Total Energy calculation    ....       0.037 sec  (  0.1%)
Population analysis         ....       0.137 sec  (  0.5%)
Orbital Transformation      ....       0.062 sec  (  0.2%)
Orbital Orthonormalization  ....       0.000 sec  (  0.0%)
DIIS solution               ....       0.515 sec  (  1.9%)
  MO trafo                  ....       0.000 sec  (  0.0 % of DIIS)
  Orb grad                  ....       0.000 sec  (  0.0 % of DIIS)
  Energy W gradient         ....       0.000 sec  (  0.0 % of DIIS)
  DIIS error                ....       0.017 sec  (  3.3 % of DIIS)
  DIIS work                 ....       0.439 sec  ( 85.1 % of DIIS)
  Form Q                    ....       0.000 sec  (  0.0 % of DIIS)
  Form QpQm                 ....       0.000 sec  (  0.0 % of DIIS)
  Exp/Cayley                ....       0.000 sec  (  0.0 % of DIIS)
  Orb update                ....       0.000 sec  (  0.0 % of DIIS)
  Wake-sleep                ....       0.026 sec  (  5.0 % of DIIS)
SOSCF solution              ....       0.071 sec  (  0.3%)
  MO trafo                  ....       0.044 sec  ( 62.3 % of SOSCF)
  Orb grad                  ....       0.001 sec  (  1.1 % of SOSCF)
  Rot update                ....       0.000 sec  (  0.1 % of SOSCF)
  Step                      ....       0.026 sec  ( 36.3 % of SOSCF)
Finished LeanSCF after  27.8 sec

Maximum memory used throughout the entire LEANSCF-calculation: 23.4 MB


-------------------------------------------------------------------------------
                          DFT DISPERSION CORRECTION                            
                                                                               
                                DFTD4 V3.4.0                                   
-------------------------------------------------------------------------------
The R2SCAN3C composite method is recognized
Using three-body term ABC
Active option DFTDOPT                   ...         5   

-------------------------   ----------------
Dispersion correction           -0.005786036
-------------------------   ----------------

------------------   -----------------
gCP correction             0.011310816
------------------   -----------------

-------------------------   --------------------
FINAL SINGLE POINT ENERGY      -312.198992413710
-------------------------   --------------------


------------------------------------------------------------------------------
                              ORCA PROPERTY CALCULATIONS
------------------------------------------------------------------------------

GBWName                                 ... sp_gas.gbw
Number of atoms                         ...     21
Number of basis functions               ...    208
Max core memory                         ...   1024 MB

Electric properties:
Dipole moment                           ... YES
Quadrupole moment                       ...  NO
Static polarizability (Dipole/Dipole)   ...  NO
Static polarizability (Dipole/Quad.)    ...  NO
Static polarizability (Quad./Quad.)     ...  NO
Static polarizability (Velocity)        ...  NO

Atomic electric properties:
Dipole moment                           ...  NO
Quadrupole moment                       ...  NO
Static polarizability                   ...  NO

Choice of electric origin               ... Center of mass
Position of electric origin             ...    -0.000027    -0.000002    -0.000014

General magnetic properties:
Magnetizability                         ...  NO

EPR properties:
g-Tensor (aka g-matrix)                 ...  NO
Zero-Field splitting spin-orbit         ...  NO
Zero-field splitting spin-spin          ...  NO
Hyperfine couplings                     ...  NO (   0 nuclei)
Quadrupole couplings                    ...  NO (   0 nuclei)
Contact density                         ...  NO (   0 nuclei)

NMR properties:
Chemical shifts                         ...  NO (   0 nuclei)
Spin-rotation constants                 ...  NO (   0 nuclei)
Spin-spin couplings                     ...  NO (   0 nuclei,    0 pairs)

Choice of magnetic origin               ... GIAO
Position of magnetic origin             ...     0.000000     0.000000     0.000000

Properties with geometric perturbations:
SCF Hessian                             ...  NO
IR spectrum                             ...  NO
VCD spectrum                            ...  NO
X-ray spectroscopy properties:
SCF XES/XAS/RIXS spectra                ...  NO


-------------
DIPOLE MOMENT
-------------

Method             : SCF
Type of density    : Electron Density
Multiplicity       :   1
Irrep              :   0
Energy             :  -312.2045171933394840 Eh
Relativity type    : 
Basis              : AO
                                X                 Y                 Z
Electronic contribution:      4.494022312       0.537364304       3.382590243
Nuclear contribution   :     -5.073311780      -0.755521127      -3.178497270
                        -----------------------------------------
Total Dipole Moment    :     -0.579289468      -0.218156822       0.204092972
                        -----------------------------------------
Magnitude (a.u.)       :      0.651784188
Magnitude (Debye)      :      1.656703745



--------------------
Rotational spectrum 
--------------------
 
Rotational constants in cm-1:             0.131036             0.052337             0.047548 
Rotational constants in MHz :          3928.367622          1569.009876          1425.458135 

Dipole components along the rotational axes: 
x,y,z [a.u.] :     0.530444     0.378598     0.010770 
x,y,z [Debye]:     1.348281     0.962319     0.027376 

 

Dipole moment calculation done in   0.0 sec 

Maximum memory used throughout the entire PROP-calculation: 13.1 MB

--------------------------------
SUGGESTED CITATIONS FOR THIS RUN
--------------------------------

Below you find a list of papers that are relevant to this ORCA run
We neither can nor want to force you to cite these papers, but we appreciate if you do
You receive ORCA, which is the product of decades of hard work by many enthusiastic individuals, for free
The only thing we kindly ask in return is that you cite our papers,
We deeply appreciate it, if you show your appreciation for ORCA by not just citing the generic ORCA reference.

Please note that relegating all ORCA citations to the supporting information does *not* help us.
SI sections are not indexed - citations you put there will not count into any citation statistics
But we need these citations in order to attract the funding resources that allow us to do what we are doing

Therefore, if you are a happy ORCA user, please consider citing a few of the papers listed below in the main body of your paper

In addition to the list printed below, the program has created the file sp_gas.bibtex that contains the list in bibtex format
You can import this file easily into all common literature databanks and citation aid programs


List of essential papers. We consider these as the minimum necessary citations

  1. Neese,F.
     Software update: the ORCA program system, version 5.0
     WIRES Comput. Molec. Sci., 2022 12(1)e1606
     doi.org/10.1002/wcms.1606
  2. Grimme,S.; Hansen,A.; Ehlert,S.; Mewes,J.
     r2SCAN-3c: A 'Swiss army knife' composite electronic-structure method
     J. Chem. Phys., 2021 154 064103
     doi.org/10.1063/5.0040021

List of papers to cite with high priority. The work reported in these papers was absolutely
necessary for this run to complete.
Our perspective: the developers of density functionals and basis sets usually get cited in chemistry papers
Good! But without the algorithms to do something with them, the functionals or basis sets would not do anything.
Hence, in our opinion, the algorithm design and method developments papers are equally worthy of getting cited

  1. Neese,F.
     An improvement of the resolution of the identity approximation for the formation of the Coulomb matrix
     J. Comp. Chem., 2003 24(14)1740-1747
     doi.org/10.1002/jcc.10318
  2. Neese,F.
     The SHARK Integral Generation and Digestion System
     J. Comp. Chem., 2022  1-16
     doi.org/10.1002/jcc.26942
  3. Lehtola,S.; Steigemann,C.; Oliveira,M.; Marques,M.
     Recent developments in Libxc - A comprehensive library of functionals for density functional theory
     Software X, 2018 7 
     doi.org/10.1016/j.softx.2017.11.002
  4. Caldeweyher,E.; Bannwarth,C.; Grimme,S.
     Extension of the D3 dispersion coefficient model
     J. Chem. Phys., 2017 147 034112-XXXX
     doi.org/10.1063/1.4993215
  5. Caldeweyher,E.; Ehlert,S.; Hansen,A.; Neugebauer,H.; Spicher,S.; Bannwarth,C.; Grimme,S.
     A generally applicable atomic-charge dependent London dispersion correction
     J. Chem. Phys., 2019 150 154122-XXXX
     doi.org/10.1063/1.5090222
  6. Caldeweyher,E.; Mewes,J.; Ehlert,S.; Grimme,S.
     Extension and evaluation of the D4 London-dispersion model for periodic systems
     Phys. Chem. Chem. Phys., 2020 22(16)8499-8512
     doi.org/10.1039/D0CP00502A

List of suggested additional citations. These are papers that are important in the 'surrounding' of 
of this run, or papers that preceded the highly important papers. If you like your results we are grateful for a citation.

  1. Neese,F.
     The ORCA program system
     WIRES Comput. Molec. Sci., 2012 2(1)73-78
     doi.org/10.1002/wcms.81
  2. Neese,F.
     Software update: the ORCA program system, version 4.0
     WIRES Comput. Molec. Sci., 2018 8(1)1-6
     doi.org/10.1002/wcms.1327
  3. Neese,F.; Wennmohs,F.; Becker,U.; Riplinger,C.
     The ORCA quantum chemistry program package
     J. Chem. Phys., 2020 152 Art. No. L224108
     doi.org/10.1063/5.0004608

List of optional additional citations

  1. Neese,F.
     Approximate second-order SCF convergence for spin unrestricted wavefunctions
     Chem. Phys. Lett., 2000 325(1-3)93-98
     doi.org/10.1016/s0009-2614(00)00662-x

Timings for individual modules:

Sum of individual times          ...       29.629 sec (=   0.494 min)
Startup calculation              ...        1.375 sec (=   0.023 min)   4.6 %
SCF iterations                   ...       28.137 sec (=   0.469 min)  95.0 %
Property calculations            ...        0.117 sec (=   0.002 min)   0.4 %
                             ****ORCA TERMINATED NORMALLY****
TOTAL RUN TIME: 0 days 0 hours 0 minutes 30 seconds 429 msec
