      -----------------------------------------------------------      
     |                   =====================                   |     
     |                           x T B                           |     
     |                   =====================                   |     
     |                         S. Grimme                         |     
     |          Mulliken Center for Theoretical Chemistry        |     
     |                    University of Bonn                     |     
      -----------------------------------------------------------      

   * xtb version 6.7.1 (edcfbbe) compiled by 'albert@albert-system' on 2024-07-22

   xtb is free software: you can redistribute it and/or modify it under
   the terms of the GNU Lesser General Public License as published by
   the Free Software Foundation, either version 3 of the License, or
   (at your option) any later version.
   
   xtb is distributed in the hope that it will be useful,
   but WITHOUT ANY WARRANTY; without even the implied warranty of
   MERCHANTABILITY or FITNESS FOR A PARTICULAR PURPOSE.  See the
   GNU Lesser General Public License for more details.
   
   Cite this work as:
   * C. Bannwarth, E. Caldeweyher, S. Ehlert, A. Hansen, P. Pracht,
     J. Seibert, S. Spicher, S. Grimme, WIREs Comput. Mol. Sci., 2020, 11,
     e01493. DOI: 10.1002/wcms.1493
   
   for GFN2-xTB:
   * C. Bannwarth, S. Ehlert and S. Grimme., J. Chem. Theory Comput., 2019,
     15, 1652-1671. DOI: 10.1021/acs.jctc.8b01176
   for GFN1-xTB:
   * S. Grimme, C. Bannwarth, P. Shushkov, J. Chem. Theory Comput., 2017,
     13, 1989-2009. DOI: 10.1021/acs.jctc.7b00118
   for GFN0-xTB:
   * P. Pracht, E. Caldeweyher, S. Ehlert, S. Grimme, ChemRxiv, 2019, preprint.
     DOI: 10.26434/chemrxiv.8326202.v1
   for GFN-FF:
   * S. Spicher and S. Grimme, Angew. Chem. Int. Ed., 2020, 59, 15665-15673.
     DOI: 10.1002/anie.202004239
   
   for ALPB and GBSA implicit solvation:
   * S. Ehlert, M. Stahn, S. Spicher, S. Grimme, J. Chem. Theory Comput.,
     2021, 17, 4250-4261. DOI: 10.1021/acs.jctc.1c00471
   
   for ddCOSMO and CPCM-X implicit solvation:
   * M. Stahn, S. Ehlert, S. Grimme, J. Phys. Chem. A,
     2023, XX, XXXX-XXXX. DOI: 10.1021/acs.jpca.3c04382
   
   for DFT-D4:
   * E. Caldeweyher, C. Bannwarth and S. Grimme, J. Chem. Phys., 2017,
     147, 034112. DOI: 10.1063/1.4993215
   * E. Caldeweyher, S. Ehlert, A. Hansen, H. Neugebauer, S. Spicher,
     C. Bannwarth and S. Grimme, J. Chem. Phys., 2019, 150, 154122.
     DOI: 10.1063/1.5090222
   * E. Caldeweyher, J.-M. Mewes, S. Ehlert and S. Grimme, Phys. Chem. Chem. Phys.
     2020, 22, 8499-8512. DOI: 10.1039/D0CP00502A
   
   for sTDA-xTB:
   * S. Grimme and C. Bannwarth, J. Chem. Phys., 2016, 145, 054103.
     DOI: 10.1063/1.4959605
   
   in the mass-spec context:
   * V. Asgeirsson, C. Bauer and S. Grimme, Chem. Sci., 2017, 8, 4879.
     DOI: 10.1039/c7sc00601b
   * J. Koopman and S. Grimme, ACS Omega 2019, 4, 12, 15120-15133.
     DOI: 10.1021/acsomega.9b02011
   
   for metadynamics refer to:
   * S. Grimme, J. Chem. Theory Comput., 2019, 155, 2847-2862
     DOI: 10.1021/acs.jctc.9b00143
   
   for SPH calculations refer to:
   * S. Spicher and S. Grimme, J. Chem. Theory Comput., 2021, 17, 1701-1714
     DOI: 10.1021/acs.jctc.0c01306
   
   for ONIOM refer to:
   * C. Plett, A. Katbashev, S. Ehlert, S. Grimme, M. Bursch,
     Phys. Chem. Chem. Phys., 2023, 25, 17860-17868. DOI: 10.1039/D3CP02178E
   
   for DIPRO refer to:
   * J. Kohn, N. Gildemeister, S. Grimme, D. Fazzi, A. Hansen,
     J. Chem. Phys., 2023, just accepted.
   
   for PTB refer to:
   * S. Grimme, M. Mueller, A. Hansen, J. Chem. Phys., 2023, 158, 124111.
     DOI: 10.1063/5.0137838
   
   with help from (in alphabetical order)
   P. Atkinson, C. Bannwarth, F. Bohle, G. Brandenburg, E. Caldeweyher
   M. Checinski, S. Dohm, S. Ehlert, S. Ehrlich, I. Gerasimov, C. Hölzer
   A. Katbashev, J. Kohn, J. Koopman, C. Lavigne, S. Lehtola, F. März, M. Müller,
   F. Musil, H. Neugebauer, J. Pisarek, C. Plett, P. Pracht, F. Pultar,
   J. Seibert, P. Shushkov, S. Spicher, M. Stahn, M. Steiner, T. Strunk,
   J. Stückrath, T. Rose, and J. Unsleber
   
 * started run on 2025/04/11 at 12:40:57.465     
   ID    Z sym.   atoms
    1    6 C      1-3, 5, 6
    2    1 H      4, 8-18
    3    8 O      7

           -------------------------------------------------
          |                Calculation Setup                |
           -------------------------------------------------

          program call               : /srv/scratch/z5358697/.xtb/bin/xtb xtb_rrho.coord --gfn2 --ohess vtight --chrg 0 --enso --norestart -I rrho-xcontrol-inp --parallel 1 --alpb water
          hostname                   : k114
          coordinate file            : xtb_rrho.coord
          omp threads                :                     1


           -------------------------------------------------
          |                 G F N 2 - x T B                 |
           -------------------------------------------------

        Reference                      10.1021/acs.jctc.8b01176
      * Hamiltonian:
        H0-scaling (s, p, d)           1.850000    2.230000    2.230000
        zeta-weighting                 0.500000
      * Dispersion:
        s8                             2.700000
        a1                             0.520000
        a2                             5.000000
        s9                             5.000000
      * Repulsion:
        kExp                           1.500000    1.000000
        rExp                           1.000000
      * Coulomb:
        alpha                          2.000000
        third order                    shell-resolved
        anisotropic                    true
        a3                             3.000000
        a5                             4.000000
        cn-shift                       1.200000
        cn-exp                         4.000000
        max-rad                        5.000000

      * Solvation model:               ALPB
        Solvent                        water
        Parameter file                 internal GFN2-xTB/ALPB
        Dielectric constant                8.0200E+01
        Reference state                gsolv [1 M gas/solution]
        Free energy shift                  1.0808E-03 Eh       6.7819E-01 kcal/mol
        Temperature                        2.9815E+02 K
        Density                            1.0000E+00 kg/L
        Solvent mass                       1.8000E+01 g/mol
        Interaction kernel             P16
        Born radius scaling (c1)           1.4744E+00
        Born radii integrator          GBOBC
        Born offset                        0.0000E+00 a0       0.0000E+00 AA
        H-bond correction              true
        Ion screening                  false
        Surface tension                    1.0000E-05 Eh       1.5569E+01 dyn/cm
        Grid points                               974 per atom

          ...................................................
          :                      SETUP                      :
          :.................................................:
          :  # basis functions                  36          :
          :  # atomic orbitals                  36          :
          :  # shells                           24          :
          :  # electrons                        38          :
          :  max. iterations                   250          :
          :  Hamiltonian                  GFN2-xTB          :
          :  restarted?                      false          :
          :  GBSA solvation                   true          :
          :  PC potential                    false          :
          :  electronic temp.          300.0000000     K    :
          :  accuracy                    1.0000000          :
          :  -> integral cutoff          0.2500000E+02      :
          :  -> integral neglect         0.1000000E-07      :
          :  -> SCF convergence          0.1000000E-05 Eh   :
          :  -> wf. convergence          0.1000000E-03 e    :
          :  Broyden damping             0.4000000          :
          :  net charge                          0          :
          :  unpaired electrons                  0          :
          ...................................................

 iter      E             dE          RMSdq      gap      omega  full diag
   1    -21.1128150 -0.211128E+02  0.303E+00   12.08       0.0  T
   2    -21.1418380 -0.290230E-01  0.158E+00   11.79       1.0  T
   3    -21.1427649 -0.926939E-03  0.594E-01   11.78       1.0  T
   4    -21.1429352 -0.170300E-03  0.112E-01   11.78       1.0  T
   5    -21.1429514 -0.162381E-04  0.610E-02   11.80       1.0  T
   6    -21.1429538 -0.232197E-05  0.109E-02   11.81       2.2  T
   7    -21.1429541 -0.310531E-06  0.506E-03   11.81       4.7  T
   8    -21.1429541 -0.684145E-07  0.219E-03   11.81      10.8  T
   9    -21.1429542 -0.626471E-08  0.653E-04   11.81      36.1  T
  10    -21.1429542 -0.167858E-08  0.158E-04   11.81     149.1  T

   *** convergence criteria satisfied after 10 iterations ***

         #    Occupation            Energy/Eh            Energy/eV
      -------------------------------------------------------------
         1        2.0000           -0.6797111             -18.4959
       ...           ...                  ...                  ...
        13        2.0000           -0.4701870             -12.7944
        14        2.0000           -0.4524764             -12.3125
        15        2.0000           -0.4375229             -11.9056
        16        2.0000           -0.4340397             -11.8108
        17        2.0000           -0.4218983             -11.4804
        18        2.0000           -0.4183296             -11.3833
        19        2.0000           -0.4060278             -11.0486 (HOMO)
        20                          0.0279410               0.7603 (LUMO)
        21                          0.0788368               2.1453
        22                          0.0900698               2.4509
        23                          0.1007692               2.7421
        24                          0.1235003               3.3606
       ...                                ...                  ...
        36                          0.2922494               7.9525
      -------------------------------------------------------------
                  HL-Gap            0.4339688 Eh           11.8089 eV
             Fermi-level           -0.1890434 Eh           -5.1441 eV

 SCC (total)                   0 d,  0 h,  0 min,  0.012 sec
 SCC setup                      ...        0 min,  0.001 sec (  9.844%)
 Dispersion                     ...        0 min,  0.000 sec (  0.802%)
 classical contributions        ...        0 min,  0.000 sec (  0.181%)
 integral evaluation            ...        0 min,  0.001 sec ( 10.274%)
 iterations                     ...        0 min,  0.005 sec ( 46.114%)
 molecular gradient             ...        0 min,  0.004 sec ( 31.344%)
 printout                       ...        0 min,  0.000 sec (  1.329%)

         :::::::::::::::::::::::::::::::::::::::::::::::::::::
         ::                     SUMMARY                     ::
         :::::::::::::::::::::::::::::::::::::::::::::::::::::
         :: total energy             -20.890964560221 Eh    ::
         :: total w/o Gsasa/hb       -20.885972508757 Eh    ::
         :: gradient norm              0.029768575831 Eh/a0 ::
         :: HOMO-LUMO gap             11.808891352635 eV    ::
         ::.................................................::
         :: SCC energy               -21.142916356308 Eh    ::
         :: -> isotropic ES            0.036768059237 Eh    ::
         :: -> anisotropic ES          0.005941673335 Eh    ::
         :: -> anisotropic XC          0.008172847040 Eh    ::
         :: -> dispersion             -0.010212367722 Eh    ::
         :: -> Gsolv                  -0.009644357192 Eh    ::
         ::    -> Gelec               -0.004652305728 Eh    ::
         ::    -> Gsasa                0.000044428923 Eh    ::
         ::    -> Ghb                 -0.006117240084 Eh    ::
         ::    -> Gshift               0.001080759698 Eh    ::
         :: repulsion energy           0.251951796087 Eh    ::
         :: add. restraining           0.000000000000 Eh    ::
         :: total charge              -0.000000000000 e     ::
         :::::::::::::::::::::::::::::::::::::::::::::::::::::

      ----------------------------------------------------------- 
     |                   =====================                   |
     |                        A N C O P T                        |
     |                   =====================                   |
     |               Approximate Normal Coordinate               |
     |                Rational Function Optimizer                |
      ----------------------------------------------------------- 
      ----------------------------------------------------------- 
     |                   =====================                   |
     |                        A N C O P T                        |
     |                   =====================                   |
     |               Approximate Normal Coordinate               |
     |                Rational Function Optimizer                |
      ----------------------------------------------------------- 

          ...................................................
          :                      SETUP                      :
          :.................................................:
          :   optimization level         verytight          :
          :   max. optcycles                   360          :
          :   ANC micro-cycles                  20          :
          :   degrees of freedom                48          :
          :.................................................:
          :   RF solver                   davidson          :
          :   write xtbopt.log                true          :
          :   linear?                        false          :
          :   energy convergence         0.1000000E-06 Eh   :
          :   grad. convergence          0.2000000E-03 Eh/α :
          :   maxmium RF displ.          1.0000000          :
          :   Hlow (freq-cutoff)         0.1000000E-01      :
          :   Hmax (freq-cutoff)         5.0000000          :
          :   S6 in model hess.         20.0000000          :
          ...................................................

generating ANC from exact Hessian ...
Using Lindh-Hessian (1995)
 Shifting diagonal of input Hessian by   7.354070809141732E-003
 Lowest  eigenvalues of input Hessian
    0.000000    0.000000    0.000000    0.000000    0.000000    0.000000
    0.010000    0.012035    0.013466    0.015105    0.015883    0.018299
    0.021439    0.025561    0.041398    0.047155    0.050924    0.058450
 Highest eigenvalues
    1.153980    1.187213    1.194993    1.277867    1.279079    1.417521
 

........................................................................
.............................. CYCLE    1 ..............................
........................................................................

 iter      E             dE          RMSdq      gap      omega  full diag
   1    -21.1429542 -0.211430E+02  0.837E-05   11.81       0.0  T
   2    -21.1429542 -0.118980E-10  0.517E-05   11.81     456.3  T
   3    -21.1429542 -0.392575E-11  0.208E-05   11.81    1133.1  T
     SCC iter.                  ...        0 min,  0.001 sec
     gradient                   ...        0 min,  0.004 sec
 * total energy  :   -20.8909646 Eh     change       -0.5673684E-10 Eh
   gradient norm :     0.0297687 Eh/α   predicted     0.0000000E+00 (-100.00%)
   displ. norm   :     0.1471548 α      lambda       -0.1715900E-02
   maximum displ.:     0.0713008 α      in ANC's #8, #12, #10, ...

........................................................................
.............................. CYCLE    2 ..............................
........................................................................

 iter      E             dE          RMSdq      gap      omega  full diag
   1    -21.1507930 -0.211508E+02  0.127E-01   12.05       0.0  T
   2    -21.1508007 -0.770188E-05  0.735E-02   12.05       1.0  T
   3    -21.1508011 -0.473358E-06  0.111E-02   12.05       2.1  T
   4    -21.1508016 -0.448588E-06  0.323E-03   12.05       7.3  T
   5    -21.1508016 -0.277726E-07  0.183E-03   12.05      12.9  T
   6    -21.1508016 -0.547242E-08  0.673E-04   12.05      35.0  T
   7    -21.1508016 -0.956092E-09  0.248E-04   12.05      95.0  T
     SCC iter.                  ...        0 min,  0.002 sec
     gradient                   ...        0 min,  0.004 sec
 * total energy  :   -20.8920570 Eh     change       -0.1092442E-02 Eh
   gradient norm :     0.0132690 Eh/α   predicted    -0.8765275E-03 ( -19.76%)
   displ. norm   :     0.1135869 α      lambda       -0.4202596E-03
   maximum displ.:     0.0590313 α      in ANC's #5, #1, #7, ...

........................................................................
.............................. CYCLE    3 ..............................
........................................................................

 iter      E             dE          RMSdq      gap      omega  full diag
   1    -21.1543011 -0.211543E+02  0.536E-02   12.25       0.0  T
   2    -21.1543050 -0.389340E-05  0.313E-02   12.26       1.0  T
   3    -21.1543052 -0.233649E-06  0.890E-03   12.26       2.6  T
   4    -21.1543054 -0.208137E-06  0.226E-03   12.26      10.4  T
   5    -21.1543054 -0.154708E-07  0.107E-03   12.26      22.0  T
   6    -21.1543054 -0.198643E-08  0.509E-04   12.26      46.4  T
   7    -21.1543054 -0.421519E-09  0.176E-04   12.26     134.0  T
     SCC iter.                  ...        0 min,  0.002 sec
     gradient                   ...        0 min,  0.004 sec
 * total energy  :   -20.8923181 Eh     change       -0.2610861E-03 Eh
   gradient norm :     0.0037447 Eh/α   predicted    -0.2128414E-03 ( -18.48%)
   displ. norm   :     0.0963580 α      lambda       -0.1088058E-03
   maximum displ.:     0.0621689 α      in ANC's #1, #5, #2, ...

........................................................................
.............................. CYCLE    4 ..............................
........................................................................

 iter      E             dE          RMSdq      gap      omega  full diag
   1    -21.1542844 -0.211543E+02  0.285E-02   12.34       0.0  T
   2    -21.1542849 -0.508856E-06  0.170E-02   12.34       1.4  T
   3    -21.1542849 -0.327385E-07  0.326E-03   12.34       7.2  T
   4    -21.1542850 -0.487705E-07  0.981E-04   12.34      24.0  T
   5    -21.1542850 -0.268236E-08  0.392E-04   12.34      60.1  T
     SCC iter.                  ...        0 min,  0.002 sec
     gradient                   ...        0 min,  0.004 sec
 * total energy  :   -20.8923965 Eh     change       -0.7838436E-04 Eh
   gradient norm :     0.0022803 Eh/α   predicted    -0.5490941E-04 ( -29.95%)
   displ. norm   :     0.1147347 α      lambda       -0.7324597E-04
   maximum displ.:     0.0785597 α      in ANC's #1, #2, #5, ...

........................................................................
.............................. CYCLE    5 ..............................
........................................................................

 iter      E             dE          RMSdq      gap      omega  full diag
   1    -21.1535032 -0.211535E+02  0.315E-02   12.37       0.0  T
   2    -21.1535034 -0.196374E-06  0.187E-02   12.37       1.3  T
   3    -21.1535034 -0.324837E-07  0.178E-03   12.37      13.2  T
   4    -21.1535034 -0.147144E-07  0.767E-04   12.37      30.7  T
   5    -21.1535034 -0.977806E-09  0.313E-04   12.37      75.4  T
     SCC iter.                  ...        0 min,  0.002 sec
     gradient                   ...        0 min,  0.004 sec
 * total energy  :   -20.8924496 Eh     change       -0.5309727E-04 Eh
   gradient norm :     0.0028803 Eh/α   predicted    -0.3710371E-04 ( -30.12%)
   displ. norm   :     0.1029269 α      lambda       -0.4514582E-04
   maximum displ.:     0.0727597 α      in ANC's #1, #2, #5, ...

........................................................................
.............................. CYCLE    6 ..............................
........................................................................

 iter      E             dE          RMSdq      gap      omega  full diag
   1    -21.1530089 -0.211530E+02  0.266E-02   12.37       0.0  T
   2    -21.1530090 -0.665618E-07  0.159E-02   12.37       1.5  T
   3    -21.1530090 -0.199946E-07  0.875E-04   12.37      26.9  T
   4    -21.1530090 -0.132724E-08  0.492E-04   12.37      47.9  T
     SCC iter.                  ...        0 min,  0.001 sec
     gradient                   ...        0 min,  0.004 sec
 * total energy  :   -20.8924850 Eh     change       -0.3543911E-04 Eh
   gradient norm :     0.0027517 Eh/α   predicted    -0.2281219E-04 ( -35.63%)
   displ. norm   :     0.0963410 α      lambda       -0.3845873E-04
   maximum displ.:     0.0708283 α      in ANC's #1, #2, #5, ...

........................................................................
.............................. CYCLE    7 ..............................
........................................................................

 iter      E             dE          RMSdq      gap      omega  full diag
   1    -21.1530161 -0.211530E+02  0.242E-02   12.35       0.0  T
   2    -21.1530162 -0.536924E-07  0.145E-02   12.34       1.6  T
   3    -21.1530162 -0.113038E-07  0.999E-04   12.34      23.6  T
   4    -21.1530162 -0.637584E-08  0.492E-04   12.34      47.9  T
     SCC iter.                  ...        0 min,  0.001 sec
     gradient                   ...        0 min,  0.004 sec
 * total energy  :   -20.8925155 Eh     change       -0.3053121E-04 Eh
   gradient norm :     0.0020896 Eh/α   predicted    -0.1940970E-04 ( -36.43%)
   displ. norm   :     0.0873982 α      lambda       -0.2967719E-04
   maximum displ.:     0.0693419 α      in ANC's #1, #2, #5, ...

........................................................................
.............................. CYCLE    8 ..............................
........................................................................

 iter      E             dE          RMSdq      gap      omega  full diag
   1    -21.1533656 -0.211534E+02  0.220E-02   12.32       0.0  T
   2    -21.1533657 -0.533978E-07  0.131E-02   12.32       1.8  T
   3    -21.1533657 -0.761262E-08  0.949E-04   12.32      24.8  T
   4    -21.1533657 -0.558248E-08  0.421E-04   12.32      56.0  T
     SCC iter.                  ...        0 min,  0.001 sec
     gradient                   ...        0 min,  0.004 sec
 * total energy  :   -20.8925385 Eh     change       -0.2299898E-04 Eh
   gradient norm :     0.0013781 Eh/α   predicted    -0.1495107E-04 ( -34.99%)
   displ. norm   :     0.0989362 α      lambda       -0.1721661E-04
   maximum displ.:     0.0851862 α      in ANC's #1, #2, #7, ...

........................................................................
.............................. CYCLE    9 ..............................
........................................................................

 iter      E             dE          RMSdq      gap      omega  full diag
   1    -21.1538709 -0.211539E+02  0.255E-02   12.29       0.0  T
   2    -21.1538710 -0.828695E-07  0.151E-02   12.29       1.6  T
   3    -21.1538710 -0.906963E-08  0.957E-04   12.29      24.6  T
   4    -21.1538710 -0.383083E-08  0.403E-04   12.29      58.5  T
     SCC iter.                  ...        0 min,  0.001 sec
     gradient                   ...        0 min,  0.004 sec
 * total energy  :   -20.8925571 Eh     change       -0.1859812E-04 Eh
   gradient norm :     0.0010855 Eh/α   predicted    -0.8644878E-05 ( -53.52%)
   displ. norm   :     0.0560118 α      lambda       -0.8687655E-05
   maximum displ.:     0.0501272 α      in ANC's #1, #2, #4, ...

........................................................................
.............................. CYCLE   10 ..............................
........................................................................

 iter      E             dE          RMSdq      gap      omega  full diag
   1    -21.1539985 -0.211540E+02  0.163E-02   12.29       0.0  T
   2    -21.1539986 -0.209660E-07  0.978E-03   12.29       2.4  T
   3    -21.1539986 -0.465484E-08  0.451E-04   12.29      52.2  T
   4    -21.1539986 -0.318600E-09  0.233E-04   12.29     101.2  T
     SCC iter.                  ...        0 min,  0.001 sec
     gradient                   ...        0 min,  0.004 sec
 * total energy  :   -20.8925690 Eh     change       -0.1185866E-04 Eh
   gradient norm :     0.0009765 Eh/α   predicted    -0.4350811E-05 ( -63.31%)
   displ. norm   :     0.0722938 α      lambda       -0.1259686E-04
   maximum displ.:     0.0587762 α      in ANC's #1, #4, #6, ...

........................................................................
.............................. CYCLE   11 ..............................
........................................................................

 iter      E             dE          RMSdq      gap      omega  full diag
   1    -21.1540467 -0.211540E+02  0.252E-02   12.30       0.0  T
   2    -21.1540467 -0.403898E-07  0.152E-02   12.30       1.6  T
   3    -21.1540467 -0.166940E-07  0.772E-04   12.30      30.5  T
   4    -21.1540467 -0.658090E-09  0.414E-04   12.30      57.0  T
     SCC iter.                  ...        0 min,  0.001 sec
     gradient                   ...        0 min,  0.003 sec
 * total energy  :   -20.8925857 Eh     change       -0.1668797E-04 Eh
   gradient norm :     0.0008533 Eh/α   predicted    -0.6313187E-05 ( -62.17%)
   displ. norm   :     0.1082312 α      lambda       -0.1565242E-04
   maximum displ.:     0.0867057 α      in ANC's #1, #4, #5, ...

........................................................................
.............................. CYCLE   12 ..............................
........................................................................

 iter      E             dE          RMSdq      gap      omega  full diag
   1    -21.1537166 -0.211537E+02  0.379E-02   12.31       0.0  T
   2    -21.1537167 -0.965810E-07  0.229E-02   12.31       1.0  T
   3    -21.1537168 -0.405350E-07  0.119E-03   12.31      19.9  T
   4    -21.1537168 -0.131855E-08  0.650E-04   12.31      36.3  T
   5    -21.1537168 -0.221011E-09  0.135E-04   12.31     174.4  T
     SCC iter.                  ...        0 min,  0.002 sec
     gradient                   ...        0 min,  0.003 sec
 * total energy  :   -20.8926046 Eh     change       -0.1893596E-04 Eh
   gradient norm :     0.0005740 Eh/α   predicted    -0.7867296E-05 ( -58.45%)
   displ. norm   :     0.1024388 α      lambda       -0.1081545E-04
   maximum displ.:     0.0842522 α      in ANC's #1, #4, #5, ...

........................................................................
.............................. CYCLE   13 ..............................
........................................................................

 iter      E             dE          RMSdq      gap      omega  full diag
   1    -21.1537368 -0.211537E+02  0.347E-02   12.31       0.0  T
   2    -21.1537369 -0.767045E-07  0.210E-02   12.31       1.1  T
   3    -21.1537369 -0.319176E-07  0.106E-03   12.31      22.1  T
   4    -21.1537369 -0.103597E-08  0.591E-04   12.31      39.9  T
   5    -21.1537369 -0.160153E-09  0.994E-05   12.31     237.2  T
     SCC iter.                  ...        0 min,  0.002 sec
     gradient                   ...        0 min,  0.003 sec
 * total energy  :   -20.8926173 Eh     change       -0.1268290E-04 Eh
   gradient norm :     0.0004978 Eh/α   predicted    -0.5431865E-05 ( -57.17%)
   displ. norm   :     0.0795309 α      lambda       -0.6757463E-05
   maximum displ.:     0.0686393 α      in ANC's #1, #5, #2, ...

........................................................................
.............................. CYCLE   14 ..............................
........................................................................

 iter      E             dE          RMSdq      gap      omega  full diag
   1    -21.1536410 -0.211536E+02  0.248E-02   12.31       0.0  T
   2    -21.1536410 -0.317097E-07  0.149E-02   12.31       1.6  T
   3    -21.1536410 -0.124160E-07  0.703E-04   12.31      33.5  T
   4    -21.1536410 -0.737725E-09  0.396E-04   12.31      59.6  T
     SCC iter.                  ...        0 min,  0.001 sec
     gradient                   ...        0 min,  0.003 sec
 * total energy  :   -20.8926257 Eh     change       -0.8361198E-05 Eh
   gradient norm :     0.0006172 Eh/α   predicted    -0.3388578E-05 ( -59.47%)
   displ. norm   :     0.0696208 α      lambda       -0.6015686E-05
   maximum displ.:     0.0619685 α      in ANC's #1, #2, #5, ...

........................................................................
.............................. CYCLE   15 ..............................
........................................................................

 iter      E             dE          RMSdq      gap      omega  full diag
   1    -21.1538103 -0.211538E+02  0.191E-02   12.31       0.0  T
   2    -21.1538103 -0.215055E-07  0.114E-02   12.31       2.1  T
   3    -21.1538103 -0.564518E-08  0.493E-04   12.31      47.8  T
   4    -21.1538103 -0.353818E-09  0.276E-04   12.31      85.5  T
     SCC iter.                  ...        0 min,  0.001 sec
     gradient                   ...        0 min,  0.003 sec
 * total energy  :   -20.8926333 Eh     change       -0.7587289E-05 Eh
   gradient norm :     0.0005403 Eh/α   predicted    -0.3014768E-05 ( -60.27%)
   displ. norm   :     0.0825398 α      lambda       -0.5969285E-05
   maximum displ.:     0.0734967 α      in ANC's #1, #2, #5, ...

........................................................................
.............................. CYCLE   16 ..............................
........................................................................

 iter      E             dE          RMSdq      gap      omega  full diag
   1    -21.1537684 -0.211538E+02  0.222E-02   12.31       0.0  T
   2    -21.1537684 -0.154419E-07  0.132E-02   12.31       1.8  T
   3    -21.1537684 -0.641731E-08  0.509E-04   12.31      46.3  T
   4    -21.1537684 -0.316437E-09  0.290E-04   12.31      81.2  T
     SCC iter.                  ...        0 min,  0.001 sec
     gradient                   ...        0 min,  0.003 sec
 * total energy  :   -20.8926402 Eh     change       -0.6970319E-05 Eh
   gradient norm :     0.0004296 Eh/α   predicted    -0.2992858E-05 ( -57.06%)
   displ. norm   :     0.0716987 α      lambda       -0.4097424E-05
   maximum displ.:     0.0663759 α      in ANC's #1, #2, #5, ...

........................................................................
.............................. CYCLE   17 ..............................
........................................................................

 iter      E             dE          RMSdq      gap      omega  full diag
   1    -21.1538642 -0.211539E+02  0.179E-02   12.30       0.0  T
   2    -21.1538642 -0.205465E-07  0.106E-02   12.30       2.2  T
   3    -21.1538642 -0.412956E-08  0.419E-04   12.30      56.2  T
   4    -21.1538642 -0.125048E-09  0.234E-04   12.30     100.9  T
     SCC iter.                  ...        0 min,  0.001 sec
     gradient                   ...        0 min,  0.003 sec
 * total energy  :   -20.8926443 Eh     change       -0.4127171E-05 Eh
   gradient norm :     0.0003332 Eh/α   predicted    -0.2053251E-05 ( -50.25%)
   displ. norm   :     0.0460648 α      lambda       -0.1648326E-05
   maximum displ.:     0.0430476 α      in ANC's #1, #2, #5, ...

........................................................................
.............................. CYCLE   18 ..............................
........................................................................

 iter      E             dE          RMSdq      gap      omega  full diag
   1    -21.1538086 -0.211538E+02  0.128E-02   12.30       0.0  T
   2    -21.1538086 -0.116339E-07  0.759E-03   12.30       3.1  T
   3    -21.1538086 -0.155565E-08  0.379E-04   12.30      62.2  T
   4    -21.1538086 -0.599261E-09  0.171E-04   12.30     137.6  T
     SCC iter.                  ...        0 min,  0.001 sec
     gradient                   ...        0 min,  0.003 sec
 * total energy  :   -20.8926459 Eh     change       -0.1569316E-05 Eh
   gradient norm :     0.0003266 Eh/α   predicted    -0.8232760E-06 ( -47.54%)
   displ. norm   :     0.0243512 α      lambda       -0.7054130E-06
   maximum displ.:     0.0234893 α      in ANC's #1, #2, #31, ...

........................................................................
.............................. CYCLE   19 ..............................
........................................................................

 iter      E             dE          RMSdq      gap      omega  full diag
   1    -21.1538917 -0.211539E+02  0.703E-03   12.30       0.0  T
   2    -21.1538917 -0.268887E-08  0.418E-03   12.30       5.6  T
   3    -21.1538917 -0.587068E-09  0.169E-04   12.30     139.8  T
   4    -21.1538917 -0.591633E-10  0.916E-05   12.30     257.2  T
     SCC iter.                  ...        0 min,  0.001 sec
     gradient                   ...        0 min,  0.003 sec
 * total energy  :   -20.8926467 Eh     change       -0.7893765E-06 Eh
   gradient norm :     0.0001834 Eh/α   predicted    -0.3523889E-06 ( -55.36%)
   displ. norm   :     0.0293241 α      lambda       -0.6713367E-06
   maximum displ.:     0.0277832 α      in ANC's #1, #6, #4, ...

........................................................................
.............................. CYCLE   20 ..............................
........................................................................

 iter      E             dE          RMSdq      gap      omega  full diag
   1    -21.1539173 -0.211539E+02  0.865E-03   12.30       0.0  T
   2    -21.1539173 -0.214634E-08  0.517E-03   12.30       4.6  T
   3    -21.1539173 -0.703054E-09  0.163E-04   12.30     144.3  T
   4    -21.1539173 -0.238707E-10  0.923E-05   12.30     255.3  T
     SCC iter.                  ...        0 min,  0.001 sec
     gradient                   ...        0 min,  0.003 sec
 * total energy  :   -20.8926475 Eh     change       -0.7626578E-06 Eh
   gradient norm :     0.0001581 Eh/α   predicted    -0.3368592E-06 ( -55.83%)
   displ. norm   :     0.0242742 α      lambda       -0.4215240E-06
   maximum displ.:     0.0217154 α      in ANC's #1, #3, #4, ...
 * RMSD in coord.:     0.3156088 α      energy gain  -0.1682910E-02 Eh

generating ANC from exact Hessian ...
Using Lindh-Hessian (1995)
 Shifting diagonal of input Hessian by   7.280749065688815E-003
 Lowest  eigenvalues of input Hessian
    0.000000    0.000000    0.000000    0.000000    0.000000    0.000000
    0.010000    0.012250    0.013521    0.015214    0.015981    0.018592
    0.021523    0.025824    0.042640    0.049082    0.052212    0.060099
 Highest eigenvalues
    1.173468    1.202382    1.212485    1.277733    1.284839    1.492971
 

........................................................................
.............................. CYCLE   21 ..............................
........................................................................

 iter      E             dE          RMSdq      gap      omega  full diag
   1    -21.1538876 -0.211539E+02  0.782E-03   12.30       0.0  T
   2    -21.1538876 -0.164180E-08  0.468E-03   12.30       5.0  T
   3    -21.1538876 -0.649948E-09  0.165E-04   12.30     143.0  T
   4    -21.1538876 -0.502389E-10  0.950E-05   12.30     248.1  T
     SCC iter.                  ...        0 min,  0.001 sec
     gradient                   ...        0 min,  0.003 sec
 * total energy  :   -20.8926479 Eh     change       -0.4115351E-06 Eh
   gradient norm :     0.0000900 Eh/α   predicted     0.0000000E+00 (-100.00%)
   displ. norm   :     0.0019204 α      lambda       -0.5094076E-07
   maximum displ.:     0.0012491 α      in ANC's #3, #7, #6, ...

........................................................................
.............................. CYCLE   22 ..............................
........................................................................

 iter      E             dE          RMSdq      gap      omega  full diag
   1    -21.1539010 -0.211539E+02  0.125E-03   12.30       0.0  T
   2    -21.1539010 -0.959233E-10  0.742E-04   12.30      31.8  T
   3    -21.1539010 -0.246771E-10  0.312E-05   12.30     755.1  T
     SCC iter.                  ...        0 min,  0.001 sec
     gradient                   ...        0 min,  0.003 sec
 * total energy  :   -20.8926479 Eh     change       -0.4294452E-07 Eh
   gradient norm :     0.0000461 Eh/α   predicted    -0.2708232E-07 ( -36.94%)
   displ. norm   :     0.0023223 α      lambda       -0.3120048E-07
   maximum displ.:     0.0012837 α      in ANC's #3, #7, #4, ...

   *** GEOMETRY OPTIMIZATION CONVERGED AFTER 22 ITERATIONS ***

------------------------------------------------------------------------
 total energy gain   :        -0.0016834 Eh       -1.0563 kcal/mol
 total RMSD          :         0.3156778 a0        0.1670 Å
 total power (kW/mol):        -0.2008943 (step)  -23.4095 (real)
------------------------------------------------------------------------

 ANCopt (total)                0 d,  0 h,  0 min,  0.189 sec
 optimizer setup                ...        0 min,  0.000 sec (  0.183%)
 model hessian                  ...        0 min,  0.015 sec (  8.093%)
 ANC generation                 ...        0 min,  0.001 sec (  0.417%)
 coordinate transformation      ...        0 min,  0.000 sec (  0.072%)
 single point calculation       ...        0 min,  0.161 sec ( 85.231%)
 optimization log               ...        0 min,  0.007 sec (  3.714%)
 hessian update                 ...        0 min,  0.000 sec (  0.074%)
 rational function              ...        0 min,  0.003 sec (  1.681%)

================
 final structure:
================
$coord
       -3.34761994996798        2.74441519442245        0.58071821571641      C
       -2.16438065874964        0.60370497132999       -0.94172905174010      C
       -0.47564352283623       -1.14189217578349        0.63790498255205      C
       -1.47395678190123       -1.64595865878475        2.38061184346880      H
        0.13413164994076       -3.55360626046036       -0.82798244123456      C
        1.98452509704087        0.17808845398634        1.41521329820174      C
        3.33332019639270        0.94085493381983       -0.76218820737604      O
       -1.91276423788870        4.02392053923262        1.30297824333780      H
       -4.62757402642298        3.82806553146274       -0.60605248957099      H
       -4.41345247523609        1.99378203252533        2.17079897899044      H
       -1.03416427998796        1.38244571850059       -2.48094743956802      H
       -3.67320887423712       -0.53093802150296       -1.77447087151292      H
       -1.59273766389938       -4.52345671917987       -1.37134615688828      H
        1.26913640219108       -4.82688348794347        0.31838605947463      H
        1.19204281477788       -3.08112645957804       -2.52447572728699      H
        3.12724864618606       -1.14459121299503        2.53686148293650      H
        1.54977123602984        1.82375059213154        2.60120779495677      H
        4.89435773704003        1.73462121338741       -0.25225627907390      H
$end
 
 Bond Distances (Angstroems)
 ---------------------------
C1-C2=1.5246         C1-H8=1.0868         C1-H9=1.0872         C1-H10=1.0881        C2-C1=1.5246         C2-C3=1.5332         
C2-H11=1.0913        C2-H12=1.0919        C3-C2=1.5332         C3-H4=1.0958         C3-C5=1.5279         C3-C6=1.5336         
H4-C3=1.0958         C5-C3=1.5279         C5-H13=1.0868        C5-H14=1.0875        C5-H15=1.0871        C6-C3=1.5336         
C6-O7=1.4142         C6-H16=1.0990        C6-H17=1.0978        O7-C6=1.4142         O7-H18=0.9652        H8-C1=1.0868         
H9-C1=1.0872         H10-C1=1.0881        H11-C2=1.0913        H12-C2=1.0919        H13-C5=1.0868        H14-C5=1.0875        
H15-C5=1.0871        H16-C6=1.0990        H17-C6=1.0978        H18-O7=0.9652        
 C  H  Rav=1.0908 sigma=0.0045  Rmin=1.0868  Rmax=1.0990    11
 C  C  Rav=1.5298 sigma=0.0038  Rmin=1.5246  Rmax=1.5336     4
 O  H  Rav=0.9652 sigma=0.0000  Rmin=0.9652  Rmax=0.9652     1
 O  C  Rav=1.4142 sigma=0.0000  Rmin=1.4142  Rmax=1.4142     1
 
 selected bond angles (degree)
 --------------------
H8-C1-C2=111.21                H9-C1-C2=110.03                H9-C1-H8=108.05                H10-C1-C2=110.50               
H10-C1-H8=108.52               H10-C1-H9=108.44               C3-C2-C1=113.51                H11-C2-C1=109.81               
H11-C2-C3=108.36               H12-C2-C1=108.76               H12-C2-C3=108.36               H12-C2-H11=107.89              
H4-C3-C2=108.94                C5-C3-C2=110.46                C5-C3-H4=109.01                C6-C3-C2=111.51                
C6-C3-H4=107.12                C6-C3-C5=109.71                H13-C5-C3=110.56               H14-C5-C3=110.54               
H14-C5-H13=108.63              H15-C5-C3=109.63               H15-C5-H13=108.85              H15-C5-H14=108.59              
O7-C6-C3=109.87                H16-C6-C3=108.78               H16-C6-O7=110.13               H17-C6-C3=109.68               
H17-C6-O7=110.19               H17-C6-H16=108.16              H18-O7-C6=109.17               
 
 selected dihedral angles (degree)
 ---------------------------------
C3-C2-C1-H8= 64.50            C3-C2-C1-H9=184.19            C3-C2-C1-H10=303.91           H11-C2-C1-H8=303.05           
H11-C2-C1-H9= 62.73           H11-C2-C1-H10=182.46          H12-C2-C1-H8=185.20           H12-C2-C1-H9=304.88           
H12-C2-C1-H10= 64.61          H4-C3-C2-C1= 47.02            H4-C3-C2-H11=169.28           H4-C3-C2-H12=286.10           
C5-C3-C2-C1=166.73            C5-C3-C2-H11=288.99           C5-C3-C2-H12= 45.81           C6-C3-C2-C1=289.00            
C6-C3-C2-H11= 51.27           C6-C3-C2-H12=168.08           H13-C5-C3-C2=302.60           H13-C5-C3-H4= 62.26           
H13-C5-C3-C6=179.27           H14-C5-C3-C2=182.28           H14-C5-C3-H4=301.94           H14-C5-C3-C6= 58.95           
H15-C5-C3-C2= 62.60           H15-C5-C3-H4=182.27           H15-C5-C3-C6=299.28           O7-C6-C3-C2=300.69            
O7-C6-C3-H4=181.59            O7-C6-C3-C5= 63.40            H16-C6-C3-C2=180.07           H16-C6-C3-H4= 60.97           
H16-C6-C3-C5=302.78           H17-C6-C3-C2= 61.96           H17-C6-C3-H4=302.86           H17-C6-C3-C5=184.66           
H18-O7-C6-C3=181.27           H18-O7-C6-H16=301.07          H18-O7-C6-H17= 60.32          
           -------------------------------------------------
          |                Final Singlepoint                |
           -------------------------------------------------

          ...................................................
          :                      SETUP                      :
          :.................................................:
          :  # basis functions                  36          :
          :  # atomic orbitals                  36          :
          :  # shells                           24          :
          :  # electrons                        38          :
          :  max. iterations                   250          :
          :  Hamiltonian                  GFN2-xTB          :
          :  restarted?                      false          :
          :  GBSA solvation                   true          :
          :  PC potential                    false          :
          :  electronic temp.          300.0000000     K    :
          :  accuracy                    1.0000000          :
          :  -> integral cutoff          0.2500000E+02      :
          :  -> integral neglect         0.1000000E-07      :
          :  -> SCF convergence          0.1000000E-05 Eh   :
          :  -> wf. convergence          0.1000000E-03 e    :
          :  Broyden damping             0.4000000          :
          :  net charge                          0          :
          :  unpaired electrons                  0          :
          ...................................................

 iter      E             dE          RMSdq      gap      omega  full diag
   1    -21.1539010 -0.211539E+02  0.174E-05   12.30       0.0  T
   2    -21.1539010 -0.817124E-13  0.107E-05   12.30    2204.1  T
   3    -21.1539010 -0.390799E-13  0.115E-06   12.30   20548.4  T

   *** convergence criteria satisfied after 3 iterations ***

         #    Occupation            Energy/Eh            Energy/eV
      -------------------------------------------------------------
         1        2.0000           -0.6833245             -18.5942
       ...           ...                  ...                  ...
        13        2.0000           -0.4695125             -12.7761
        14        2.0000           -0.4518264             -12.2948
        15        2.0000           -0.4375221             -11.9056
        16        2.0000           -0.4321477             -11.7593
        17        2.0000           -0.4212050             -11.4616
        18        2.0000           -0.4192756             -11.4091
        19        2.0000           -0.4041296             -10.9969 (HOMO)
        20                          0.0478053               1.3008 (LUMO)
        21                          0.0874079               2.3785
        22                          0.0955586               2.6003
        23                          0.1063154               2.8930
        24                          0.1279058               3.4805
       ...                                ...                  ...
        36                          0.3070762               8.3560
      -------------------------------------------------------------
                  HL-Gap            0.4519349 Eh           12.2978 eV
             Fermi-level           -0.1781621 Eh           -4.8480 eV

 SCC (total)                   0 d,  0 h,  0 min,  0.007 sec
 SCC setup                      ...        0 min,  0.001 sec ( 14.762%)
 Dispersion                     ...        0 min,  0.000 sec (  0.844%)
 classical contributions        ...        0 min,  0.000 sec (  0.232%)
 integral evaluation            ...        0 min,  0.001 sec ( 15.876%)
 iterations                     ...        0 min,  0.001 sec ( 16.644%)
 molecular gradient             ...        0 min,  0.003 sec ( 49.638%)
 printout                       ...        0 min,  0.000 sec (  1.786%)

         :::::::::::::::::::::::::::::::::::::::::::::::::::::
         ::                     SUMMARY                     ::
         :::::::::::::::::::::::::::::::::::::::::::::::::::::
         :: total energy             -20.892647925038 Eh    ::
         :: total w/o Gsasa/hb       -20.887381242129 Eh    ::
         :: gradient norm              0.000046163599 Eh/a0 ::
         :: HOMO-LUMO gap             12.297775607557 eV    ::
         ::.................................................::
         :: SCC energy               -21.153863741103 Eh    ::
         :: -> isotropic ES            0.035957023372 Eh    ::
         :: -> anisotropic ES          0.005161581537 Eh    ::
         :: -> anisotropic XC          0.007556161117 Eh    ::
         :: -> dispersion             -0.010218264157 Eh    ::
         :: -> Gsolv                  -0.009630300304 Eh    ::
         ::    -> Gelec               -0.004363617395 Eh    ::
         ::    -> Gsasa               -0.000020337797 Eh    ::
         ::    -> Ghb                 -0.006327104810 Eh    ::
         ::    -> Gshift               0.001080759698 Eh    ::
         :: repulsion energy           0.261215816065 Eh    ::
         :: add. restraining           0.000000000000 Eh    ::
         :: total charge              -0.000000000000 e     ::
         :::::::::::::::::::::::::::::::::::::::::::::::::::::

           ------------------------------------------------- 
          |                Numerical Hessian                |
           ------------------------------------------------- 
step length          :   0.00500
SCC accuracy         :   0.30000
Hessian scale factor :   1.00000
frozen atoms in %    :   0.00000    0
RMS gradient         :   0.00005
estimated CPU  time      0.01 min
estimated wall time      0.01 min

writing file <hessian>.

 projected vibrational frequencies (cm⁻¹)
eigval :       -0.00    -0.00    -0.00    -0.00     0.00     0.00
eigval :       55.41   123.07   206.32   215.64   250.18   262.15
eigval :      273.22   368.66   435.35   573.26   799.11   844.93
eigval :      935.26   953.78   988.69  1015.89  1048.34  1086.70
eigval :     1132.25  1151.28  1161.86  1198.51  1243.91  1257.22
eigval :     1296.89  1333.69  1356.55  1365.83  1406.24  1410.51
eigval :     1480.12  1485.01  1494.99  1498.92  1500.57  1508.55
eigval :     2858.24  2897.76  2920.93  2969.75  2992.63  3022.40
eigval :     3026.87  3031.02  3035.36  3042.55  3044.78  3524.16
           -------------------------------------------------
          |                Property Printout                |
           -------------------------------------------------

    * Orbital Energies and Occupations

         #    Occupation            Energy/Eh            Energy/eV
      -------------------------------------------------------------
         1        2.0000           -0.6833245             -18.5942
       ...           ...                  ...                  ...
         7        2.0000           -0.5490435             -14.9402
         8        2.0000           -0.5233665             -14.2415
         9        2.0000           -0.5104846             -13.8910
        10        2.0000           -0.4931954             -13.4205
        11        2.0000           -0.4827608             -13.1366
        12        2.0000           -0.4788315             -13.0297
        13        2.0000           -0.4695125             -12.7761
        14        2.0000           -0.4518264             -12.2948
        15        2.0000           -0.4375221             -11.9056
        16        2.0000           -0.4321477             -11.7593
        17        2.0000           -0.4212050             -11.4616
        18        2.0000           -0.4192756             -11.4091
        19        2.0000           -0.4041296             -10.9969 (HOMO)
        20                          0.0478053               1.3008 (LUMO)
        21                          0.0874079               2.3785
        22                          0.0955586               2.6003
        23                          0.1063154               2.8930
        24                          0.1279058               3.4805
        25                          0.1439964               3.9183
        26                          0.1545474               4.2054
        27                          0.1903803               5.1805
        28                          0.1928272               5.2471
        29                          0.2038960               5.5483
        30                          0.2255614               6.1378
       ...                                ...                  ...
        36                          0.3070762               8.3560
      -------------------------------------------------------------
                  HL-Gap            0.4519349 Eh           12.2978 eV
             Fermi-level           -0.1781621 Eh           -4.8480 eV

     #   Z          covCN         q      C6AA      α(0)
     1   6 C        3.751    -0.111    22.675     6.791
     2   6 C        3.803    -0.062    21.696     6.631
     3   6 C        3.849    -0.021    20.909     6.504
     4   1 H        0.924     0.031     2.576     2.510
     5   6 C        3.756    -0.114    22.731     6.798
     6   6 C        3.677     0.084    19.397     6.310
     7   8 O        1.655    -0.515    23.223     6.505
     8   1 H        0.925     0.035     2.511     2.478
     9   1 H        0.925     0.040     2.454     2.450
    10   1 H        0.925     0.036     2.500     2.473
    11   1 H        0.924     0.045     2.386     2.416
    12   1 H        0.924     0.035     2.522     2.484
    13   1 H        0.925     0.039     2.463     2.454
    14   1 H        0.925     0.038     2.470     2.458
    15   1 H        0.925     0.048     2.343     2.394
    16   1 H        0.923     0.016     2.791     2.613
    17   1 H        0.924     0.019     2.756     2.596
    18   1 H        0.805     0.357     0.572     1.188

 Mol. C6AA /au·bohr⁶  :       2126.409600
 Mol. C8AA /au·bohr⁸  :      43767.671798
 Mol. α(0) /au        :         68.051331


Wiberg/Mayer (AO) data.
largest (>0.10) Wiberg bond orders for each atom

 ---------------------------------------------------------------------------
     #   Z sym  total        # sym  WBO       # sym  WBO       # sym  WBO
 ---------------------------------------------------------------------------
     1   6 C    3.997 --     2 C    1.020    10 H    0.987     9 H    0.987
                             8 H    0.986
     2   6 C    3.996 --     1 C    1.020     3 C    0.997    12 H    0.977
                            11 H    0.976
     3   6 C    3.995 --     5 C    1.009     2 C    0.997     6 C    0.992
                             4 H    0.967
     4   1 H    0.999 --     3 C    0.967
     5   6 C    3.995 --     3 C    1.009    14 H    0.986    13 H    0.986
                            15 H    0.986
     6   6 C    3.956 --     7 O    0.993     3 C    0.992    16 H    0.971
                            17 H    0.969
     7   8 O    1.906 --     6 C    0.993    18 H    0.860
     8   1 H    0.999 --     1 C    0.986
     9   1 H    0.998 --     1 C    0.987
    10   1 H    0.999 --     1 C    0.987
    11   1 H    0.998 --     2 C    0.976
    12   1 H    0.999 --     2 C    0.977
    13   1 H    0.998 --     5 C    0.986
    14   1 H    0.998 --     5 C    0.986
    15   1 H    0.998 --     5 C    0.986
    16   1 H    1.000 --     6 C    0.971
    17   1 H    1.000 --     6 C    0.969
    18   1 H    0.872 --     7 O    0.860
 ---------------------------------------------------------------------------

Topologies differ in total number of bonds
Writing topology from bond orders to xtbtopo.mol

molecular dipole:
                 x           y           z       tot (Debye)
 q only:        0.191       0.101       0.425
   full:        0.314       0.153       0.618       1.803
molecular quadrupole (traceless):
                xx          xy          yy          xz          yz          zz
 q only:        2.750       1.850      -0.716       1.918       0.571      -2.034
  q+dip:        3.726       2.577      -1.081       3.173       0.422      -2.645
   full:        3.708       2.581      -1.129       2.989       0.570      -2.579

           -------------------------------------------------
          |                Geometry Summary                 |
           -------------------------------------------------

      molecular mass/u    :       88.1483734
   center of mass at/Å    :        0.0006801       0.0002104       0.0030244
  moments of inertia/u·Å² :        0.1212428E+03   0.1876145E+03   0.2543928E+03
rotational constants/cm⁻¹ :        0.1390403E+00   0.8985248E-01   0.6626615E-01

 * 17 selected distances

     #   Z          #   Z                                           value/Å
     1   6 C        2   6 C                                       1.5245946
     2   6 C        3   6 C                                       1.5331706
     3   6 C        4   1 H                                       1.0957598
     3   6 C        5   6 C                                       1.5279407
     3   6 C        6   6 C                                       1.5336089 (max)
     6   6 C        7   8 O                                       1.4142145
     1   6 C        8   1 H                                       1.0867611
     1   6 C        9   1 H                                       1.0871992
     1   6 C       10   1 H                                       1.0880747
     2   6 C       11   1 H                                       1.0913143
     2   6 C       12   1 H                                       1.0918809
     5   6 C       13   1 H                                       1.0868033
     5   6 C       14   1 H                                       1.0875373
     5   6 C       15   1 H                                       1.0871345
     6   6 C       16   1 H                                       1.0990329
     6   6 C       17   1 H                                       1.0978098
     7   8 O       18   1 H                                       0.9652132 (min)

 * 4 distinct bonds (by element types)

   Z      Z             #   av. dist./Å        max./Å        min./Å
   1 H    6 C          11     1.0908462     1.0990329     1.0867611
   6 C    6 C           4     1.5298287     1.5336089     1.5245946
   1 H    8 O           1     0.9652132     0.9652132     0.9652132
   6 C    8 O           1     1.4142145     1.4142145     1.4142145

           -------------------------------------------------
          |               Frequency Printout                |
           -------------------------------------------------
 projected vibrational frequencies (cm⁻¹)
eigval :       -0.00    -0.00    -0.00    -0.00     0.00     0.00
eigval :       55.41   123.07   206.32   215.64   250.18   262.15
eigval :      273.22   368.66   435.35   573.26   799.11   844.93
eigval :      935.26   953.78   988.69  1015.89  1048.34  1086.70
eigval :     1132.25  1151.28  1161.86  1198.51  1243.91  1257.22
eigval :     1296.89  1333.69  1356.55  1365.83  1406.24  1410.51
eigval :     1480.12  1485.01  1494.99  1498.92  1500.57  1508.55
eigval :     2858.24  2897.76  2920.93  2969.75  2992.63  3022.40
eigval :     3026.87  3031.02  3035.36  3042.55  3044.78  3524.16
 reduced masses (amu)
   1: 10.91   2: 11.97   3: 10.86   4:  9.75   5: 10.68   6:  9.56   7:  9.13   8:  8.16
   9:  3.39  10:  4.29  11:  2.56  12:  7.92  13:  7.51  14:  7.29  15:  8.53  16:  9.04
  17:  5.44  18:  5.29  19:  6.68  20:  4.74  21:  3.77  22:  7.26  23:  5.53  24:  9.15
  25:  6.06  26:  6.93  27:  5.84  28:  5.40  29:  2.66  30:  2.83  31:  3.69  32:  5.07
  33:  4.45  34:  4.99  35:  3.22  36:  3.17  37:  1.77  38:  1.85  39:  1.57  40:  1.59
  41:  1.59  42:  1.59  43:  1.96  44:  1.44  45:  1.74  46:  1.87  47:  1.59  48:  1.86
  49:  1.89  50:  1.92  51:  1.80  52:  1.37  53:  1.45  54:  1.88
 IR intensities (km·mol⁻¹)
   1:  0.01   2:  0.72   3:  0.18   4:  0.41   5:  0.18   6:  0.25   7:  1.11   8:  5.28
   9:  2.04  10:  3.51  11:200.07  12: 11.15  13: 16.91  14:  1.90  15:  2.29  16:  5.73
  17: 11.55  18:  3.54  19:  1.90  20:  2.83  21: 26.93  22: 68.57  23: 49.48  24:  6.97
  25:  4.75  26:  6.38  27:103.38  28: 28.52  29:  6.17  30:  7.27  31:  9.76  32: 12.83
  33: 11.85  34:  5.32  35:  2.55  36:  0.58  37:  4.61  38:  0.10  39:  0.75  40:  2.32
  41:  0.62  42:  1.57  43:136.82  44: 76.18  45:115.52  46: 74.12  47: 36.54  48: 86.43
  49: 75.94  50: 88.14  51: 74.58  52: 55.51  53: 30.22  54: 73.79
 Raman intensities (Ä⁴*amu⁻¹)
   1:  0.00   2:  0.00   3:  0.00   4:  0.00   5:  0.00   6:  0.00   7:  0.00   8:  0.00
   9:  0.00  10:  0.00  11:  0.00  12:  0.00  13:  0.00  14:  0.00  15:  0.00  16:  0.00
  17:  0.00  18:  0.00  19:  0.00  20:  0.00  21:  0.00  22:  0.00  23:  0.00  24:  0.00
  25:  0.00  26:  0.00  27:  0.00  28:  0.00  29:  0.00  30:  0.00  31:  0.00  32:  0.00
  33:  0.00  34:  0.00  35:  0.00  36:  0.00  37:  0.00  38:  0.00  39:  0.00  40:  0.00
  41:  0.00  42:  0.00  43:  0.00  44:  0.00  45:  0.00  46:  0.00  47:  0.00  48:  0.00
  49:  0.00  50:  0.00  51:  0.00  52:  0.00  53:  0.00  54:  0.00
 output can be read by thermo (or use thermo option).
 writing <g98.out> molden fake output.
 recommended (thermochemical) frequency scaling factor: 1.0
           -------------------------------------------------
          |             Thermodynamic Functions             |
           -------------------------------------------------

Molecule has no symmetry elements
It seems to be the C1 point group
c1  symmetry found (for desy threshold:  0.10E+00) used in thermo

          ...................................................
          :                      SETUP                      :
          :.................................................:
          :  # frequencies                          48      :
          :  # imaginary freq.                       0      :
          :  linear?                             false      :
          :  only rotor calc.                    false      :
          :  symmetry                               c1      :
          :  rotational number                       1      :
          :  scaling factor                  1.0000000      :
          :  rotor cutoff                    0.0000000 cm⁻¹ :
          :  imag. cutoff                 -100.0000000 cm⁻¹ :
          :.................................................:

    mode    ω/cm⁻¹     T·S(HO)/kcal·mol⁻¹    T·S(FR)/kcal·mol⁻¹   T·S(vib)
   ------------------------------------------------------------------------
       1     55.41    -1.37576 (100.00%)    -1.02564 (  0.00%)    -1.37576
       2    123.07    -0.90983 (100.00%)    -0.78950 (  0.00%)    -0.90983
       3    206.32    -0.61894 (100.00%)    -0.63652 (  0.00%)    -0.61894
       4    215.64    -0.59494 (100.00%)    -0.62345 (  0.00%)    -0.59494
       5    250.18    -0.51559 (100.00%)    -0.57945 (  0.00%)    -0.51559
       6    262.15    -0.49118 (100.00%)    -0.56561 (  0.00%)    -0.49118
       7    273.22    -0.46981 (100.00%)    -0.55336 (  0.00%)    -0.46981
   ------------------------------------------------------------------------

   temp. (K)  partition function   enthalpy   heat capacity  entropy
                                   cal/mol     cal/K/mol   cal/K/mol   J/K/mol
 298.15  VIB   104.                 3364.435     22.752     20.522
         ROT  0.184E+06              888.752      2.981     27.069
         INT  0.192E+08             4253.187     25.733     47.591
         TR   0.801E+27             1481.254      4.968     39.324
         TOT                        5734.4412    30.7012    86.9156   363.6549

       T/K    H(0)-H(T)+PV         H(T)/Eh          T*S/Eh         G(T)/Eh
   ------------------------------------------------------------------------
    298.15    0.913841E-02    0.171083E+00    0.412964E-01    0.129786E+00
   ------------------------------------------------------------------------

         :::::::::::::::::::::::::::::::::::::::::::::::::::::
         ::                  THERMODYNAMIC                  ::
         :::::::::::::::::::::::::::::::::::::::::::::::::::::
         :: total free energy         -20.762861667301 Eh   ::
         ::.................................................::
         :: total energy              -20.892647924877 Eh   ::
         :: zero point energy           0.161944253925 Eh   ::
         :: G(RRHO) w/o ZPVE           -0.032157996349 Eh   ::
         :: G(RRHO) contrib.            0.129786257576 Eh   ::
         :::::::::::::::::::::::::::::::::::::::::::::::::::::

optimized geometry written to: xtbopt.coord


           -------------------------------------------------
          | TOTAL ENERGY              -20.892647924877 Eh   |
          | TOTAL ENTHALPY            -20.721565257259 Eh   |
          | TOTAL FREE ENERGY         -20.762861667301 Eh   |
          | GRADIENT NORM               0.000046168772 Eh/α |
          | HOMO-LUMO GAP              12.297775615969 eV   |
           -------------------------------------------------

------------------------------------------------------------------------
 * finished run on 2025/04/11 at 12:40:58.557     
------------------------------------------------------------------------
 total:
 * wall-time:     0 d,  0 h,  0 min,  1.091 sec
 *  cpu-time:     0 d,  0 h,  0 min,  0.995 sec
 * ratio c/w:     0.912 speedup
 SCF:
 * wall-time:     0 d,  0 h,  0 min,  0.012 sec
 *  cpu-time:     0 d,  0 h,  0 min,  0.012 sec
 * ratio c/w:     0.989 speedup
 ANC optimizer:
 * wall-time:     0 d,  0 h,  0 min,  0.206 sec
 *  cpu-time:     0 d,  0 h,  0 min,  0.191 sec
 * ratio c/w:     0.929 speedup
 analytical hessian:
 * wall-time:     0 d,  0 h,  0 min,  0.791 sec
 *  cpu-time:     0 d,  0 h,  0 min,  0.781 sec
 * ratio c/w:     0.987 speedup

