      -----------------------------------------------------------      
     |                   =====================                   |     
     |                           x T B                           |     
     |                   =====================                   |     
     |                         S. Grimme                         |     
     |          Mulliken Center for Theoretical Chemistry        |     
     |                    University of Bonn                     |     
      -----------------------------------------------------------      

   * xtb version 6.7.1 (edcfbbe) compiled by 'albert@albert-system' on 2024-07-22

   xtb is free software: you can redistribute it and/or modify it under
   the terms of the GNU Lesser General Public License as published by
   the Free Software Foundation, either version 3 of the License, or
   (at your option) any later version.
   
   xtb is distributed in the hope that it will be useful,
   but WITHOUT ANY WARRANTY; without even the implied warranty of
   MERCHANTABILITY or FITNESS FOR A PARTICULAR PURPOSE.  See the
   GNU Lesser General Public License for more details.
   
   Cite this work as:
   * C. Bannwarth, E. Caldeweyher, S. Ehlert, A. Hansen, P. Pracht,
     J. Seibert, S. Spicher, S. Grimme, WIREs Comput. Mol. Sci., 2020, 11,
     e01493. DOI: 10.1002/wcms.1493
   
   for GFN2-xTB:
   * C. Bannwarth, S. Ehlert and S. Grimme., J. Chem. Theory Comput., 2019,
     15, 1652-1671. DOI: 10.1021/acs.jctc.8b01176
   for GFN1-xTB:
   * S. Grimme, C. Bannwarth, P. Shushkov, J. Chem. Theory Comput., 2017,
     13, 1989-2009. DOI: 10.1021/acs.jctc.7b00118
   for GFN0-xTB:
   * P. Pracht, E. Caldeweyher, S. Ehlert, S. Grimme, ChemRxiv, 2019, preprint.
     DOI: 10.26434/chemrxiv.8326202.v1
   for GFN-FF:
   * S. Spicher and S. Grimme, Angew. Chem. Int. Ed., 2020, 59, 15665-15673.
     DOI: 10.1002/anie.202004239
   
   for ALPB and GBSA implicit solvation:
   * S. Ehlert, M. Stahn, S. Spicher, S. Grimme, J. Chem. Theory Comput.,
     2021, 17, 4250-4261. DOI: 10.1021/acs.jctc.1c00471
   
   for ddCOSMO and CPCM-X implicit solvation:
   * M. Stahn, S. Ehlert, S. Grimme, J. Phys. Chem. A,
     2023, XX, XXXX-XXXX. DOI: 10.1021/acs.jpca.3c04382
   
   for DFT-D4:
   * E. Caldeweyher, C. Bannwarth and S. Grimme, J. Chem. Phys., 2017,
     147, 034112. DOI: 10.1063/1.4993215
   * E. Caldeweyher, S. Ehlert, A. Hansen, H. Neugebauer, S. Spicher,
     C. Bannwarth and S. Grimme, J. Chem. Phys., 2019, 150, 154122.
     DOI: 10.1063/1.5090222
   * E. Caldeweyher, J.-M. Mewes, S. Ehlert and S. Grimme, Phys. Chem. Chem. Phys.
     2020, 22, 8499-8512. DOI: 10.1039/D0CP00502A
   
   for sTDA-xTB:
   * S. Grimme and C. Bannwarth, J. Chem. Phys., 2016, 145, 054103.
     DOI: 10.1063/1.4959605
   
   in the mass-spec context:
   * V. Asgeirsson, C. Bauer and S. Grimme, Chem. Sci., 2017, 8, 4879.
     DOI: 10.1039/c7sc00601b
   * J. Koopman and S. Grimme, ACS Omega 2019, 4, 12, 15120-15133.
     DOI: 10.1021/acsomega.9b02011
   
   for metadynamics refer to:
   * S. Grimme, J. Chem. Theory Comput., 2019, 155, 2847-2862
     DOI: 10.1021/acs.jctc.9b00143
   
   for SPH calculations refer to:
   * S. Spicher and S. Grimme, J. Chem. Theory Comput., 2021, 17, 1701-1714
     DOI: 10.1021/acs.jctc.0c01306
   
   for ONIOM refer to:
   * C. Plett, A. Katbashev, S. Ehlert, S. Grimme, M. Bursch,
     Phys. Chem. Chem. Phys., 2023, 25, 17860-17868. DOI: 10.1039/D3CP02178E
   
   for DIPRO refer to:
   * J. Kohn, N. Gildemeister, S. Grimme, D. Fazzi, A. Hansen,
     J. Chem. Phys., 2023, just accepted.
   
   for PTB refer to:
   * S. Grimme, M. Mueller, A. Hansen, J. Chem. Phys., 2023, 158, 124111.
     DOI: 10.1063/5.0137838
   
   with help from (in alphabetical order)
   P. Atkinson, C. Bannwarth, F. Bohle, G. Brandenburg, E. Caldeweyher
   M. Checinski, S. Dohm, S. Ehlert, S. Ehrlich, I. Gerasimov, C. Hölzer
   A. Katbashev, J. Kohn, J. Koopman, C. Lavigne, S. Lehtola, F. März, M. Müller,
   F. Musil, H. Neugebauer, J. Pisarek, C. Plett, P. Pracht, F. Pultar,
   J. Seibert, P. Shushkov, S. Spicher, M. Stahn, M. Steiner, T. Strunk,
   J. Stückrath, T. Rose, and J. Unsleber
   
 * started run on 2025/04/11 at 12:39:42.899     
   ID    Z sym.   atoms
    1    6 C      1-4, 7
    2    8 O      5, 6
    3    1 H      8-17

           -------------------------------------------------
          |                Calculation Setup                |
           -------------------------------------------------

          program call               : /srv/scratch/z5358697/.xtb/bin/xtb xtb_rrho.coord --gfn2 --ohess vtight --chrg 0 --enso --norestart -I rrho-xcontrol-inp --parallel 1 --alpb water
          hostname                   : k064
          coordinate file            : xtb_rrho.coord
          omp threads                :                     1


           -------------------------------------------------
          |                 G F N 2 - x T B                 |
           -------------------------------------------------

        Reference                      10.1021/acs.jctc.8b01176
      * Hamiltonian:
        H0-scaling (s, p, d)           1.850000    2.230000    2.230000
        zeta-weighting                 0.500000
      * Dispersion:
        s8                             2.700000
        a1                             0.520000
        a2                             5.000000
        s9                             5.000000
      * Repulsion:
        kExp                           1.500000    1.000000
        rExp                           1.000000
      * Coulomb:
        alpha                          2.000000
        third order                    shell-resolved
        anisotropic                    true
        a3                             3.000000
        a5                             4.000000
        cn-shift                       1.200000
        cn-exp                         4.000000
        max-rad                        5.000000

      * Solvation model:               ALPB
        Solvent                        water
        Parameter file                 internal GFN2-xTB/ALPB
        Dielectric constant                8.0200E+01
        Reference state                gsolv [1 M gas/solution]
        Free energy shift                  1.0808E-03 Eh       6.7819E-01 kcal/mol
        Temperature                        2.9815E+02 K
        Density                            1.0000E+00 kg/L
        Solvent mass                       1.8000E+01 g/mol
        Interaction kernel             P16
        Born radius scaling (c1)           1.4744E+00
        Born radii integrator          GBOBC
        Born offset                        0.0000E+00 a0       0.0000E+00 AA
        H-bond correction              true
        Ion screening                  false
        Surface tension                    1.0000E-05 Eh       1.5569E+01 dyn/cm
        Grid points                               974 per atom

          ...................................................
          :                      SETUP                      :
          :.................................................:
          :  # basis functions                  38          :
          :  # atomic orbitals                  38          :
          :  # shells                           24          :
          :  # electrons                        42          :
          :  max. iterations                   250          :
          :  Hamiltonian                  GFN2-xTB          :
          :  restarted?                      false          :
          :  GBSA solvation                   true          :
          :  PC potential                    false          :
          :  electronic temp.          300.0000000     K    :
          :  accuracy                    1.0000000          :
          :  -> integral cutoff          0.2500000E+02      :
          :  -> integral neglect         0.1000000E-07      :
          :  -> SCF convergence          0.1000000E-05 Eh   :
          :  -> wf. convergence          0.1000000E-03 e    :
          :  Broyden damping             0.4000000          :
          :  net charge                          0          :
          :  unpaired electrons                  0          :
          ...................................................

 iter      E             dE          RMSdq      gap      omega  full diag
   1    -24.1498599 -0.241499E+02  0.413E+00    5.56       0.0  T
   2    -24.2067566 -0.568966E-01  0.204E+00    4.64       1.0  T
   3    -24.2086198 -0.186325E-02  0.107E+00    4.98       1.0  T
   4    -24.2102286 -0.160881E-02  0.166E-01    4.74       1.0  T
   5    -24.2104147 -0.186058E-03  0.717E-02    4.79       1.0  T
   6    -24.2104161 -0.145287E-05  0.215E-02    4.79       1.1  T
   7    -24.2104169 -0.787932E-06  0.454E-03    4.79       5.3  T
   8    -24.2104170 -0.322374E-07  0.259E-03    4.79       9.4  T
   9    -24.2104170 -0.936663E-08  0.437E-04    4.79      55.5  T
  10    -24.2104170 -0.632426E-09  0.205E-04    4.79     118.3  T

   *** convergence criteria satisfied after 10 iterations ***

         #    Occupation            Energy/Eh            Energy/eV
      -------------------------------------------------------------
         1        2.0000           -0.7462296             -20.3059
       ...           ...                  ...                  ...
        15        2.0000           -0.4774375             -12.9917
        16        2.0000           -0.4747801             -12.9194
        17        2.0000           -0.4552381             -12.3877
        18        2.0000           -0.4534102             -12.3379
        19        2.0000           -0.4462395             -12.1428
        20        2.0000           -0.4358098             -11.8590
        21        2.0000           -0.4212885             -11.4638 (HOMO)
        22                         -0.2452631              -6.6739 (LUMO)
        23                         -0.0131850              -0.3588
        24                          0.0848198               2.3081
        25                          0.1102104               2.9990
        26                          0.1206537               3.2832
       ...                                ...                  ...
        38                          0.5844410              15.9034
      -------------------------------------------------------------
                  HL-Gap            0.1760253 Eh            4.7899 eV
             Fermi-level           -0.3332758 Eh           -9.0689 eV

 SCC (total)                   0 d,  0 h,  0 min,  0.030 sec
 SCC setup                      ...        0 min,  0.002 sec (  5.725%)
 Dispersion                     ...        0 min,  0.000 sec (  0.441%)
 classical contributions        ...        0 min,  0.000 sec (  0.097%)
 integral evaluation            ...        0 min,  0.001 sec (  5.004%)
 iterations                     ...        0 min,  0.023 sec ( 76.275%)
 molecular gradient             ...        0 min,  0.004 sec ( 11.962%)
 printout                       ...        0 min,  0.000 sec (  0.442%)

         :::::::::::::::::::::::::::::::::::::::::::::::::::::
         ::                     SUMMARY                     ::
         :::::::::::::::::::::::::::::::::::::::::::::::::::::
         :: total energy             -23.953176434974 Eh    ::
         :: total w/o Gsasa/hb       -23.953404808641 Eh    ::
         :: gradient norm              0.031020445619 Eh/a0 ::
         :: HOMO-LUMO gap              4.789893245129 eV    ::
         ::.................................................::
         :: SCC energy               -24.210382221370 Eh    ::
         :: -> isotropic ES            0.057474821836 Eh    ::
         :: -> anisotropic ES          0.001552936398 Eh    ::
         :: -> anisotropic XC          0.007015182798 Eh    ::
         :: -> dispersion             -0.009607964500 Eh    ::
         :: -> Gsolv                  -0.008902745789 Eh    ::
         ::    -> Gelec               -0.009131119456 Eh    ::
         ::    -> Gsasa                0.001484980531 Eh    ::
         ::    -> Ghb                 -0.002337366562 Eh    ::
         ::    -> Gshift               0.001080759698 Eh    ::
         :: repulsion energy           0.257205786395 Eh    ::
         :: add. restraining           0.000000000000 Eh    ::
         :: total charge               0.000000000000 e     ::
         :::::::::::::::::::::::::::::::::::::::::::::::::::::

      ----------------------------------------------------------- 
     |                   =====================                   |
     |                        A N C O P T                        |
     |                   =====================                   |
     |               Approximate Normal Coordinate               |
     |                Rational Function Optimizer                |
      ----------------------------------------------------------- 
      ----------------------------------------------------------- 
     |                   =====================                   |
     |                        A N C O P T                        |
     |                   =====================                   |
     |               Approximate Normal Coordinate               |
     |                Rational Function Optimizer                |
      ----------------------------------------------------------- 

          ...................................................
          :                      SETUP                      :
          :.................................................:
          :   optimization level         verytight          :
          :   max. optcycles                   340          :
          :   ANC micro-cycles                  20          :
          :   degrees of freedom                45          :
          :.................................................:
          :   RF solver                   davidson          :
          :   write xtbopt.log                true          :
          :   linear?                        false          :
          :   energy convergence         0.1000000E-06 Eh   :
          :   grad. convergence          0.2000000E-03 Eh/α :
          :   maxmium RF displ.          1.0000000          :
          :   Hlow (freq-cutoff)         0.1000000E-01      :
          :   Hmax (freq-cutoff)         5.0000000          :
          :   S6 in model hess.         20.0000000          :
          ...................................................

generating ANC from exact Hessian ...
Using Lindh-Hessian (1995)
 Shifting diagonal of input Hessian by   8.729965121308442E-003
 Lowest  eigenvalues of input Hessian
    0.000000    0.000000    0.000000    0.000000    0.000000    0.000000
    0.010000    0.012250    0.013015    0.016860    0.019668    0.024970
    0.030423    0.031188    0.046852    0.050011    0.059504    0.062005
 Highest eigenvalues
    1.159725    1.200044    1.248567    1.257134    1.729294    2.268052
 

........................................................................
.............................. CYCLE    1 ..............................
........................................................................

 iter      E             dE          RMSdq      gap      omega  full diag
   1    -24.2104170 -0.242104E+02  0.393E-05    4.79       0.0  T
   2    -24.2104170 -0.228439E-11  0.249E-05    4.79     972.4  T
   3    -24.2104170 -0.114042E-11  0.903E-06    4.79    2687.0  T
     SCC iter.                  ...        0 min,  0.001 sec
     gradient                   ...        0 min,  0.003 sec
 * total energy  :   -23.9531764 Eh     change       -0.8799361E-10 Eh
   gradient norm :     0.0310199 Eh/α   predicted     0.0000000E+00 (-100.00%)
   displ. norm   :     0.1070027 α      lambda       -0.1564843E-02
   maximum displ.:     0.0449515 α      in ANC's #13, #4, #9, ...

........................................................................
.............................. CYCLE    2 ..............................
........................................................................

 iter      E             dE          RMSdq      gap      omega  full diag
   1    -24.2200283 -0.242200E+02  0.107E-01    4.91       0.0  T
   2    -24.2200469 -0.186052E-04  0.620E-02    4.88       1.0  T
   3    -24.2200470 -0.612179E-07  0.240E-02    4.89       1.0  T
   4    -24.2200488 -0.185072E-05  0.402E-03    4.88       6.0  T
   5    -24.2200489 -0.611928E-07  0.173E-03    4.89      14.0  T
   6    -24.2200489 -0.349123E-08  0.504E-04    4.89      48.1  T
   7    -24.2200489 -0.304411E-09  0.206E-04    4.89     117.7  T
     SCC iter.                  ...        0 min,  0.002 sec
     gradient                   ...        0 min,  0.004 sec
 * total energy  :   -23.9541597 Eh     change       -0.9832577E-03 Eh
   gradient norm :     0.0120066 Eh/α   predicted    -0.7913811E-03 ( -19.51%)
   displ. norm   :     0.0802083 α      lambda       -0.2996231E-03
   maximum displ.:     0.0498142 α      in ANC's #3, #2, #4, ...

........................................................................
.............................. CYCLE    3 ..............................
........................................................................

 iter      E             dE          RMSdq      gap      omega  full diag
   1    -24.2235679 -0.242236E+02  0.564E-02    4.93       0.0  T
   2    -24.2235786 -0.106772E-04  0.316E-02    4.92       1.0  T
   3    -24.2235789 -0.312087E-06  0.147E-02    4.92       1.6  T
   4    -24.2235790 -0.119300E-06  0.340E-03    4.92       7.1  T
   5    -24.2235791 -0.848915E-07  0.796E-04    4.92      30.5  T
   6    -24.2235791 -0.756305E-09  0.198E-04    4.92     122.4  T
     SCC iter.                  ...        0 min,  0.002 sec
     gradient                   ...        0 min,  0.004 sec
 * total energy  :   -23.9543322 Eh     change       -0.1724743E-03 Eh
   gradient norm :     0.0048568 Eh/α   predicted    -0.1507745E-03 ( -12.58%)
   displ. norm   :     0.0652633 α      lambda       -0.6939840E-04
   maximum displ.:     0.0443566 α      in ANC's #3, #2, #6, ...

........................................................................
.............................. CYCLE    4 ..............................
........................................................................

 iter      E             dE          RMSdq      gap      omega  full diag
   1    -24.2235102 -0.242235E+02  0.312E-02    4.92       0.0  T
   2    -24.2235128 -0.260781E-05  0.174E-02    4.91       1.4  T
   3    -24.2235128 -0.529085E-07  0.706E-03    4.91       3.4  T
   4    -24.2235128 -0.116240E-07  0.122E-03    4.91      19.8  T
   5    -24.2235129 -0.147915E-07  0.323E-04    4.91      75.2  T
   6    -24.2235129 -0.992273E-10  0.160E-04    4.91     151.3  T
     SCC iter.                  ...        0 min,  0.002 sec
     gradient                   ...        0 min,  0.004 sec
 * total energy  :   -23.9543792 Eh     change       -0.4704989E-04 Eh
   gradient norm :     0.0019908 Eh/α   predicted    -0.3484857E-04 ( -25.93%)
   displ. norm   :     0.1431889 α      lambda       -0.5174305E-04
   maximum displ.:     0.1071935 α      in ANC's #3, #2, #1, ...

........................................................................
.............................. CYCLE    5 ..............................
........................................................................

 iter      E             dE          RMSdq      gap      omega  full diag
   1    -24.2221670 -0.242222E+02  0.490E-02    4.90       0.0  T
   2    -24.2221694 -0.238036E-05  0.284E-02    4.90       1.0  T
   3    -24.2221694 -0.565785E-07  0.636E-03    4.90       3.8  T
   4    -24.2221694 -0.259892E-07  0.814E-04    4.90      29.8  T
   5    -24.2221694 -0.198037E-08  0.465E-04    4.90      52.1  T
     SCC iter.                  ...        0 min,  0.002 sec
     gradient                   ...        0 min,  0.004 sec
 * total energy  :   -23.9544219 Eh     change       -0.4271518E-04 Eh
   gradient norm :     0.0044628 Eh/α   predicted    -0.2610904E-04 ( -38.88%)
   displ. norm   :     0.0475571 α      lambda       -0.2526427E-04
   maximum displ.:     0.0334281 α      in ANC's #3, #2, #1, ...

........................................................................
.............................. CYCLE    6 ..............................
........................................................................

 iter      E             dE          RMSdq      gap      omega  full diag
   1    -24.2221128 -0.242221E+02  0.147E-02    4.90       0.0  T
   2    -24.2221130 -0.207181E-06  0.867E-03    4.90       2.8  T
   3    -24.2221130 -0.208085E-08  0.194E-03    4.90      12.5  T
   4    -24.2221130 -0.640150E-08  0.419E-04    4.90      57.9  T
   5    -24.2221130 -0.162099E-08  0.161E-04    4.90     150.5  T
     SCC iter.                  ...        0 min,  0.002 sec
     gradient                   ...        0 min,  0.004 sec
 * total energy  :   -23.9544443 Eh     change       -0.2235623E-04 Eh
   gradient norm :     0.0034273 Eh/α   predicted    -0.1265998E-04 ( -43.37%)
   displ. norm   :     0.1338375 α      lambda       -0.6099630E-04
   maximum displ.:     0.0909552 α      in ANC's #3, #2, #1, ...

........................................................................
.............................. CYCLE    7 ..............................
........................................................................

 iter      E             dE          RMSdq      gap      omega  full diag
   1    -24.2223407 -0.242223E+02  0.419E-02    4.90       0.0  T
   2    -24.2223421 -0.144132E-05  0.246E-02    4.90       1.0  T
   3    -24.2223422 -0.247276E-07  0.479E-03    4.90       5.1  T
   4    -24.2223422 -0.363795E-07  0.106E-03    4.90      22.9  T
   5    -24.2223422 -0.911517E-08  0.469E-04    4.90      51.7  T
   6    -24.2223422 -0.128601E-09  0.974E-05    4.90     249.0  T
     SCC iter.                  ...        0 min,  0.002 sec
     gradient                   ...        0 min,  0.004 sec
 * total energy  :   -23.9544878 Eh     change       -0.4346624E-04 Eh
   gradient norm :     0.0014166 Eh/α   predicted    -0.3104509E-04 ( -28.58%)
   displ. norm   :     0.1903766 α      lambda       -0.3009340E-04
   maximum displ.:     0.1296045 α      in ANC's #3, #2, #1, ...

........................................................................
.............................. CYCLE    8 ..............................
........................................................................

 iter      E             dE          RMSdq      gap      omega  full diag
   1    -24.2223341 -0.242223E+02  0.588E-02    4.90       0.0  T
   2    -24.2223346 -0.562364E-06  0.349E-02    4.90       1.0  T
   3    -24.2223347 -0.467407E-07  0.267E-03    4.90       9.1  T
   4    -24.2223347 -0.381890E-07  0.115E-03    4.90      21.1  T
   5    -24.2223347 -0.382524E-08  0.625E-04    4.90      38.8  T
   6    -24.2223347 -0.270965E-09  0.106E-04    4.90     229.2  T
     SCC iter.                  ...        0 min,  0.002 sec
     gradient                   ...        0 min,  0.004 sec
 * total energy  :   -23.9545130 Eh     change       -0.2521082E-04 Eh
   gradient norm :     0.0028813 Eh/α   predicted    -0.1528750E-04 ( -39.36%)
   displ. norm   :     0.0400689 α      lambda       -0.1298158E-04
   maximum displ.:     0.0263984 α      in ANC's #3, #1, #8, ...

........................................................................
.............................. CYCLE    9 ..............................
........................................................................

 iter      E             dE          RMSdq      gap      omega  full diag
   1    -24.2228168 -0.242228E+02  0.161E-02    4.90       0.0  T
   2    -24.2228170 -0.134891E-06  0.931E-03    4.90       2.6  T
   3    -24.2228170 -0.768856E-08  0.136E-03    4.90      17.9  T
   4    -24.2228170 -0.218227E-08  0.335E-04    4.90      72.4  T
   5    -24.2228170 -0.116664E-09  0.186E-04    4.90     130.6  T
     SCC iter.                  ...        0 min,  0.002 sec
     gradient                   ...        0 min,  0.004 sec
 * total energy  :   -23.9545230 Eh     change       -0.1002070E-04 Eh
   gradient norm :     0.0016658 Eh/α   predicted    -0.6501528E-05 ( -35.12%)
   displ. norm   :     0.1189133 α      lambda       -0.1357543E-04
   maximum displ.:     0.0783133 α      in ANC's #3, #1, #2, ...

........................................................................
.............................. CYCLE   10 ..............................
........................................................................

 iter      E             dE          RMSdq      gap      omega  full diag
   1    -24.2229847 -0.242230E+02  0.462E-02    4.90       0.0  T
   2    -24.2229855 -0.803183E-06  0.271E-02    4.90       1.0  T
   3    -24.2229856 -0.511165E-07  0.318E-03    4.90       7.6  T
   4    -24.2229856 -0.170133E-07  0.871E-04    4.90      27.8  T
   5    -24.2229856 -0.999467E-09  0.498E-04    4.90      48.7  T
     SCC iter.                  ...        0 min,  0.002 sec
     gradient                   ...        0 min,  0.003 sec
 * total energy  :   -23.9545317 Eh     change       -0.8701838E-05 Eh
   gradient norm :     0.0010394 Eh/α   predicted    -0.6829309E-05 ( -21.52%)
   displ. norm   :     0.0160305 α      lambda       -0.1886732E-05
   maximum displ.:     0.0102374 α      in ANC's #2, #3, #5, ...

........................................................................
.............................. CYCLE   11 ..............................
........................................................................

 iter      E             dE          RMSdq      gap      omega  full diag
   1    -24.2230214 -0.242230E+02  0.677E-03    4.90       0.0  T
   2    -24.2230214 -0.311919E-07  0.389E-03    4.90       6.2  T
   3    -24.2230214 -0.851141E-09  0.682E-04    4.90      35.6  T
   4    -24.2230214 -0.497035E-09  0.111E-04    4.90     219.0  T
     SCC iter.                  ...        0 min,  0.001 sec
     gradient                   ...        0 min,  0.004 sec
 * total energy  :   -23.9545336 Eh     change       -0.1932045E-05 Eh
   gradient norm :     0.0004568 Eh/α   predicted    -0.9429066E-06 ( -51.20%)
   displ. norm   :     0.0185645 α      lambda       -0.1541141E-05
   maximum displ.:     0.0142923 α      in ANC's #5, #4, #1, ...

........................................................................
.............................. CYCLE   12 ..............................
........................................................................

 iter      E             dE          RMSdq      gap      omega  full diag
   1    -24.2228333 -0.242228E+02  0.776E-03    4.90       0.0  T
   2    -24.2228333 -0.244831E-07  0.457E-03    4.90       5.3  T
   3    -24.2228333 -0.780485E-09  0.567E-04    4.90      42.7  T
   4    -24.2228333 -0.711424E-09  0.151E-04    4.90     160.7  T
     SCC iter.                  ...        0 min,  0.001 sec
     gradient                   ...        0 min,  0.003 sec
 * total energy  :   -23.9545348 Eh     change       -0.1135281E-05 Eh
   gradient norm :     0.0003301 Eh/α   predicted    -0.7687927E-06 ( -32.28%)
   displ. norm   :     0.0053452 α      lambda       -0.1985078E-06
   maximum displ.:     0.0042038 α      in ANC's #5, #2, #4, ...

........................................................................
.............................. CYCLE   13 ..............................
........................................................................

 iter      E             dE          RMSdq      gap      omega  full diag
   1    -24.2229144 -0.242229E+02  0.240E-03    4.90       0.0  T
   2    -24.2229144 -0.519609E-08  0.140E-03    4.90      17.3  T
   3    -24.2229144 -0.110361E-09  0.304E-04    4.90      79.7  T
   4    -24.2229144 -0.118870E-09  0.645E-05    4.90     375.8  T
     SCC iter.                  ...        0 min,  0.001 sec
     gradient                   ...        0 min,  0.003 sec
 * total energy  :   -23.9545349 Eh     change       -0.1670273E-06 Eh
   gradient norm :     0.0000969 Eh/α   predicted    -0.9907366E-07 ( -40.68%)
   displ. norm   :     0.0032622 α      lambda       -0.4750257E-07
   maximum displ.:     0.0022624 α      in ANC's #3, #5, #2, ...

........................................................................
.............................. CYCLE   14 ..............................
........................................................................

 iter      E             dE          RMSdq      gap      omega  full diag
   1    -24.2229004 -0.242229E+02  0.109E-03    4.90       0.0  T
   2    -24.2229004 -0.645951E-09  0.637E-04    4.90      38.1  T
   3    -24.2229004 -0.226237E-10  0.996E-05    4.90     243.4  T
     SCC iter.                  ...        0 min,  0.001 sec
     gradient                   ...        0 min,  0.003 sec
 * total energy  :   -23.9545350 Eh     change       -0.4963071E-07 Eh
   gradient norm :     0.0000422 Eh/α   predicted    -0.2275510E-07 ( -54.15%)
   displ. norm   :     0.0044394 α      lambda       -0.4103399E-07
   maximum displ.:     0.0027922 α      in ANC's #3, #1, #5, ...

   *** GEOMETRY OPTIMIZATION CONVERGED AFTER 14 ITERATIONS ***

------------------------------------------------------------------------
 total energy gain   :        -0.0013585 Eh       -0.8525 kcal/mol
 total RMSD          :         0.1955534 a0        0.1035 Å
 total power (kW/mol):        -0.2547742 (step)  -29.5865 (real)
------------------------------------------------------------------------

 ANCopt (total)                0 d,  0 h,  0 min,  0.121 sec
 optimizer setup                ...        0 min,  0.000 sec (  0.264%)
 model hessian                  ...        0 min,  0.004 sec (  2.920%)
 ANC generation                 ...        0 min,  0.000 sec (  0.318%)
 coordinate transformation      ...        0 min,  0.000 sec (  0.055%)
 single point calculation       ...        0 min,  0.108 sec ( 89.571%)
 optimization log               ...        0 min,  0.006 sec (  4.709%)
 hessian update                 ...        0 min,  0.000 sec (  0.064%)
 rational function              ...        0 min,  0.002 sec (  1.563%)

================
 final structure:
================
$coord
       -4.17287268676570        1.62527291809200        1.38251796531626      C
       -3.40327698405149        0.75526526039680       -1.25247970553159      C
       -1.72504013669250       -1.60696170325756       -1.15635135769847      C
        0.76314584854118       -1.05046958995878        0.10820576441113      C
        1.50107570139740       -2.01035277284485        2.05619740803590      O
        2.10077567067481        0.64536822851512       -1.17163009776192      O
        4.50096851311926        1.36196853534079       -0.16441397539657      C
       -2.51469664444986        2.06595736533967        2.51722596903623      H
       -5.34923107684280        3.30467921033732        1.26894025714302      H
       -5.22879228036095        0.15064717290534        2.34877895760298      H
       -2.38003911464574        2.26221929446630       -2.21769497438554      H
       -5.09102093489765        0.31385356414261       -2.34911987587578      H
       -1.32932072974835       -2.24215136050436       -3.07629941415651      H
       -2.65587191200138       -3.11522891800649       -0.10733923451492      H
        5.70319636406470       -0.29930597415621        0.04334653284800      H
        4.25760410658378        2.24486537923879        1.68220121209839      H
        5.29547089304040        2.68573296049896       -1.51458755400427      H
$end
 
 Bond Distances (Angstroems)
 ---------------------------
C1-C2=1.5238         C1-H8=1.0885         C1-H9=1.0867         C1-H10=1.0875        C2-C1=1.5238         C2-C3=1.5342         
C2-H11=1.0909        C2-H12=1.0904        C3-C2=1.5342         C3-C4=1.5061         C3-H13=1.0904        C3-H14=1.0899        
C4-C3=1.5061         C4-O5=1.2137         C4-O6=1.3286         O5-C4=1.2137         O6-C4=1.3286         O6-C7=1.4287         
C7-O6=1.4287         C7-H15=1.0907        C7-H16=1.0908        C7-H17=1.0853        H8-C1=1.0885         H9-C1=1.0867         
H10-C1=1.0875        H11-C2=1.0909        H12-C2=1.0904        H13-C3=1.0904        H14-C3=1.0899        H15-C7=1.0907        
H16-C7=1.0908        H17-C7=1.0853        
 C  H  Rav=1.0891 sigma=0.0019  Rmin=1.0853  Rmax=1.0909    10
 C  C  Rav=1.5214 sigma=0.0116  Rmin=1.5061  Rmax=1.5342     3
 O  C  Rav=1.3236 sigma=0.0878  Rmin=1.2137  Rmax=1.4287     3
 
 selected bond angles (degree)
 --------------------
H8-C1-C2=110.74                H9-C1-C2=110.46                H9-C1-H8=108.49                H10-C1-C2=110.53               
H10-C1-H8=107.97               H10-C1-H9=108.57               C3-C2-C1=111.75                H11-C2-C1=109.89               
H11-C2-C3=108.89               H12-C2-C1=109.44               H12-C2-C3=108.50               H12-C2-H11=108.30              
C4-C3-C2=111.19                H13-C3-C2=109.35               H13-C3-C4=107.84               H14-C3-C2=110.61               
H14-C3-C4=108.18               H14-C3-H13=109.61              O5-C4-C3=125.23                O6-C4-C3=111.80                
O6-C4-O5=122.97                C7-O6-C4=117.57                H15-C7-O6=110.01               H16-C7-O6=110.06               
H16-C7-H15=108.89              H17-C7-O6=105.67               H17-C7-H15=111.14              H17-C7-H16=111.04              
 
 selected dihedral angles (degree)
 ---------------------------------
C3-C2-C1-H8= 59.45            C3-C2-C1-H9=179.66            C3-C2-C1-H10=299.84           H11-C2-C1-H8=298.45           
H11-C2-C1-H9= 58.65           H11-C2-C1-H10=178.84          H12-C2-C1-H8=179.65           H12-C2-C1-H9=299.85           
H12-C2-C1-H10= 60.03          C4-C3-C2-C1=295.00            C4-C3-C2-H11= 56.58           C4-C3-C2-H12=174.25           
H13-C3-C2-C1=176.02           H13-C3-C2-H11=297.60          H13-C3-C2-H12= 55.27          H14-C3-C2-C1= 55.21           
H14-C3-C2-H11=176.79          H14-C3-C2-H12=294.47          O5-C4-C3-C2=117.09            O5-C4-C3-H13=236.97           
O5-C4-C3-H14=355.45           O6-C4-C3-C2=297.01            O6-C4-C3-H13= 56.89           O6-C4-C3-H14=175.36           
C7-O6-C4-C3=179.50            C7-O6-C4-O5=359.42            H15-C7-O6-C4= 57.84           H16-C7-O6-C4=297.85           
H17-C7-O6-C4=177.89           
           -------------------------------------------------
          |                Final Singlepoint                |
           -------------------------------------------------

          ...................................................
          :                      SETUP                      :
          :.................................................:
          :  # basis functions                  38          :
          :  # atomic orbitals                  38          :
          :  # shells                           24          :
          :  # electrons                        42          :
          :  max. iterations                   250          :
          :  Hamiltonian                  GFN2-xTB          :
          :  restarted?                      false          :
          :  GBSA solvation                   true          :
          :  PC potential                    false          :
          :  electronic temp.          300.0000000     K    :
          :  accuracy                    1.0000000          :
          :  -> integral cutoff          0.2500000E+02      :
          :  -> integral neglect         0.1000000E-07      :
          :  -> SCF convergence          0.1000000E-05 Eh   :
          :  -> wf. convergence          0.1000000E-03 e    :
          :  Broyden damping             0.4000000          :
          :  net charge                          0          :
          :  unpaired electrons                  0          :
          ...................................................

 iter      E             dE          RMSdq      gap      omega  full diag
   1    -24.2229004 -0.242229E+02  0.222E-05    4.90       0.0  T
   2    -24.2229004 -0.220268E-11  0.127E-05    4.90    1907.5  T
   3    -24.2229004 -0.298428E-12  0.764E-06    4.90    3176.6  T

   *** convergence criteria satisfied after 3 iterations ***

         #    Occupation            Energy/Eh            Energy/eV
      -------------------------------------------------------------
         1        2.0000           -0.7512230             -20.4418
       ...           ...                  ...                  ...
        15        2.0000           -0.4775366             -12.9944
        16        2.0000           -0.4747475             -12.9185
        17        2.0000           -0.4538007             -12.3485
        18        2.0000           -0.4515929             -12.2885
        19        2.0000           -0.4457675             -12.1299
        20        2.0000           -0.4367519             -11.8846
        21        2.0000           -0.4196799             -11.4201 (HOMO)
        22                         -0.2396672              -6.5217 (LUMO)
        23                          0.0061154               0.1664
        24                          0.0951483               2.5891
        25                          0.1173181               3.1924
        26                          0.1271004               3.4586
       ...                                ...                  ...
        38                          0.6113069              16.6345
      -------------------------------------------------------------
                  HL-Gap            0.1800127 Eh            4.8984 eV
             Fermi-level           -0.3296735 Eh           -8.9709 eV

 SCC (total)                   0 d,  0 h,  0 min,  0.007 sec
 SCC setup                      ...        0 min,  0.001 sec ( 13.295%)
 Dispersion                     ...        0 min,  0.000 sec (  0.661%)
 classical contributions        ...        0 min,  0.000 sec (  0.202%)
 integral evaluation            ...        0 min,  0.001 sec ( 17.030%)
 iterations                     ...        0 min,  0.001 sec ( 15.562%)
 molecular gradient             ...        0 min,  0.004 sec ( 51.172%)
 printout                       ...        0 min,  0.000 sec (  1.869%)

         :::::::::::::::::::::::::::::::::::::::::::::::::::::
         ::                     SUMMARY                     ::
         :::::::::::::::::::::::::::::::::::::::::::::::::::::
         :: total energy             -23.954534971951 Eh    ::
         :: total w/o Gsasa/hb       -23.954723806633 Eh    ::
         :: gradient norm              0.000042055893 Eh/a0 ::
         :: HOMO-LUMO gap              4.898394247260 eV    ::
         ::.................................................::
         :: SCC energy               -24.222866646805 Eh    ::
         :: -> isotropic ES            0.057398848762 Eh    ::
         :: -> anisotropic ES          0.001099326713 Eh    ::
         :: -> anisotropic XC          0.006373137913 Eh    ::
         :: -> dispersion             -0.009609609342 Eh    ::
         :: -> Gsolv                  -0.008963425439 Eh    ::
         ::    -> Gelec               -0.009152260121 Eh    ::
         ::    -> Gsasa                0.001444168174 Eh    ::
         ::    -> Ghb                 -0.002336093189 Eh    ::
         ::    -> Gshift               0.001080759698 Eh    ::
         :: repulsion energy           0.268331674854 Eh    ::
         :: add. restraining           0.000000000000 Eh    ::
         :: total charge              -0.000000000000 e     ::
         :::::::::::::::::::::::::::::::::::::::::::::::::::::

           ------------------------------------------------- 
          |                Numerical Hessian                |
           ------------------------------------------------- 
step length          :   0.00500
SCC accuracy         :   0.30000
Hessian scale factor :   1.00000
frozen atoms in %    :   0.00000    0
RMS gradient         :   0.00004
estimated CPU  time      0.01 min
estimated wall time      0.01 min

writing file <hessian>.

 projected vibrational frequencies (cm⁻¹)
eigval :       -0.00    -0.00    -0.00     0.00     0.00     0.00
eigval :       18.47    32.17    83.78   140.30   202.51   228.18
eigval :      281.74   383.28   419.61   600.77   678.91   814.85
eigval :      875.20   900.12   942.58  1005.09  1073.41  1080.55
eigval :     1113.16  1117.18  1140.73  1184.42  1211.71  1245.99
eigval :     1301.69  1332.38  1375.65  1414.79  1425.36  1434.02
eigval :     1450.92  1478.10  1496.08  1502.57  1699.78  2985.69
eigval :     2987.00  2990.03  2996.23  2998.96  3011.68  3022.06
eigval :     3036.46  3045.28  3057.02
           -------------------------------------------------
          |                Property Printout                |
           -------------------------------------------------

    * Orbital Energies and Occupations

         #    Occupation            Energy/Eh            Energy/eV
      -------------------------------------------------------------
         1        2.0000           -0.7512230             -20.4418
       ...           ...                  ...                  ...
         9        2.0000           -0.5641229             -15.3506
        10        2.0000           -0.5504278             -14.9779
        11        2.0000           -0.5223133             -14.2129
        12        2.0000           -0.5119142             -13.9299
        13        2.0000           -0.5035649             -13.7027
        14        2.0000           -0.4955456             -13.4845
        15        2.0000           -0.4775366             -12.9944
        16        2.0000           -0.4747475             -12.9185
        17        2.0000           -0.4538007             -12.3485
        18        2.0000           -0.4515929             -12.2885
        19        2.0000           -0.4457675             -12.1300
        20        2.0000           -0.4367519             -11.8846
        21        2.0000           -0.4196798             -11.4201 (HOMO)
        22                         -0.2396671              -6.5217 (LUMO)
        23                          0.0061155               0.1664
        24                          0.0951483               2.5891
        25                          0.1173181               3.1924
        26                          0.1271004               3.4586
        27                          0.1386590               3.7731
        28                          0.1493291               4.0635
        29                          0.1609516               4.3797
        30                          0.1854372               5.0460
        31                          0.1959272               5.3314
        32                          0.2001772               5.4471
       ...                                ...                  ...
        38                          0.6113070              16.6345
      -------------------------------------------------------------
                  HL-Gap            0.1800127 Eh            4.8984 eV
             Fermi-level           -0.3296735 Eh           -8.9709 eV

     #   Z          covCN         q      C6AA      α(0)
     1   6 C        3.752    -0.112    22.702     6.795
     2   6 C        3.802    -0.059    21.631     6.622
     3   6 C        3.804    -0.101    22.427     6.742
     4   6 C        2.718     0.366    20.792     7.464
     5   8 O        0.856    -0.487    23.493     6.498
     6   8 O        1.704    -0.263    18.364     5.786
     7   6 C        3.650     0.011    20.706     6.536
     8   1 H        0.925     0.027     2.627     2.535
     9   1 H        0.925     0.050     2.315     2.379
    10   1 H        0.925     0.045     2.382     2.414
    11   1 H        0.924     0.053     2.281     2.362
    12   1 H        0.924     0.060     2.202     2.320
    13   1 H        0.924     0.086     1.916     2.165
    14   1 H        0.925     0.074     2.040     2.234
    15   1 H        0.924     0.073     2.050     2.239
    16   1 H        0.924     0.073     2.055     2.242
    17   1 H        0.925     0.102     1.763     2.076

 Mol. C6AA /au·bohr⁶  :       2204.639626
 Mol. C8AA /au·bohr⁸  :      46940.080236
 Mol. α(0) /au        :         69.408028


Wiberg/Mayer (AO) data.
largest (>0.10) Wiberg bond orders for each atom

 ---------------------------------------------------------------------------
     #   Z sym  total        # sym  WBO       # sym  WBO       # sym  WBO
 ---------------------------------------------------------------------------
     1   6 C    3.996 --     2 C    1.022     8 H    0.987    10 H    0.987
                             9 H    0.986
     2   6 C    3.992 --     1 C    1.022     3 C    0.984    11 H    0.977
                            12 H    0.975
     3   6 C    3.989 --     2 C    0.984     4 C    0.980    14 H    0.973
                            13 H    0.952
     4   6 C    3.903 --     5 O    1.698     6 O    1.162     3 C    0.980
     5   8 O    1.973 --     4 C    1.698     6 O    0.169
     6   8 O    2.318 --     4 C    1.162     7 C    0.941     5 O    0.169
     7   6 C    3.906 --    17 H    0.977    15 H    0.976    16 H    0.976
                             6 O    0.941
     8   1 H    0.999 --     1 C    0.987
     9   1 H    0.997 --     1 C    0.986
    10   1 H    0.998 --     1 C    0.987
    11   1 H    0.997 --     2 C    0.977
    12   1 H    0.996 --     2 C    0.975
    13   1 H    0.993 --     3 C    0.952
    14   1 H    0.994 --     3 C    0.973
    15   1 H    0.995 --     7 C    0.976
    16   1 H    0.995 --     7 C    0.976
    17   1 H    0.989 --     7 C    0.977
 ---------------------------------------------------------------------------

Topologies differ in total number of bonds
Writing topology from bond orders to xtbtopo.mol

molecular dipole:
                 x           y           z       tot (Debye)
 q only:       -0.158       0.736      -0.941
   full:       -0.116       0.707      -0.943       3.010
molecular quadrupole (traceless):
                xx          xy          yy          xz          yz          zz
 q only:        6.969       4.450      -2.379      -0.929       3.476      -4.590
  q+dip:        6.052       4.257      -1.642      -1.586       4.128      -4.411
   full:        6.311       4.019      -1.634      -1.634       4.677      -4.677

           -------------------------------------------------
          |                Geometry Summary                 |
           -------------------------------------------------

      molecular mass/u    :      102.1318968
   center of mass at/Å    :       -0.0011776      -0.0071325      -0.0013732
  moments of inertia/u·Å² :        0.1144900E+03   0.3060351E+03   0.3270605E+03
rotational constants/cm⁻¹ :        0.1472411E+00   0.5508398E-01   0.5154285E-01

 * 15 selected distances

     #   Z          #   Z                                           value/Å
     1   6 C        2   6 C                                       1.5238471
     2   6 C        3   6 C                                       1.5342341 (max)
     4   6 C        5   8 O                                       1.2137194
     4   6 C        6   8 O                                       1.3285511
     6   8 O        7   6 C                                       1.4286734
     1   6 C        8   1 H                                       1.0885258
     1   6 C        9   1 H                                       1.0866993
     1   6 C       10   1 H                                       1.0874751
     2   6 C       11   1 H                                       1.0908713
     2   6 C       12   1 H                                       1.0904061
     3   6 C       13   1 H                                       1.0904468
     3   6 C       14   1 H                                       1.0898668
     7   6 C       15   1 H                                       1.0907150
     7   6 C       16   1 H                                       1.0907627
     7   6 C       17   1 H                                       1.0853366 (min)

 * 3 distinct bonds (by element types)

   Z      Z             #   av. dist./Å        max./Å        min./Å
   1 H    6 C          10     1.0891105     1.0908713     1.0853366
   6 C    6 C           2     1.5290406     1.5342341     1.5238471
   6 C    8 O           3     1.3236479     1.4286734     1.2137194

           -------------------------------------------------
          |               Frequency Printout                |
           -------------------------------------------------
 projected vibrational frequencies (cm⁻¹)
eigval :       -0.00    -0.00    -0.00     0.00     0.00     0.00
eigval :       18.47    32.17    83.78   140.30   202.51   228.18
eigval :      281.74   383.28   419.61   600.77   678.91   814.85
eigval :      875.20   900.12   942.58  1005.09  1073.41  1080.55
eigval :     1113.16  1117.18  1140.73  1184.42  1211.71  1245.99
eigval :     1301.69  1332.38  1375.65  1414.79  1425.36  1434.02
eigval :     1450.92  1478.10  1496.08  1502.57  1699.78  2985.69
eigval :     2987.00  2990.03  2996.23  2998.96  3011.68  3022.06
eigval :     3036.46  3045.28  3057.02
 reduced masses (amu)
   1: 10.77   2: 12.53   3: 12.22   4: 11.79   5: 10.09   6: 11.24   7:  6.51   8:  7.07
   9:  9.06  10:  6.76  11:  8.89  12:  7.05  13:  9.19  14:  7.75  15: 10.98  16: 11.56
  17:  9.81  18:  5.50  19:  7.78  20:  7.96  21:  6.03  22:  9.14  23:  8.92  24:  4.89
  25:  4.37  26:  7.82  27:  6.33  28:  5.58  29:  9.74  30:  3.64  31:  4.34  32:  4.53
  33:  2.59  34:  3.15  35:  1.51  36:  2.11  37:  1.60  38:  1.94  39:  1.52  40:  1.58
  41: 13.30  42:  1.96  43:  1.93  44:  1.76  45:  1.39  46:  1.49  47:  1.78  48:  1.89
  49:  1.83  50:  1.44  51:  1.80
 IR intensities (km·mol⁻¹)
   1:  1.82   2:  0.41   3:  0.02   4:  0.49   5:  0.75   6:  0.97   7:  1.06   8:  1.60
   9:  0.14  10:  1.84  11:  6.58  12:  6.19  13: 15.27  14:  3.77  15: 10.35  16: 12.10
  17: 21.18  18: 20.15  19: 23.53  20: 12.37  21:  4.16  22: 12.16  23: 85.42  24: 11.45
  25:  8.33  26: 22.09  27: 26.60  28: 42.39  29:361.38  30: 13.77  31:  9.31  32:  6.58
  33: 15.24  34:  1.30  35: 13.30  36:  7.22  37:  2.18  38:  0.57  39:  2.61  40:  0.37
  41:672.46  42: 17.12  43: 26.69  44:  9.23  45: 19.22  46: 34.89  47: 35.86  48: 93.68
  49: 71.46  50: 37.46  51:  2.91
 Raman intensities (Ä⁴*amu⁻¹)
   1:  0.00   2:  0.00   3:  0.00   4:  0.00   5:  0.00   6:  0.00   7:  0.00   8:  0.00
   9:  0.00  10:  0.00  11:  0.00  12:  0.00  13:  0.00  14:  0.00  15:  0.00  16:  0.00
  17:  0.00  18:  0.00  19:  0.00  20:  0.00  21:  0.00  22:  0.00  23:  0.00  24:  0.00
  25:  0.00  26:  0.00  27:  0.00  28:  0.00  29:  0.00  30:  0.00  31:  0.00  32:  0.00
  33:  0.00  34:  0.00  35:  0.00  36:  0.00  37:  0.00  38:  0.00  39:  0.00  40:  0.00
  41:  0.00  42:  0.00  43:  0.00  44:  0.00  45:  0.00  46:  0.00  47:  0.00  48:  0.00
  49:  0.00  50:  0.00  51:  0.00
 output can be read by thermo (or use thermo option).
 writing <g98.out> molden fake output.
 recommended (thermochemical) frequency scaling factor: 1.0
           -------------------------------------------------
          |             Thermodynamic Functions             |
           -------------------------------------------------

Molecule has no symmetry elements
It seems to be the C1 point group
c1  symmetry found (for desy threshold:  0.10E+00) used in thermo

          ...................................................
          :                      SETUP                      :
          :.................................................:
          :  # frequencies                          45      :
          :  # imaginary freq.                       0      :
          :  linear?                             false      :
          :  only rotor calc.                    false      :
          :  symmetry                               c1      :
          :  rotational number                       1      :
          :  scaling factor                  1.0000000      :
          :  rotor cutoff                    0.0000000 cm⁻¹ :
          :  imag. cutoff                 -100.0000000 cm⁻¹ :
          :.................................................:

    mode    ω/cm⁻¹     T·S(HO)/kcal·mol⁻¹    T·S(FR)/kcal·mol⁻¹   T·S(vib)
   ------------------------------------------------------------------------
       1     18.47    -2.02513 (100.00%)    -1.35050 (  0.00%)    -2.02513
       2     32.17    -1.69673 (100.00%)    -1.18656 (  0.00%)    -1.69673
       3     83.78    -1.13307 (100.00%)    -0.90341 (  0.00%)    -1.13307
       4    140.30    -0.83474 (100.00%)    -0.75075 (  0.00%)    -0.83474
       5    202.51    -0.62914 (100.00%)    -0.64208 (  0.00%)    -0.62914
       6    228.18    -0.56447 (100.00%)    -0.60674 (  0.00%)    -0.56447
       7    281.74    -0.45411 (100.00%)    -0.54429 (  0.00%)    -0.45411
   ------------------------------------------------------------------------

   temp. (K)  partition function   enthalpy   heat capacity  entropy
                                   cal/mol     cal/K/mol   cal/K/mol   J/K/mol
 298.15  VIB  0.271E+04             3847.192     23.513     28.609
         ROT  0.259E+06              888.752      2.981     27.748
         INT  0.700E+09             4735.945     26.494     56.358
         TR   0.999E+27             1481.254      4.968     39.763
         TOT                        6217.1985    31.4618    96.1204   402.1677

       T/K    H(0)-H(T)+PV         H(T)/Eh          T*S/Eh         G(T)/Eh
   ------------------------------------------------------------------------
    298.15    0.990774E-02    0.153014E+00    0.456699E-01    0.107344E+00
   ------------------------------------------------------------------------

         :::::::::::::::::::::::::::::::::::::::::::::::::::::
         ::                  THERMODYNAMIC                  ::
         :::::::::::::::::::::::::::::::::::::::::::::::::::::
         :: total free energy         -23.847190702602 Eh   ::
         ::.................................................::
         :: total energy              -23.954534972040 Eh   ::
         :: zero point energy           0.143106427817 Eh   ::
         :: G(RRHO) w/o ZPVE           -0.035762158379 Eh   ::
         :: G(RRHO) contrib.            0.107344269438 Eh   ::
         :::::::::::::::::::::::::::::::::::::::::::::::::::::

optimized geometry written to: xtbopt.coord


           -------------------------------------------------
          | TOTAL ENERGY              -23.954534972040 Eh   |
          | TOTAL ENTHALPY            -23.801520807760 Eh   |
          | TOTAL FREE ENERGY         -23.847190702602 Eh   |
          | GRADIENT NORM               0.000042066803 Eh/α |
          | HOMO-LUMO GAP               4.898395305730 eV   |
           -------------------------------------------------

------------------------------------------------------------------------
 * finished run on 2025/04/11 at 12:39:43.970     
------------------------------------------------------------------------
 total:
 * wall-time:     0 d,  0 h,  0 min,  1.070 sec
 *  cpu-time:     0 d,  0 h,  0 min,  0.957 sec
 * ratio c/w:     0.894 speedup
 SCF:
 * wall-time:     0 d,  0 h,  0 min,  0.030 sec
 *  cpu-time:     0 d,  0 h,  0 min,  0.012 sec
 * ratio c/w:     0.413 speedup
 ANC optimizer:
 * wall-time:     0 d,  0 h,  0 min,  0.140 sec
 *  cpu-time:     0 d,  0 h,  0 min,  0.124 sec
 * ratio c/w:     0.885 speedup
 analytical hessian:
 * wall-time:     0 d,  0 h,  0 min,  0.819 sec
 *  cpu-time:     0 d,  0 h,  0 min,  0.799 sec
 * ratio c/w:     0.975 speedup

