      -----------------------------------------------------------      
     |                   =====================                   |     
     |                           x T B                           |     
     |                   =====================                   |     
     |                         S. Grimme                         |     
     |          Mulliken Center for Theoretical Chemistry        |     
     |                    University of Bonn                     |     
      -----------------------------------------------------------      

   * xtb version 6.7.1 (edcfbbe) compiled by 'albert@albert-system' on 2024-07-22

   xtb is free software: you can redistribute it and/or modify it under
   the terms of the GNU Lesser General Public License as published by
   the Free Software Foundation, either version 3 of the License, or
   (at your option) any later version.
   
   xtb is distributed in the hope that it will be useful,
   but WITHOUT ANY WARRANTY; without even the implied warranty of
   MERCHANTABILITY or FITNESS FOR A PARTICULAR PURPOSE.  See the
   GNU Lesser General Public License for more details.
   
   Cite this work as:
   * C. Bannwarth, E. Caldeweyher, S. Ehlert, A. Hansen, P. Pracht,
     J. Seibert, S. Spicher, S. Grimme, WIREs Comput. Mol. Sci., 2020, 11,
     e01493. DOI: 10.1002/wcms.1493
   
   for GFN2-xTB:
   * C. Bannwarth, S. Ehlert and S. Grimme., J. Chem. Theory Comput., 2019,
     15, 1652-1671. DOI: 10.1021/acs.jctc.8b01176
   for GFN1-xTB:
   * S. Grimme, C. Bannwarth, P. Shushkov, J. Chem. Theory Comput., 2017,
     13, 1989-2009. DOI: 10.1021/acs.jctc.7b00118
   for GFN0-xTB:
   * P. Pracht, E. Caldeweyher, S. Ehlert, S. Grimme, ChemRxiv, 2019, preprint.
     DOI: 10.26434/chemrxiv.8326202.v1
   for GFN-FF:
   * S. Spicher and S. Grimme, Angew. Chem. Int. Ed., 2020, 59, 15665-15673.
     DOI: 10.1002/anie.202004239
   
   for ALPB and GBSA implicit solvation:
   * S. Ehlert, M. Stahn, S. Spicher, S. Grimme, J. Chem. Theory Comput.,
     2021, 17, 4250-4261. DOI: 10.1021/acs.jctc.1c00471
   
   for ddCOSMO and CPCM-X implicit solvation:
   * M. Stahn, S. Ehlert, S. Grimme, J. Phys. Chem. A,
     2023, XX, XXXX-XXXX. DOI: 10.1021/acs.jpca.3c04382
   
   for DFT-D4:
   * E. Caldeweyher, C. Bannwarth and S. Grimme, J. Chem. Phys., 2017,
     147, 034112. DOI: 10.1063/1.4993215
   * E. Caldeweyher, S. Ehlert, A. Hansen, H. Neugebauer, S. Spicher,
     C. Bannwarth and S. Grimme, J. Chem. Phys., 2019, 150, 154122.
     DOI: 10.1063/1.5090222
   * E. Caldeweyher, J.-M. Mewes, S. Ehlert and S. Grimme, Phys. Chem. Chem. Phys.
     2020, 22, 8499-8512. DOI: 10.1039/D0CP00502A
   
   for sTDA-xTB:
   * S. Grimme and C. Bannwarth, J. Chem. Phys., 2016, 145, 054103.
     DOI: 10.1063/1.4959605
   
   in the mass-spec context:
   * V. Asgeirsson, C. Bauer and S. Grimme, Chem. Sci., 2017, 8, 4879.
     DOI: 10.1039/c7sc00601b
   * J. Koopman and S. Grimme, ACS Omega 2019, 4, 12, 15120-15133.
     DOI: 10.1021/acsomega.9b02011
   
   for metadynamics refer to:
   * S. Grimme, J. Chem. Theory Comput., 2019, 155, 2847-2862
     DOI: 10.1021/acs.jctc.9b00143
   
   for SPH calculations refer to:
   * S. Spicher and S. Grimme, J. Chem. Theory Comput., 2021, 17, 1701-1714
     DOI: 10.1021/acs.jctc.0c01306
   
   for ONIOM refer to:
   * C. Plett, A. Katbashev, S. Ehlert, S. Grimme, M. Bursch,
     Phys. Chem. Chem. Phys., 2023, 25, 17860-17868. DOI: 10.1039/D3CP02178E
   
   for DIPRO refer to:
   * J. Kohn, N. Gildemeister, S. Grimme, D. Fazzi, A. Hansen,
     J. Chem. Phys., 2023, just accepted.
   
   for PTB refer to:
   * S. Grimme, M. Mueller, A. Hansen, J. Chem. Phys., 2023, 158, 124111.
     DOI: 10.1063/5.0137838
   
   with help from (in alphabetical order)
   P. Atkinson, C. Bannwarth, F. Bohle, G. Brandenburg, E. Caldeweyher
   M. Checinski, S. Dohm, S. Ehlert, S. Ehrlich, I. Gerasimov, C. Hölzer
   A. Katbashev, J. Kohn, J. Koopman, C. Lavigne, S. Lehtola, F. März, M. Müller,
   F. Musil, H. Neugebauer, J. Pisarek, C. Plett, P. Pracht, F. Pultar,
   J. Seibert, P. Shushkov, S. Spicher, M. Stahn, M. Steiner, T. Strunk,
   J. Stückrath, T. Rose, and J. Unsleber
   
 * started run on 2025/04/11 at 12:00:44.502     
   ID    Z sym.   atoms
    1    6 C      1-4, 6-8
    2    8 O      5
    3    1 H      9-22

           -------------------------------------------------
          |                Calculation Setup                |
           -------------------------------------------------

          program call               : /srv/scratch/z5358697/.xtb/bin/xtb xtb_rrho.coord --gfn2 --ohess vtight --chrg 0 --enso --norestart -I rrho-xcontrol-inp --parallel 1 --alpb water
          hostname                   : k022
          coordinate file            : xtb_rrho.coord
          omp threads                :                     1


           -------------------------------------------------
          |                 G F N 2 - x T B                 |
           -------------------------------------------------

        Reference                      10.1021/acs.jctc.8b01176
      * Hamiltonian:
        H0-scaling (s, p, d)           1.850000    2.230000    2.230000
        zeta-weighting                 0.500000
      * Dispersion:
        s8                             2.700000
        a1                             0.520000
        a2                             5.000000
        s9                             5.000000
      * Repulsion:
        kExp                           1.500000    1.000000
        rExp                           1.000000
      * Coulomb:
        alpha                          2.000000
        third order                    shell-resolved
        anisotropic                    true
        a3                             3.000000
        a5                             4.000000
        cn-shift                       1.200000
        cn-exp                         4.000000
        max-rad                        5.000000

      * Solvation model:               ALPB
        Solvent                        water
        Parameter file                 internal GFN2-xTB/ALPB
        Dielectric constant                8.0200E+01
        Reference state                gsolv [1 M gas/solution]
        Free energy shift                  1.0808E-03 Eh       6.7819E-01 kcal/mol
        Temperature                        2.9815E+02 K
        Density                            1.0000E+00 kg/L
        Solvent mass                       1.8000E+01 g/mol
        Interaction kernel             P16
        Born radius scaling (c1)           1.4744E+00
        Born radii integrator          GBOBC
        Born offset                        0.0000E+00 a0       0.0000E+00 AA
        H-bond correction              true
        Ion screening                  false
        Surface tension                    1.0000E-05 Eh       1.5569E+01 dyn/cm
        Grid points                               974 per atom

          ...................................................
          :                      SETUP                      :
          :.................................................:
          :  # basis functions                  46          :
          :  # atomic orbitals                  46          :
          :  # shells                           30          :
          :  # electrons                        48          :
          :  max. iterations                   250          :
          :  Hamiltonian                  GFN2-xTB          :
          :  restarted?                      false          :
          :  GBSA solvation                   true          :
          :  PC potential                    false          :
          :  electronic temp.          300.0000000     K    :
          :  accuracy                    1.0000000          :
          :  -> integral cutoff          0.2500000E+02      :
          :  -> integral neglect         0.1000000E-07      :
          :  -> SCF convergence          0.1000000E-05 Eh   :
          :  -> wf. convergence          0.1000000E-03 e    :
          :  Broyden damping             0.4000000          :
          :  net charge                          0          :
          :  unpaired electrons                  0          :
          ...................................................

 iter      E             dE          RMSdq      gap      omega  full diag
   1    -26.4725339 -0.264725E+02  0.349E+00    4.19       0.0  T
   2    -26.5318808 -0.593469E-01  0.166E+00    3.40       1.0  T
   3    -26.5350690 -0.318822E-02  0.102E+00    3.78       1.0  T
   4    -26.5377454 -0.267633E-02  0.191E-01    3.53       1.0  T
   5    -26.5381028 -0.357399E-03  0.665E-02    3.59       1.0  T
   6    -26.5381067 -0.397151E-05  0.221E-02    3.58       1.0  T
   7    -26.5381082 -0.149264E-05  0.583E-03    3.59       3.7  T
   8    -26.5381084 -0.135283E-06  0.217E-03    3.59       9.8  T
   9    -26.5381084 -0.143202E-07  0.884E-04    3.59      24.1  T
  10    -26.5381084 -0.270539E-08  0.131E-04    3.59     162.4  T

   *** convergence criteria satisfied after 10 iterations ***

         #    Occupation            Energy/Eh            Energy/eV
      -------------------------------------------------------------
         1        2.0000           -0.7096000             -19.3092
       ...           ...                  ...                  ...
        18        2.0000           -0.4610639             -12.5462
        19        2.0000           -0.4574639             -12.4482
        20        2.0000           -0.4468265             -12.1588
        21        2.0000           -0.4452055             -12.1147
        22        2.0000           -0.4382544             -11.9255
        23        2.0000           -0.4347622             -11.8305
        24        2.0000           -0.3891976             -10.5906 (HOMO)
        25                         -0.2573596              -7.0031 (LUMO)
        26                          0.0451554               1.2287
        27                          0.0827357               2.2514
        28                          0.0861669               2.3447
        29                          0.1109824               3.0200
       ...                                ...                  ...
        46                          0.5648846              15.3713
      -------------------------------------------------------------
                  HL-Gap            0.1318380 Eh            3.5875 eV
             Fermi-level           -0.3232786 Eh           -8.7969 eV

 SCC (total)                   0 d,  0 h,  0 min,  0.027 sec
 SCC setup                      ...        0 min,  0.001 sec (  4.943%)
 Dispersion                     ...        0 min,  0.000 sec (  0.477%)
 classical contributions        ...        0 min,  0.000 sec (  0.105%)
 integral evaluation            ...        0 min,  0.002 sec (  6.584%)
 iterations                     ...        0 min,  0.019 sec ( 69.396%)
 molecular gradient             ...        0 min,  0.005 sec ( 18.022%)
 printout                       ...        0 min,  0.000 sec (  0.429%)

         :::::::::::::::::::::::::::::::::::::::::::::::::::::
         ::                     SUMMARY                     ::
         :::::::::::::::::::::::::::::::::::::::::::::::::::::
         :: total energy             -26.195439456084 Eh    ::
         :: total w/o Gsasa/hb       -26.195646696289 Eh    ::
         :: gradient norm              0.035735685331 Eh/a0 ::
         :: HOMO-LUMO gap              3.587494686747 eV    ::
         ::.................................................::
         :: SCC energy               -26.538016622402 Eh    ::
         :: -> isotropic ES            0.039540775001 Eh    ::
         :: -> anisotropic ES          0.005636686895 Eh    ::
         :: -> anisotropic XC          0.013419909476 Eh    ::
         :: -> dispersion             -0.014450822636 Eh    ::
         :: -> Gsolv                  -0.007171745530 Eh    ::
         ::    -> Gelec               -0.007378985735 Eh    ::
         ::    -> Gsasa                0.000575407453 Eh    ::
         ::    -> Ghb                 -0.001448926946 Eh    ::
         ::    -> Gshift               0.001080759698 Eh    ::
         :: repulsion energy           0.342577166317 Eh    ::
         :: add. restraining           0.000000000000 Eh    ::
         :: total charge              -0.000000000000 e     ::
         :::::::::::::::::::::::::::::::::::::::::::::::::::::

      ----------------------------------------------------------- 
     |                   =====================                   |
     |                        A N C O P T                        |
     |                   =====================                   |
     |               Approximate Normal Coordinate               |
     |                Rational Function Optimizer                |
      ----------------------------------------------------------- 
      ----------------------------------------------------------- 
     |                   =====================                   |
     |                        A N C O P T                        |
     |                   =====================                   |
     |               Approximate Normal Coordinate               |
     |                Rational Function Optimizer                |
      ----------------------------------------------------------- 

          ...................................................
          :                      SETUP                      :
          :.................................................:
          :   optimization level         verytight          :
          :   max. optcycles                   440          :
          :   ANC micro-cycles                  20          :
          :   degrees of freedom                60          :
          :.................................................:
          :   RF solver                   davidson          :
          :   write xtbopt.log                true          :
          :   linear?                        false          :
          :   energy convergence         0.1000000E-06 Eh   :
          :   grad. convergence          0.2000000E-03 Eh/α :
          :   maxmium RF displ.          1.0000000          :
          :   Hlow (freq-cutoff)         0.1000000E-01      :
          :   Hmax (freq-cutoff)         5.0000000          :
          :   S6 in model hess.         20.0000000          :
          ...................................................

generating ANC from exact Hessian ...
Using Lindh-Hessian (1995)
 Shifting diagonal of input Hessian by   8.436342182220738E-003
 Lowest  eigenvalues of input Hessian
    0.000000    0.000000    0.000000    0.000000    0.000000    0.000000
    0.010000    0.010036    0.013392    0.015466    0.016865    0.017061
    0.017198    0.017773    0.021036    0.023915    0.026011    0.031331
 Highest eigenvalues
    1.173966    1.181773    1.218270    1.258115    1.402339    2.054548
 

........................................................................
.............................. CYCLE    1 ..............................
........................................................................

 iter      E             dE          RMSdq      gap      omega  full diag
   1    -26.5381084 -0.265381E+02  0.643E-05    3.59       0.0  T
   2    -26.5381084 -0.178986E-10  0.356E-05    3.59     598.3  T
   3    -26.5381084 -0.398614E-11  0.238E-05    3.59     897.3  T
     SCC iter.                  ...        0 min,  0.001 sec
     gradient                   ...        0 min,  0.005 sec
 * total energy  :   -26.1954395 Eh     change       -0.7067413E-10 Eh
   gradient norm :     0.0357335 Eh/α   predicted     0.0000000E+00 (-100.00%)
   displ. norm   :     0.1266325 α      lambda       -0.1706700E-02
   maximum displ.:     0.0791784 α      in ANC's #13, #3, #17, ...

........................................................................
.............................. CYCLE    2 ..............................
........................................................................

 iter      E             dE          RMSdq      gap      omega  full diag
   1    -26.5511700 -0.265512E+02  0.115E-01    3.64       0.0  T
   2    -26.5512021 -0.321566E-04  0.626E-02    3.63       1.0  T
   3    -26.5512023 -0.126885E-06  0.229E-02    3.63       1.0  T
   4    -26.5512033 -0.105111E-05  0.487E-03    3.63       4.4  T
   5    -26.5512036 -0.262518E-06  0.189E-03    3.63      11.3  T
   6    -26.5512036 -0.154389E-07  0.538E-04    3.63      39.6  T
   7    -26.5512036 -0.168293E-08  0.201E-04    3.63     106.3  T
     SCC iter.                  ...        0 min,  0.003 sec
     gradient                   ...        0 min,  0.005 sec
 * total energy  :   -26.1964995 Eh     change       -0.1060059E-02 Eh
   gradient norm :     0.0119034 Eh/α   predicted    -0.8670757E-03 ( -18.20%)
   displ. norm   :     0.0771445 α      lambda       -0.2332812E-03
   maximum displ.:     0.0431987 α      in ANC's #3, #4, #13, ...

........................................................................
.............................. CYCLE    3 ..............................
........................................................................

 iter      E             dE          RMSdq      gap      omega  full diag
   1    -26.5558245 -0.265558E+02  0.423E-02    3.66       0.0  T
   2    -26.5558312 -0.673234E-05  0.228E-02    3.65       1.0  T
   3    -26.5558314 -0.163747E-06  0.969E-03    3.65       2.2  T
   4    -26.5558315 -0.119882E-06  0.204E-03    3.65      10.4  T
   5    -26.5558315 -0.276922E-07  0.786E-04    3.65      27.1  T
   6    -26.5558315 -0.254857E-08  0.211E-04    3.65     100.9  T
     SCC iter.                  ...        0 min,  0.002 sec
     gradient                   ...        0 min,  0.005 sec
 * total energy  :   -26.1966333 Eh     change       -0.1337418E-03 Eh
   gradient norm :     0.0017401 Eh/α   predicted    -0.1182085E-03 ( -11.61%)
   displ. norm   :     0.0802124 α      lambda       -0.3662798E-04
   maximum displ.:     0.0565513 α      in ANC's #3, #8, #4, ...

........................................................................
.............................. CYCLE    4 ..............................
........................................................................

 iter      E             dE          RMSdq      gap      omega  full diag
   1    -26.5559508 -0.265560E+02  0.216E-02    3.65       0.0  T
   2    -26.5559511 -0.338921E-06  0.127E-02    3.65       1.7  T
   3    -26.5559511 -0.196236E-08  0.241E-03    3.65       8.9  T
   4    -26.5559512 -0.297586E-07  0.651E-04    3.65      32.7  T
   5    -26.5559512 -0.161259E-08  0.217E-04    3.65      98.0  T
     SCC iter.                  ...        0 min,  0.002 sec
     gradient                   ...        0 min,  0.005 sec
 * total energy  :   -26.1966735 Eh     change       -0.4023659E-04 Eh
   gradient norm :     0.0026013 Eh/α   predicted    -0.1836724E-04 ( -54.35%)
   displ. norm   :     0.1005421 α      lambda       -0.4837169E-04
   maximum displ.:     0.0672319 α      in ANC's #3, #8, #4, ...

........................................................................
.............................. CYCLE    5 ..............................
........................................................................

 iter      E             dE          RMSdq      gap      omega  full diag
   1    -26.5552203 -0.265552E+02  0.233E-02    3.65       0.0  T
   2    -26.5552203 -0.625216E-07  0.140E-02    3.65       1.5  T
   3    -26.5552203  0.431039E-08  0.110E-03    3.65      19.4  T
   4    -26.5552203 -0.174265E-07  0.405E-04    3.65      52.7  T
   5    -26.5552203 -0.641677E-09  0.206E-04    3.65     103.5  T
     SCC iter.                  ...        0 min,  0.002 sec
     gradient                   ...        0 min,  0.005 sec
 * total energy  :   -26.1967119 Eh     change       -0.3837731E-04 Eh
   gradient norm :     0.0021941 Eh/α   predicted    -0.2443617E-04 ( -36.33%)
   displ. norm   :     0.1540351 α      lambda       -0.5158516E-04
   maximum displ.:     0.1046688 α      in ANC's #8, #3, #4, ...

........................................................................
.............................. CYCLE    6 ..............................
........................................................................

 iter      E             dE          RMSdq      gap      omega  full diag
   1    -26.5543499 -0.265543E+02  0.345E-02    3.65       0.0  T
   2    -26.5543500 -0.139901E-06  0.208E-02    3.65       1.0  T
   3    -26.5543500 -0.115273E-07  0.116E-03    3.65      18.3  T
   4    -26.5543500 -0.133144E-07  0.487E-04    3.65      43.8  T
   5    -26.5543500 -0.403180E-09  0.260E-04    3.65      82.1  T
     SCC iter.                  ...        0 min,  0.002 sec
     gradient                   ...        0 min,  0.005 sec
 * total energy  :   -26.1967432 Eh     change       -0.3136996E-04 Eh
   gradient norm :     0.0021240 Eh/α   predicted    -0.2640741E-04 ( -15.82%)
   displ. norm   :     0.0540368 α      lambda       -0.1526479E-04
   maximum displ.:     0.0414752 α      in ANC's #8, #3, #1, ...

........................................................................
.............................. CYCLE    7 ..............................
........................................................................

 iter      E             dE          RMSdq      gap      omega  full diag
   1    -26.5547672 -0.265548E+02  0.127E-02    3.65       0.0  T
   2    -26.5547672 -0.468597E-07  0.756E-03    3.65       2.8  T
   3    -26.5547672  0.406644E-08  0.102E-03    3.66      20.8  T
   4    -26.5547672 -0.113023E-07  0.276E-04    3.65      77.2  T
   5    -26.5547672 -0.249777E-09  0.131E-04    3.66     163.1  T
     SCC iter.                  ...        0 min,  0.002 sec
     gradient                   ...        0 min,  0.005 sec
 * total energy  :   -26.1967546 Eh     change       -0.1135456E-04 Eh
   gradient norm :     0.0011836 Eh/α   predicted    -0.7667870E-05 ( -32.47%)
   displ. norm   :     0.0576804 α      lambda       -0.9919720E-05
   maximum displ.:     0.0438008 α      in ANC's #8, #1, #2, ...

........................................................................
.............................. CYCLE    8 ..............................
........................................................................

 iter      E             dE          RMSdq      gap      omega  full diag
   1    -26.5557413 -0.265557E+02  0.146E-02    3.66       0.0  T
   2    -26.5557414 -0.993104E-07  0.857E-03    3.66       2.5  T
   3    -26.5557414  0.111968E-07  0.162E-03    3.66      13.1  T
   4    -26.5557414 -0.274814E-07  0.479E-04    3.66      44.5  T
   5    -26.5557415 -0.111580E-08  0.203E-04    3.66     105.3  T
     SCC iter.                  ...        0 min,  0.002 sec
     gradient                   ...        0 min,  0.005 sec
 * total energy  :   -26.1967611 Eh     change       -0.6474234E-05 Eh
   gradient norm :     0.0007601 Eh/α   predicted    -0.4967700E-05 ( -23.27%)
   displ. norm   :     0.0201696 α      lambda       -0.1702432E-05
   maximum displ.:     0.0121144 α      in ANC's #1, #8, #6, ...

........................................................................
.............................. CYCLE    9 ..............................
........................................................................

 iter      E             dE          RMSdq      gap      omega  full diag
   1    -26.5553469 -0.265553E+02  0.525E-03    3.66       0.0  T
   2    -26.5553469 -0.124467E-07  0.307E-03    3.66       6.9  T
   3    -26.5553469 -0.706251E-09  0.450E-04    3.66      47.3  T
   4    -26.5553469 -0.967688E-09  0.140E-04    3.66     151.8  T
     SCC iter.                  ...        0 min,  0.002 sec
     gradient                   ...        0 min,  0.005 sec
 * total energy  :   -26.1967628 Eh     change       -0.1694365E-05 Eh
   gradient norm :     0.0004235 Eh/α   predicted    -0.8637768E-06 ( -49.02%)
   displ. norm   :     0.0219648 α      lambda       -0.1562408E-05
   maximum displ.:     0.0143836 α      in ANC's #1, #3, #2, ...

........................................................................
.............................. CYCLE   10 ..............................
........................................................................

 iter      E             dE          RMSdq      gap      omega  full diag
   1    -26.5552251 -0.265552E+02  0.482E-03    3.66       0.0  T
   2    -26.5552251 -0.754142E-08  0.288E-03    3.66       7.4  T
   3    -26.5552251  0.592749E-09  0.383E-04    3.66      55.6  T
   4    -26.5552251 -0.158827E-08  0.849E-05    3.66     251.1  T
     SCC iter.                  ...        0 min,  0.002 sec
     gradient                   ...        0 min,  0.005 sec
 * total energy  :   -26.1967646 Eh     change       -0.1825190E-05 Eh
   gradient norm :     0.0003106 Eh/α   predicted    -0.7841395E-06 ( -57.04%)
   displ. norm   :     0.0324749 α      lambda       -0.1638424E-05
   maximum displ.:     0.0223669 α      in ANC's #1, #2, #6, ...

........................................................................
.............................. CYCLE   11 ..............................
........................................................................

 iter      E             dE          RMSdq      gap      omega  full diag
   1    -26.5552335 -0.265552E+02  0.726E-03    3.66       0.0  T
   2    -26.5552335 -0.444645E-08  0.433E-03    3.66       4.9  T
   3    -26.5552335 -0.223466E-11  0.314E-04    3.66      67.9  T
   4    -26.5552335 -0.126286E-08  0.118E-04    3.66     181.3  T
     SCC iter.                  ...        0 min,  0.002 sec
     gradient                   ...        0 min,  0.005 sec
 * total energy  :   -26.1967666 Eh     change       -0.2004655E-05 Eh
   gradient norm :     0.0003850 Eh/α   predicted    -0.8214278E-06 ( -59.02%)
   displ. norm   :     0.0426877 α      lambda       -0.1748544E-05
   maximum displ.:     0.0298133 α      in ANC's #1, #2, #6, ...

........................................................................
.............................. CYCLE   12 ..............................
........................................................................

 iter      E             dE          RMSdq      gap      omega  full diag
   1    -26.5552568 -0.265553E+02  0.104E-02    3.66       0.0  T
   2    -26.5552568 -0.546398E-08  0.620E-03    3.66       3.4  T
   3    -26.5552568 -0.102028E-08  0.381E-04    3.66      55.9  T
   4    -26.5552568 -0.163949E-08  0.182E-04    3.66     117.3  T
     SCC iter.                  ...        0 min,  0.002 sec
     gradient                   ...        0 min,  0.005 sec
 * total energy  :   -26.1967687 Eh     change       -0.2110201E-05 Eh
   gradient norm :     0.0003231 Eh/α   predicted    -0.8763429E-06 ( -58.47%)
   displ. norm   :     0.0459647 α      lambda       -0.1425663E-05
   maximum displ.:     0.0320337 α      in ANC's #1, #2, #6, ...

........................................................................
.............................. CYCLE   13 ..............................
........................................................................

 iter      E             dE          RMSdq      gap      omega  full diag
   1    -26.5553225 -0.265553E+02  0.116E-02    3.66       0.0  T
   2    -26.5553225 -0.691669E-08  0.687E-03    3.66       3.1  T
   3    -26.5553225 -0.141520E-08  0.417E-04    3.66      51.1  T
   4    -26.5553225 -0.189949E-08  0.201E-04    3.66     105.9  T
     SCC iter.                  ...        0 min,  0.002 sec
     gradient                   ...        0 min,  0.005 sec
 * total energy  :   -26.1967703 Eh     change       -0.1611527E-05 Eh
   gradient norm :     0.0001610 Eh/α   predicted    -0.7163691E-06 ( -55.55%)
   displ. norm   :     0.0314349 α      lambda       -0.6819913E-06
   maximum displ.:     0.0221803 α      in ANC's #1, #2, #6, ...

........................................................................
.............................. CYCLE   14 ..............................
........................................................................

 iter      E             dE          RMSdq      gap      omega  full diag
   1    -26.5553588 -0.265554E+02  0.836E-03    3.66       0.0  T
   2    -26.5553588 -0.406569E-08  0.495E-03    3.66       4.3  T
   3    -26.5553588 -0.125353E-08  0.307E-04    3.66      69.4  T
   4    -26.5553588 -0.870514E-09  0.165E-04    3.66     128.9  T
     SCC iter.                  ...        0 min,  0.002 sec
     gradient                   ...        0 min,  0.005 sec
 * total energy  :   -26.1967710 Eh     change       -0.7234053E-06 Eh
   gradient norm :     0.0001503 Eh/α   predicted    -0.3448561E-06 ( -52.33%)
   displ. norm   :     0.0194062 α      lambda       -0.3978136E-06
   maximum displ.:     0.0141911 α      in ANC's #1, #2, #3, ...

........................................................................
.............................. CYCLE   15 ..............................
........................................................................

 iter      E             dE          RMSdq      gap      omega  full diag
   1    -26.5553860 -0.265554E+02  0.529E-03    3.66       0.0  T
   2    -26.5553860 -0.186840E-08  0.313E-03    3.66       6.8  T
   3    -26.5553860 -0.226734E-09  0.185E-04    3.66     115.1  T
   4    -26.5553860 -0.386610E-09  0.858E-05    3.66     248.6  T
     SCC iter.                  ...        0 min,  0.002 sec
     gradient                   ...        0 min,  0.005 sec
 * total energy  :   -26.1967715 Eh     change       -0.4233655E-06 Eh
   gradient norm :     0.0001340 Eh/α   predicted    -0.2011912E-06 ( -52.48%)
   displ. norm   :     0.0171268 α      lambda        0.7171516E-07
   maximum displ.:     0.0125229 α      in ANC's #1, #2, #3, ...

........................................................................
.............................. CYCLE   16 ..............................
........................................................................

 iter      E             dE          RMSdq      gap      omega  full diag
   1    -26.5554060 -0.265554E+02  0.472E-03    3.66       0.0  T
   2    -26.5554060 -0.153069E-08  0.279E-03    3.66       7.6  T
   3    -26.5554060 -0.213454E-09  0.155E-04    3.66     137.6  T
   4    -26.5554060 -0.247056E-09  0.744E-05    3.66     286.4  T
     SCC iter.                  ...        0 min,  0.002 sec
     gradient                   ...        0 min,  0.005 sec
 * total energy  :   -26.1967715 Eh     change       -0.3684070E-07 Eh
   gradient norm :     0.0003420 Eh/α   predicted     0.3389736E-07 (-192.01%)
   displ. norm   :     0.0076204 α      lambda       -0.3515259E-06
   maximum displ.:     0.0042503 α      in ANC's #2, #1, #6, ...

........................................................................
.............................. CYCLE   17 ..............................
........................................................................

 iter      E             dE          RMSdq      gap      omega  full diag
   1    -26.5554192 -0.265554E+02  0.224E-03    3.66       0.0  T
   2    -26.5554192 -0.589129E-09  0.133E-03    3.66      16.0  T
   3    -26.5554192 -0.999840E-10  0.113E-04    3.66     188.8  T
   4    -26.5554192 -0.109171E-09  0.533E-05    3.66     399.7  T
     SCC iter.                  ...        0 min,  0.002 sec
     gradient                   ...        0 min,  0.005 sec
 * total energy  :   -26.1967719 Eh     change       -0.4048855E-06 Eh
   gradient norm :     0.0001703 Eh/α   predicted    -0.1780474E-06 ( -56.03%)
   displ. norm   :     0.0131262 α      lambda       -0.3993007E-06
   maximum displ.:     0.0080782 α      in ANC's #6, #1, #2, ...

........................................................................
.............................. CYCLE   18 ..............................
........................................................................

 iter      E             dE          RMSdq      gap      omega  full diag
   1    -26.5553896 -0.265554E+02  0.344E-03    3.66       0.0  T
   2    -26.5553896 -0.954902E-09  0.204E-03    3.66      10.4  T
   3    -26.5553896 -0.164132E-09  0.135E-04    3.66     158.4  T
   4    -26.5553896 -0.167685E-09  0.675E-05    3.66     316.0  T
     SCC iter.                  ...        0 min,  0.002 sec
     gradient                   ...        0 min,  0.005 sec
 * total energy  :   -26.1967723 Eh     change       -0.4063757E-06 Eh
   gradient norm :     0.0001491 Eh/α   predicted    -0.2034307E-06 ( -49.94%)
   displ. norm   :     0.0119908 α      lambda        0.6885956E-07
   maximum displ.:     0.0073679 α      in ANC's #6, #1, #2, ...

........................................................................
.............................. CYCLE   19 ..............................
........................................................................

 iter      E             dE          RMSdq      gap      omega  full diag
   1    -26.5553593 -0.265554E+02  0.320E-03    3.66       0.0  T
   2    -26.5553593 -0.860123E-09  0.190E-03    3.66      11.2  T
   3    -26.5553593 -0.146350E-09  0.127E-04    3.66     167.5  T
   4    -26.5553594 -0.148301E-09  0.638E-05    3.66     334.0  T
     SCC iter.                  ...        0 min,  0.002 sec
     gradient                   ...        0 min,  0.005 sec
 * total energy  :   -26.1967723 Eh     change        0.8780319E-09 Eh
   gradient norm :     0.0003653 Eh/α   predicted     0.3343291E-07 (3707.71%)
   displ. norm   :     0.0049008 α      lambda       -0.2518093E-06
   maximum displ.:     0.0036561 α      in ANC's #1, #2, #8, ...

........................................................................
.............................. CYCLE   20 ..............................
........................................................................

 iter      E             dE          RMSdq      gap      omega  full diag
   1    -26.5553763 -0.265554E+02  0.182E-03    3.66       0.0  T
   2    -26.5553763 -0.370846E-09  0.108E-03    3.66      19.7  T
   3    -26.5553763  0.120401E-09  0.115E-04    3.66     184.8  T
   4    -26.5553763 -0.200757E-09  0.260E-05    3.66     819.6  T
     SCC iter.                  ...        0 min,  0.002 sec
     gradient                   ...        0 min,  0.005 sec
 * total energy  :   -26.1967726 Eh     change       -0.2666320E-06 Eh
   gradient norm :     0.0001760 Eh/α   predicted    -0.1269566E-06 ( -52.39%)
   displ. norm   :     0.0088392 α      lambda       -0.1481673E-06
   maximum displ.:     0.0063616 α      in ANC's #1, #2, #6, ...
 * RMSD in coord.:     0.1387502 α      energy gain  -0.1333120E-02 Eh

generating ANC from exact Hessian ...
Using Lindh-Hessian (1995)
 Shifting diagonal of input Hessian by   8.427843788102275E-003
 Lowest  eigenvalues of input Hessian
    0.000000    0.000000    0.000000    0.000000    0.000000    0.000000
    0.010000    0.010057    0.013580    0.015638    0.017259    0.017481
    0.017562    0.018022    0.021486    0.024291    0.026605    0.032335
 Highest eigenvalues
    1.199681    1.207217    1.232559    1.259935    1.395374    2.116810
 

........................................................................
.............................. CYCLE   21 ..............................
........................................................................

 iter      E             dE          RMSdq      gap      omega  full diag
   1    -26.5553817 -0.265554E+02  0.227E-03    3.66       0.0  T
   2    -26.5553817 -0.624745E-09  0.134E-03    3.66      15.9  T
   3    -26.5553817  0.115637E-09  0.123E-04    3.66     172.9  T
   4    -26.5553817 -0.229413E-09  0.420E-05    3.66     508.2  T
     SCC iter.                  ...        0 min,  0.002 sec
     gradient                   ...        0 min,  0.005 sec
 * total energy  :   -26.1967727 Eh     change       -0.1369731E-06 Eh
   gradient norm :     0.0000412 Eh/α   predicted     0.0000000E+00 (-100.00%)
   displ. norm   :     0.0000618 α      lambda        0.0000000E+00
   maximum displ.:     0.0000239 α      in ANC's #46, #23, #40, ...

........................................................................
.............................. CYCLE   22 ..............................
........................................................................

 iter      E             dE          RMSdq      gap      omega  full diag
   1    -26.5553744 -0.265554E+02  0.933E-05    3.66       0.0  T
   2    -26.5553744 -0.787637E-11  0.531E-05    3.66     401.4  T
   3    -26.5553744  0.135003E-12  0.146E-05    3.66    1463.4  T
     SCC iter.                  ...        0 min,  0.001 sec
     gradient                   ...        0 min,  0.005 sec
 * total energy  :   -26.1967727 Eh     change       -0.1776389E-08 Eh
   gradient norm :     0.0000240 Eh/α   predicted    -0.1203331E-08 ( -32.26%)
   displ. norm   :     0.0000618 α      lambda        0.0000000E+00
   maximum displ.:     0.0000239 α      in ANC's #46, #23, #40, ...

   *** GEOMETRY OPTIMIZATION CONVERGED AFTER 22 ITERATIONS ***

------------------------------------------------------------------------
 total energy gain   :        -0.0013333 Eh       -0.8366 kcal/mol
 total RMSD          :         0.1387504 a0        0.0734 Å
 total power (kW/mol):        -0.1591123 (step)  -14.5558 (real)
------------------------------------------------------------------------

 ANCopt (total)                0 d,  0 h,  0 min,  0.241 sec
 optimizer setup                ...        0 min,  0.000 sec (  0.152%)
 model hessian                  ...        0 min,  0.017 sec (  7.189%)
 ANC generation                 ...        0 min,  0.001 sec (  0.329%)
 coordinate transformation      ...        0 min,  0.000 sec (  0.044%)
 single point calculation       ...        0 min,  0.213 sec ( 88.526%)
 optimization log               ...        0 min,  0.007 sec (  3.036%)
 hessian update                 ...        0 min,  0.000 sec (  0.050%)
 rational function              ...        0 min,  0.001 sec (  0.339%)

================
 final structure:
================
$coord
        3.80262354502366        2.91079006904355       -0.62380159143008      C
        2.31760329100505        0.86099087257651        0.75688709975616      C
        3.88308499614365       -1.57105423119378        0.97861217176670      C
       -0.07621324862563        0.17657543127195       -0.66308294007043      C
       -0.22757142685316        0.31582655815361       -2.94723675859062      O
       -2.26767287928715       -0.69385068170448        0.96623349401616      C
       -3.94320444877499       -2.56631128731104       -0.44781548941160      C
       -3.76546791791913        1.68166817350701        1.69312325760919      C
        2.72116236197541        4.65722813268961       -0.69245929934423      H
        4.18326478473633        2.31701424134613       -2.55419474927104      H
        5.58488280498530        3.26903620020438        0.32990969927262      H
        1.81894681163134        1.50669652725822        2.65480954246885      H
        2.83906271682660       -3.03183945769962        1.97669135608777      H
        4.35968667315512       -2.26957255741809       -0.89510081760080      H
        5.62135100407766       -1.18557856718491        2.00088609044000      H
       -1.52817152764984       -1.56653930920143        2.68653243192700      H
       -2.89795748235279       -4.28359761888715       -0.87521614842083      H
       -5.58664358484781       -3.05171748332064        0.68257385462253      H
       -4.57067476511224       -1.74032652908990       -2.22206474679288      H
       -4.47975824238289        2.60363126447176        0.00030277778809      H
       -5.35633730458044        1.16104986468174        2.88194865127674      H
       -2.58372858261192        3.01453592141031        2.71631484699872      H
$end
 
 Bond Distances (Angstroems)
 ---------------------------
C1-C2=1.5258         C1-H9=1.0876         C1-H10=1.0876        C1-H11=1.0863        C2-C1=1.5258         C2-C3=1.5350         
C2-C4=1.5167         C2-H12=1.0932        C3-C2=1.5350         C3-H13=1.0871        C3-H14=1.0878        C3-H15=1.0865        
C4-C2=1.5167         C4-O5=1.2136         C4-C6=1.5167         O5-C4=1.2136         C6-C4=1.5167         C6-C7=1.5257         
C6-C8=1.5351         C6-H16=1.0932        C7-C6=1.5257         C7-H17=1.0876        C7-H18=1.0863        C7-H19=1.0876        
C8-C6=1.5351         C8-H20=1.0878        C8-H21=1.0865        C8-H22=1.0871        H9-C1=1.0876         H10-C1=1.0876        
H11-C1=1.0863        H12-C2=1.0932        H13-C3=1.0871        H14-C3=1.0878        H15-C3=1.0865        H16-C6=1.0932        
H17-C7=1.0876        H18-C7=1.0863        H19-C7=1.0876        H20-C8=1.0878        H21-C8=1.0865        H22-C8=1.0871        
 C  H  Rav=1.0880 sigma=0.0022  Rmin=1.0863  Rmax=1.0932    14
 C  C  Rav=1.5258 sigma=0.0075  Rmin=1.5167  Rmax=1.5351     6
 O  C  Rav=1.2136 sigma=0.0000  Rmin=1.2136  Rmax=1.2136     1
 
 selected bond angles (degree)
 --------------------
H9-C1-C2=110.43                H10-C1-C2=109.86               H10-C1-H9=108.15               H11-C1-C2=110.41               
H11-C1-H9=108.91               H11-C1-H10=109.03              C3-C2-C1=110.77                C4-C2-C1=111.27                
C4-C2-C3=106.76                H12-C2-C1=110.00               H12-C2-C3=108.79               H12-C2-C4=109.16               
H13-C3-C2=111.04               H14-C3-C2=109.90               H14-C3-H13=108.61              H15-C3-C2=109.73               
H15-C3-H13=108.78              H15-C3-H14=108.74              O5-C4-C2=122.28                C6-C4-C2=115.43                
C6-C4-O5=122.29                C7-C6-C4=111.27                C8-C6-C4=106.77                C8-C6-C7=110.77                
H16-C6-C4=109.15               H16-C6-C7=110.00               H16-C6-C8=108.79               H17-C7-C6=110.43               
H18-C7-C6=110.41               H18-C7-H17=108.91              H19-C7-C6=109.87               H19-C7-H17=108.15              
H19-C7-H18=109.02              H20-C8-C6=109.90               H21-C8-C6=109.73               H21-C8-H20=108.74              
H22-C8-C6=111.05               H22-C8-H20=108.61              H22-C8-H21=108.78              
 
 selected dihedral angles (degree)
 ---------------------------------
C3-C2-C1-H9=182.82            C3-C2-C1-H10= 63.61           C3-C2-C1-H11=303.33           C4-C2-C1-H9= 64.23            
C4-C2-C1-H10=305.01           C4-C2-C1-H11=184.73           H12-C2-C1-H9=303.13           H12-C2-C1-H10=183.92          
H12-C2-C1-H11= 63.64          H13-C3-C2-C1=179.47           H13-C3-C2-C4=300.76           H13-C3-C2-H12= 58.44          
H14-C3-C2-C1=299.66           H14-C3-C2-C4= 60.95           H14-C3-C2-H12=178.63          H15-C3-C2-C1= 59.19           
H15-C3-C2-C4=180.48           H15-C3-C2-H12=298.15          O5-C4-C2-C1= 30.37            O5-C4-C2-C3=269.39            
O5-C4-C2-H12=151.95           C6-C4-C2-C1=210.36            C6-C4-C2-C3= 89.38            C6-C4-C2-H12=331.95           
C7-C6-C4-C2=210.16            C7-C6-C4-O5= 30.16            C8-C6-C4-C2= 89.18            C8-C6-C4-O5=269.18            
H16-C6-C4-C2=331.75           H16-C6-C4-O5=151.74           H17-C7-C6-C4= 64.21           H17-C7-C6-C8=182.82           
H17-C7-C6-H16=303.13          H18-C7-C6-C4=184.71           H18-C7-C6-C8=303.32           H18-C7-C6-H16= 63.63          
H19-C7-C6-C4=304.99           H19-C7-C6-C8= 63.60           H19-C7-C6-H16=183.91          H20-C8-C6-C4= 60.97           
H20-C8-C6-C7=299.67           H20-C8-C6-H16=178.64          H21-C8-C6-C4=180.50           H21-C8-C6-C7= 59.20           
H21-C8-C6-H16=298.17          H22-C8-C6-C4=300.79           H22-C8-C6-C7=179.49           H22-C8-C6-H16= 58.45          
           -------------------------------------------------
          |                Final Singlepoint                |
           -------------------------------------------------

          ...................................................
          :                      SETUP                      :
          :.................................................:
          :  # basis functions                  46          :
          :  # atomic orbitals                  46          :
          :  # shells                           30          :
          :  # electrons                        48          :
          :  max. iterations                   250          :
          :  Hamiltonian                  GFN2-xTB          :
          :  restarted?                      false          :
          :  GBSA solvation                   true          :
          :  PC potential                    false          :
          :  electronic temp.          300.0000000     K    :
          :  accuracy                    1.0000000          :
          :  -> integral cutoff          0.2500000E+02      :
          :  -> integral neglect         0.1000000E-07      :
          :  -> SCF convergence          0.1000000E-05 Eh   :
          :  -> wf. convergence          0.1000000E-03 e    :
          :  Broyden damping             0.4000000          :
          :  net charge                          0          :
          :  unpaired electrons                  0          :
          ...................................................

 iter      E             dE          RMSdq      gap      omega  full diag
   1    -26.5553744 -0.265554E+02  0.520E-06    3.66       0.0  T
   2    -26.5553744 -0.110134E-12  0.214E-06    3.66    9976.2  T
   3    -26.5553744 -0.355271E-14  0.134E-06    3.66   15950.8  T

   *** convergence criteria satisfied after 3 iterations ***

         #    Occupation            Energy/Eh            Energy/eV
      -------------------------------------------------------------
         1        2.0000           -0.7137536             -19.4222
       ...           ...                  ...                  ...
        18        2.0000           -0.4618829             -12.5685
        19        2.0000           -0.4575412             -12.4503
        20        2.0000           -0.4452503             -12.1159
        21        2.0000           -0.4443673             -12.0919
        22        2.0000           -0.4378244             -11.9138
        23        2.0000           -0.4355172             -11.8510
        24        2.0000           -0.3888144             -10.5802 (HOMO)
        25                         -0.2544576              -6.9241 (LUMO)
        26                          0.0531373               1.4459
        27                          0.0921556               2.5077
        28                          0.0976078               2.6560
        29                          0.1175545               3.1988
       ...                                ...                  ...
        46                          0.6055307              16.4773
      -------------------------------------------------------------
                  HL-Gap            0.1343569 Eh            3.6560 eV
             Fermi-level           -0.3216360 Eh           -8.7522 eV

 SCC (total)                   0 d,  0 h,  0 min,  0.010 sec
 SCC setup                      ...        0 min,  0.001 sec ( 13.105%)
 Dispersion                     ...        0 min,  0.000 sec (  0.671%)
 classical contributions        ...        0 min,  0.000 sec (  0.220%)
 integral evaluation            ...        0 min,  0.002 sec ( 17.221%)
 iterations                     ...        0 min,  0.001 sec ( 14.735%)
 molecular gradient             ...        0 min,  0.005 sec ( 52.866%)
 printout                       ...        0 min,  0.000 sec (  1.039%)

         :::::::::::::::::::::::::::::::::::::::::::::::::::::
         ::                     SUMMARY                     ::
         :::::::::::::::::::::::::::::::::::::::::::::::::::::
         :: total energy             -26.196772714786 Eh    ::
         :: total w/o Gsasa/hb       -26.196957521964 Eh    ::
         :: gradient norm              0.000023975573 Eh/a0 ::
         :: HOMO-LUMO gap              3.656036000904 eV    ::
         ::.................................................::
         :: SCC energy               -26.555282904440 Eh    ::
         :: -> isotropic ES            0.037992739898 Eh    ::
         :: -> anisotropic ES          0.005227083656 Eh    ::
         :: -> anisotropic XC          0.013048494378 Eh    ::
         :: -> dispersion             -0.014526582513 Eh    ::
         :: -> Gsolv                  -0.006555148652 Eh    ::
         ::    -> Gelec               -0.006739955830 Eh    ::
         ::    -> Gsasa                0.000522700892 Eh    ::
         ::    -> Ghb                 -0.001418653412 Eh    ::
         ::    -> Gshift               0.001080759698 Eh    ::
         :: repulsion energy           0.358510189654 Eh    ::
         :: add. restraining           0.000000000000 Eh    ::
         :: total charge              -0.000000000000 e     ::
         :::::::::::::::::::::::::::::::::::::::::::::::::::::

           ------------------------------------------------- 
          |                Numerical Hessian                |
           ------------------------------------------------- 
step length          :   0.00500
SCC accuracy         :   0.30000
Hessian scale factor :   1.00000
frozen atoms in %    :   0.00000    0
RMS gradient         :   0.00002
estimated CPU  time      0.02 min
estimated wall time      0.02 min

writing file <hessian>.

 projected vibrational frequencies (cm⁻¹)
eigval :       -0.00    -0.00    -0.00    -0.00     0.00     0.00
eigval :       34.14    60.04   164.77   175.97   179.35   187.13
eigval :      216.01   217.80   271.32   305.28   309.95   380.03
eigval :      470.00   622.52   715.69   788.07   912.06   943.57
eigval :      947.60   949.00   982.54   982.79  1030.16  1094.34
eigval :     1098.29  1132.12  1140.57  1175.44  1183.09  1265.96
eigval :     1277.59  1316.51  1328.61  1395.46  1397.31  1410.31
eigval :     1412.10  1480.12  1480.57  1486.02  1488.63  1491.06
eigval :     1492.13  1499.49  1501.10  1711.19  2949.07  2952.06
eigval :     3030.29  3030.69  3033.73  3033.78  3037.19  3037.52
eigval :     3040.02  3040.72  3043.31  3043.77  3045.72  3046.41
           -------------------------------------------------
          |                Property Printout                |
           -------------------------------------------------

    * Orbital Energies and Occupations

         #    Occupation            Energy/Eh            Energy/eV
      -------------------------------------------------------------
         1        2.0000           -0.7137536             -19.4222
       ...           ...                  ...                  ...
        12        2.0000           -0.5075574             -13.8113
        13        2.0000           -0.4968556             -13.5201
        14        2.0000           -0.4819853             -13.1155
        15        2.0000           -0.4787263             -13.0268
        16        2.0000           -0.4711452             -12.8205
        17        2.0000           -0.4630833             -12.6011
        18        2.0000           -0.4618829             -12.5685
        19        2.0000           -0.4575412             -12.4503
        20        2.0000           -0.4452503             -12.1159
        21        2.0000           -0.4443673             -12.0919
        22        2.0000           -0.4378244             -11.9138
        23        2.0000           -0.4355172             -11.8510
        24        2.0000           -0.3888144             -10.5802 (HOMO)
        25                         -0.2544576              -6.9241 (LUMO)
        26                          0.0531373               1.4459
        27                          0.0921556               2.5077
        28                          0.0976078               2.6560
        29                          0.1175545               3.1988
        30                          0.1251370               3.4052
        31                          0.1390532               3.7838
        32                          0.1536144               4.1801
        33                          0.1662947               4.5251
        34                          0.1681390               4.5753
        35                          0.1850003               5.0341
       ...                                ...                  ...
        46                          0.6055307              16.4773
      -------------------------------------------------------------
                  HL-Gap            0.1343568 Eh            3.6560 eV
             Fermi-level           -0.3216360 Eh           -8.7522 eV

     #   Z          covCN         q      C6AA      α(0)
     1   6 C        3.756    -0.111    22.673     6.789
     2   6 C        3.851    -0.036    21.186     6.547
     3   6 C        3.760    -0.111    22.670     6.788
     4   6 C        2.830     0.241    22.985     7.856
     5   8 O        0.857    -0.422    22.119     6.305
     6   6 C        3.851    -0.036    21.186     6.547
     7   6 C        3.756    -0.111    22.673     6.789
     8   6 C        3.760    -0.111    22.671     6.788
     9   1 H        0.925     0.038     2.469     2.457
    10   1 H        0.925     0.049     2.334     2.389
    11   1 H        0.925     0.052     2.294     2.368
    12   1 H        0.924     0.054     2.272     2.357
    13   1 H        0.925     0.046     2.371     2.408
    14   1 H        0.925     0.046     2.376     2.410
    15   1 H        0.925     0.064     2.156     2.296
    16   1 H        0.924     0.054     2.271     2.357
    17   1 H        0.925     0.038     2.469     2.457
    18   1 H        0.925     0.052     2.294     2.368
    19   1 H        0.925     0.049     2.334     2.389
    20   1 H        0.925     0.046     2.376     2.410
    21   1 H        0.925     0.064     2.156     2.296
    22   1 H        0.925     0.046     2.370     2.408

 Mol. C6AA /au·bohr⁶  :       3476.830315
 Mol. C8AA /au·bohr⁸  :      74264.720995
 Mol. α(0) /au        :         87.781802


Wiberg/Mayer (AO) data.
largest (>0.10) Wiberg bond orders for each atom

 ---------------------------------------------------------------------------
     #   Z sym  total        # sym  WBO       # sym  WBO       # sym  WBO
 ---------------------------------------------------------------------------
     1   6 C    3.994 --     2 C    1.005     9 H    0.987    10 H    0.985
                            11 H    0.984
     2   6 C    3.995 --     1 C    1.005     4 C    0.978     3 C    0.974
                            12 H    0.959
     3   6 C    3.992 --    14 H    0.987    13 H    0.985    15 H    0.980
                             2 C    0.974
     4   6 C    3.890 --     5 O    1.828     6 C    0.978     2 C    0.978
     5   8 O    2.032 --     4 C    1.828
     6   6 C    3.995 --     7 C    1.005     4 C    0.978     8 C    0.974
                            16 H    0.959
     7   6 C    3.994 --     6 C    1.005    17 H    0.987    19 H    0.985
                            18 H    0.984
     8   6 C    3.992 --    20 H    0.987    22 H    0.985    21 H    0.980
                             6 C    0.974
     9   1 H    0.999 --     1 C    0.987
    10   1 H    0.998 --     1 C    0.985
    11   1 H    0.997 --     1 C    0.984
    12   1 H    0.997 --     2 C    0.959
    13   1 H    0.998 --     3 C    0.985
    14   1 H    0.998 --     3 C    0.987
    15   1 H    0.996 --     3 C    0.980
    16   1 H    0.997 --     6 C    0.959
    17   1 H    0.999 --     7 C    0.987
    18   1 H    0.997 --     7 C    0.984
    19   1 H    0.998 --     7 C    0.985
    20   1 H    0.998 --     8 C    0.987
    21   1 H    0.996 --     8 C    0.980
    22   1 H    0.998 --     8 C    0.985
 ---------------------------------------------------------------------------

Topologies differ in total number of bonds
Writing topology from bond orders to xtbtopo.mol

molecular dipole:
                 x           y           z       tot (Debye)
 q only:        0.091      -0.084       1.376
   full:        0.096      -0.088       1.451       3.703
molecular quadrupole (traceless):
                xx          xy          yy          xz          yz          zz
 q only:        4.807       0.474       0.466      -0.715       0.608      -5.273
  q+dip:        4.632       0.385       0.171      -0.681       0.579      -4.803
   full:        4.431      -0.034       1.277      -0.754       0.732      -5.708

           -------------------------------------------------
          |                Geometry Summary                 |
           -------------------------------------------------

      molecular mass/u    :      114.1857267
   center of mass at/Å    :       -0.0190303       0.0744206      -0.0298623
  moments of inertia/u·Å² :        0.1646885E+03   0.3883858E+03   0.4047736E+03
rotational constants/cm⁻¹ :        0.1023607E+00   0.4340435E-01   0.4164706E-01

 * 19 selected distances

     #   Z          #   Z                                           value/Å
     1   6 C        2   6 C                                       1.5257625
     2   6 C        3   6 C                                       1.5350463
     4   6 C        5   8 O                                       1.2136123
     6   6 C        7   6 C                                       1.5257429
     6   6 C        8   6 C                                       1.5350564 (max)
     1   6 C        9   1 H                                       1.0876257
     1   6 C       10   1 H                                       1.0875687
     1   6 C       11   1 H                                       1.0863422
     2   6 C       12   1 H                                       1.0931967
     3   6 C       13   1 H                                       1.0870746
     3   6 C       14   1 H                                       1.0878265
     3   6 C       15   1 H                                       1.0864518
     6   6 C       16   1 H                                       1.0932188
     7   6 C       17   1 H                                       1.0876215
     7   6 C       18   1 H                                       1.0863342 (min)
     7   6 C       19   1 H                                       1.0875758
     8   6 C       20   1 H                                       1.0878252
     8   6 C       21   1 H                                       1.0864532
     8   6 C       22   1 H                                       1.0870653

 * 3 distinct bonds (by element types)

   Z      Z             #   av. dist./Å        max./Å        min./Å
   1 H    6 C          14     1.0880129     1.0932188     1.0863342
   6 C    6 C           4     1.5304020     1.5350564     1.5257429
   6 C    8 O           1     1.2136123     1.2136123     1.2136123

           -------------------------------------------------
          |               Frequency Printout                |
           -------------------------------------------------
 projected vibrational frequencies (cm⁻¹)
eigval :       -0.00    -0.00    -0.00    -0.00     0.00     0.00
eigval :       34.14    60.04   164.77   175.97   179.35   187.13
eigval :      216.01   217.80   271.32   305.28   309.95   380.03
eigval :      470.00   622.52   715.69   788.07   912.06   943.57
eigval :      947.60   949.00   982.54   982.79  1030.16  1094.34
eigval :     1098.29  1132.12  1140.57  1175.44  1183.09  1265.96
eigval :     1277.59  1316.51  1328.61  1395.46  1397.31  1410.31
eigval :     1412.10  1480.12  1480.57  1486.02  1488.63  1491.06
eigval :     1492.13  1499.49  1501.10  1711.19  2949.07  2952.06
eigval :     3030.29  3030.69  3033.73  3033.78  3037.19  3037.52
eigval :     3040.02  3040.72  3043.31  3043.77  3045.72  3046.41
 reduced masses (amu)
   1: 10.52   2: 10.72   3: 10.19   4: 10.93   5: 10.24   6: 10.50   7: 10.99   8:  8.12
   9:  4.88  10:  3.48  11:  4.60  12:  5.59  13:  4.98  14:  2.99  15:  7.89  16: 11.74
  17:  9.16  18:  8.07  19:  8.68  20: 10.10  21: 10.41  22:  8.85  23:  8.79  24:  7.52
  25:  2.57  26:  2.65  27:  3.61  28:  4.04  29:  8.18  30:  4.44  31:  5.73  32:  7.41
  33:  7.79  34:  6.51  35:  7.11  36:  4.70  37:  4.72  38:  4.47  39:  6.46  40:  3.06
  41:  3.13  42:  3.09  43:  2.98  44:  1.54  45:  1.55  46:  1.57  47:  1.58  48:  1.53
  49:  1.57  50:  1.61  51:  1.60  52: 13.31  53:  1.76  54:  1.75  55:  1.94  56:  1.94
  57:  1.90  58:  1.90  59:  1.88  60:  1.91  61:  1.94  62:  1.93  63:  1.31  64:  1.30
  65:  1.33  66:  1.31
 IR intensities (km·mol⁻¹)
   1:  0.77   2:  0.28   3:  0.27   4:  1.36   5:  0.05   6:  2.31   7:  3.42   8:  0.34
   9:  1.35  10:  0.29  11:  1.18  12:  1.20  13:  0.52  14:  1.67  15:  0.13  16: 12.56
  17:  0.14  18:  0.61  19:  0.01  20:  7.61  21:  8.53  22:  7.83  23:  6.27  24:  2.36
  25:  2.26  26:  8.52  27:  0.76  28: 16.68  29:189.89  30:  0.94  31: 20.72  32:  1.40
  33:  2.56  34: 11.09  35:  3.57  36:  2.38  37: 14.22  38:  1.64  39: 22.84  40:  0.02
  41:  4.19  42:  3.21  43:  0.95  44:  1.46  45:  1.65  46:  1.16  47:  0.13  48:  5.32
  49:  3.25  50:  0.02  51:  7.54  52:453.31  53: 18.41  54: 68.61  55: 52.75  56: 15.90
  57: 66.39  58: 78.40  59: 66.89  60:  5.84  61: 14.42  62: 84.02  63: 42.29  64: 22.42
  65:104.97  66:  2.02
 Raman intensities (Ä⁴*amu⁻¹)
   1:  0.00   2:  0.00   3:  0.00   4:  0.00   5:  0.00   6:  0.00   7:  0.00   8:  0.00
   9:  0.00  10:  0.00  11:  0.00  12:  0.00  13:  0.00  14:  0.00  15:  0.00  16:  0.00
  17:  0.00  18:  0.00  19:  0.00  20:  0.00  21:  0.00  22:  0.00  23:  0.00  24:  0.00
  25:  0.00  26:  0.00  27:  0.00  28:  0.00  29:  0.00  30:  0.00  31:  0.00  32:  0.00
  33:  0.00  34:  0.00  35:  0.00  36:  0.00  37:  0.00  38:  0.00  39:  0.00  40:  0.00
  41:  0.00  42:  0.00  43:  0.00  44:  0.00  45:  0.00  46:  0.00  47:  0.00  48:  0.00
  49:  0.00  50:  0.00  51:  0.00  52:  0.00  53:  0.00  54:  0.00  55:  0.00  56:  0.00
  57:  0.00  58:  0.00  59:  0.00  60:  0.00  61:  0.00  62:  0.00  63:  0.00  64:  0.00
  65:  0.00  66:  0.00
 output can be read by thermo (or use thermo option).
 writing <g98.out> molden fake output.
 recommended (thermochemical) frequency scaling factor: 1.0
           -------------------------------------------------
          |             Thermodynamic Functions             |
           -------------------------------------------------

Molecule has the following symmetry elements: (C2) 
It seems to be the C2 point group
c2  symmetry found (for desy threshold:  0.10E+00) used in thermo

          ...................................................
          :                      SETUP                      :
          :.................................................:
          :  # frequencies                          60      :
          :  # imaginary freq.                       0      :
          :  linear?                             false      :
          :  only rotor calc.                    false      :
          :  symmetry                               c2      :
          :  rotational number                       2      :
          :  scaling factor                  1.0000000      :
          :  rotor cutoff                    0.0000000 cm⁻¹ :
          :  imag. cutoff                 -100.0000000 cm⁻¹ :
          :.................................................:

    mode    ω/cm⁻¹     T·S(HO)/kcal·mol⁻¹    T·S(FR)/kcal·mol⁻¹   T·S(vib)
   ------------------------------------------------------------------------
       1     34.14    -1.66168 (100.00%)    -1.16916 (  0.00%)    -1.66168
       2     60.04    -1.32853 (100.00%)    -1.00209 (  0.00%)    -1.32853
       3    164.77    -0.74367 (100.00%)    -0.70317 (  0.00%)    -0.74367
       4    175.97    -0.70684 (100.00%)    -0.68370 (  0.00%)    -0.70684
       5    179.35    -0.69623 (100.00%)    -0.67807 (  0.00%)    -0.69623
       6    187.13    -0.67264 (100.00%)    -0.66549 (  0.00%)    -0.67264
       7    216.01    -0.59400 (100.00%)    -0.62298 (  0.00%)    -0.59400
       8    217.80    -0.58954 (100.00%)    -0.62055 (  0.00%)    -0.58954
       9    271.32    -0.47340 (100.00%)    -0.55547 (  0.00%)    -0.47340
   ------------------------------------------------------------------------

   temp. (K)  partition function   enthalpy   heat capacity  entropy
                                   cal/mol     cal/K/mol   cal/K/mol   J/K/mol
 298.15  VIB  0.217E+04             4946.776     31.520     31.862
         ROT  0.194E+06              888.752      2.981     27.181
         INT  0.422E+09             5835.528     34.501     59.043
         TR   0.118E+28             1481.254      4.968     40.095
         TOT                        7316.7819    39.4691    99.1377   414.7923

       T/K    H(0)-H(T)+PV         H(T)/Eh          T*S/Eh         G(T)/Eh
   ------------------------------------------------------------------------
    298.15    0.116600E-01    0.206371E+00    0.471035E-01    0.159267E+00
   ------------------------------------------------------------------------

         :::::::::::::::::::::::::::::::::::::::::::::::::::::
         ::                  THERMODYNAMIC                  ::
         :::::::::::::::::::::::::::::::::::::::::::::::::::::
         :: total free energy         -26.037505570302 Eh   ::
         ::.................................................::
         :: total energy              -26.196772714800 Eh   ::
         :: zero point energy           0.194710647201 Eh   ::
         :: G(RRHO) w/o ZPVE           -0.035443502703 Eh   ::
         :: G(RRHO) contrib.            0.159267144498 Eh   ::
         :::::::::::::::::::::::::::::::::::::::::::::::::::::

optimized geometry written to: xtbopt.coord


           -------------------------------------------------
          | TOTAL ENERGY              -26.196772714800 Eh   |
          | TOTAL ENTHALPY            -25.990402033468 Eh   |
          | TOTAL FREE ENERGY         -26.037505570302 Eh   |
          | GRADIENT NORM               0.000023969413 Eh/α |
          | HOMO-LUMO GAP               3.656035678222 eV   |
           -------------------------------------------------

------------------------------------------------------------------------
 * finished run on 2025/04/11 at 12:00:46.179     
------------------------------------------------------------------------
 total:
 * wall-time:     0 d,  0 h,  0 min,  1.676 sec
 *  cpu-time:     0 d,  0 h,  0 min,  1.583 sec
 * ratio c/w:     0.945 speedup
 SCF:
 * wall-time:     0 d,  0 h,  0 min,  0.027 sec
 *  cpu-time:     0 d,  0 h,  0 min,  0.014 sec
 * ratio c/w:     0.518 speedup
 ANC optimizer:
 * wall-time:     0 d,  0 h,  0 min,  0.261 sec
 *  cpu-time:     0 d,  0 h,  0 min,  0.245 sec
 * ratio c/w:     0.937 speedup
 analytical hessian:
 * wall-time:     0 d,  0 h,  0 min,  1.323 sec
 *  cpu-time:     0 d,  0 h,  0 min,  1.311 sec
 * ratio c/w:     0.991 speedup

