
                                 *****************
                                 * O   R   C   A *
                                 *****************

                                            #,                                       
                                            ###                                      
                                            ####                                     
                                            #####                                    
                                            ######                                   
                                           ########,                                 
                                     ,,################,,,,,                         
                               ,,#################################,,                 
                          ,,##########################################,,             
                       ,#########################################, ''#####,          
                    ,#############################################,,   '####,        
                  ,##################################################,,,,####,       
                ,###########''''           ''''###############################       
              ,#####''   ,,,,##########,,,,          '''####'''          '####       
            ,##' ,,,,###########################,,,                        '##       
           ' ,,###''''                  '''############,,,                           
         ,,##''                                '''############,,,,        ,,,,,,###''
      ,#''                                            '''#######################'''  
     '                                                          ''''####''''         
             ,#######,   #######,   ,#######,      ##                                
            ,#'     '#,  ##    ##  ,#'     '#,    #''#        ,####,   ,####,        
            ##       ##  ##   ,#'  ##            #'  '#       #'       #'  '#        
            ##       ##  #######   ##           ,######,      #####,   #    #        
            '#,     ,#'  ##    ##  '#,     ,#' ,#      #,     #,   #   #,  ,#        
             '#######'   ##     ##  '#######'  #'      '#     '####' # '####'        



                #########################################################
                #                        -***-                          #
                #          Department of theory and spectroscopy        #
                #                                                       #
                #                      Frank Neese                      #
                #                                                       #
                #     Directorship, Architecture, Infrastructure        #
                #                    SHARK, DRIVERS                     #
                #        Core code/Algorithms in most modules           #
                #                                                       #
                #        Max Planck Institute fuer Kohlenforschung      #
                #                Kaiser Wilhelm Platz 1                 #
                #                 D-45470 Muelheim/Ruhr                 #
                #                      Germany                          #
                #                                                       #
                #                  All rights reserved                  #
                #                        -***-                          #
                #########################################################


                         Program Version 6.0.0  -   RELEASE  -


 With contributions from (in alphabetic order):
   Daniel Aravena         : Magnetic Suceptibility
   Michael Atanasov       : Ab Initio Ligand Field Theory (pilot matlab implementation)
   Alexander A. Auer      : GIAO ZORA, VPT2 properties, NMR spectrum
   Ute Becker             : All parallelization in ORCA, NUMFREQ, NUMCALC
   Giovanni Bistoni       : ED, misc. LED, open-shell LED, HFLD
   Martin Brehm           : Molecular dynamics
   Dmytro Bykov           : pre 5.0 version of the SCF Hessian
   Marcos Casanova-Páez   : Triplet and SCS-CIS(D). UHF-(DLPNO)-IP/EA/STEOM-CCSD. UHF-CVS-IP/STEOM-CCSD
   Vijay G. Chilkuri      : MRCI spin determinant printing, contributions to CSF-ICE
   Pauline Colinet        : FMM embedding
   Dipayan Datta          : RHF DLPNO-CCSD density
   Achintya Kumar Dutta   : EOM-CC, STEOM-CC
   Nicolas Foglia         : Exact transition moments, OPA infrastructure, MCD improvements
   Dmitry Ganyushin       : Spin-Orbit,Spin-Spin,Magnetic field MRCI
   Miquel Garcia          : C-PCM and meta-GGA Hessian, CCSD/C-PCM, Gaussian charge scheme
   Tiago L. C. Gouveia    : GS-ROHF, GS-ROCIS
   Yang Guo               : DLPNO-NEVPT2, F12-NEVPT2, CIM, IAO-localization
   Andreas Hansen         : Spin unrestricted coupled pair/coupled cluster methods
   Ingolf Harden          : AUTO-CI MPn and infrastructure 
   Benjamin Helmich-Paris : MC-RPA, TRAH-(SCF,CASSCF), AVAS, COSX integrals, SCF dyn. polar.
   Lee Huntington         : MR-EOM, pCC
   Robert Izsak           : Overlap fitted RIJCOSX, COSX-SCS-MP3, EOM
   Riya Kayal             : Wick's Theorem for AUTO-CI, AUTO-CI UHF-CCSDT
   Emily Kempfer          : AUTO-CI, RHF CISDT and CCSDT
   Christian Kollmar      : KDIIS, OOCD, Brueckner-CCSD(T), CCSD density, CASPT2, CASPT2-K, improved NEVPT2
   Axel Koslowski         : Symmetry handling
   Simone Kossmann        : Meta GGA functionals, TD-DFT gradient, OOMP2, (MP2 Hessian; deprecated post 5.0)
   Lucas Lang             : DCDCAS
   Marvin Lechner         : AUTO-CI (C++ implementation), FIC-MRCC
   Spencer Leger          : CASSCF response
   Dagmar Lenk            : GEPOL surface, SMD, ORCA-2-JSON
   Dimitrios Liakos       : Extrapolation schemes; Compound Job, initial MDCI parallelization
   Dimitrios Manganas     : Further ROCIS development; embedding schemes. LFT, Crystal Embedding
   Dimitrios Pantazis     : SARC Basis sets
   Anastasios Papadopoulos: AUTO-CI, single reference methods and gradients
   Taras Petrenko         : pre 6.0 DFT Hessian and TD-DFT gradient, (ASA, deprecated), ECA, 1-Electron XAS/XES, NRVS
   Peter Pinski           : DLPNO-MP2, DLPNO-MP2 Gradient
   Christoph Reimann      : Effective Core Potentials
   Marius Retegan         : Local ZFS, SOC
   Christoph Riplinger    : Optimizer, TS searches, QM/MM, DLPNO-CCSD(T), (RO)-DLPNO pert. Triples
   Michael Roemelt        : Original ROCIS implementation
   Masaaki Saitow         : Open-shell DLPNO-CCSD energy and density
   Barbara Sandhoefer     : DKH picture change effects
   Kantharuban Sivalingam : CASSCF convergence/infrastructure, NEVPT2 and variants, FIC-MRCI
   Bernardo de Souza      : ESD, SOC TD-DFT
   Georgi Stoychev        : AutoAux, RI-MP2 NMR, DLPNO-MP2 response, X2C
   Van Anh Tran           : RI-MP2 g-tensors
   Willem Van den Heuvel  : Paramagnetic NMR
   Zikuan Wang            : NOTCH, Electric field optimization 
   Frank Wennmohs         : Technical directorship and infrastructure
   Hang Xu                : AUTO-CI-Response properties 


 We gratefully acknowledge several colleagues who have allowed us to
 interface, adapt or use parts of their codes:
   Stefan Grimme, W. Hujo, H. Kruse, P. Pracht,  : VdW corrections, initial TS optimization,
                  C. Bannwarth, S. Ehlert,         DFT functionals, gCP, sTDA/sTD-DF
                  L. Wittmann, M. Mueller
   Ed Valeev, F. Pavosevic, A. Kumar             : LibInt (2-el integral package), F12 methods
   Garnet Chan, S. Sharma, J. Yang, R. Olivares  : DMRG
   Ulf Ekstrom                                   : XCFun DFT Library
   Mihaly Kallay                                 : mrcc  (arbitrary order and MRCC methods)
   Frank Weinhold                                : gennbo (NPA and NBO analysis)
   Simon Mueller                                 : openCOSMO-RS
   Christopher J. Cramer and Donald G. Truhlar   : smd solvation model
   Lars Goerigk                                  : TD-DFT with DH, B97 family of functionals
   V. Asgeirsson, H. Jonsson                     : NEB implementation
   FAccTs GmbH                                   : IRC, NEB, NEB-TS, DLPNO-Multilevel, CI-OPT
                                                   MM, QMMM, 2- and 3-layer-ONIOM, Crystal-QMMM,
                                                   LR-CPCM, SF, NACMEs, symmetry and pop. for TD-DFT,
                                                   nearIR, NL-DFT gradient (VV10), updates on ESD,
                                                   ML-optimized integration grids, MBIS, APM,
                                                   GOAT, DOCKER, SOLVATOR, interface openCOSMO-RS
   S Lehtola, MJT Oliveira, MAL Marques          : LibXC Library
   Liviu Ungur et al                             : ANISO software


 Your calculation uses the libint2 library for the computation of 2-el integrals
 For citations please refer to: http://libint.valeyev.net

 Your ORCA version has been built with support for libXC version: 6.2.2
 For citations please refer to: https://libxc.gitlab.io

 This ORCA versions uses:
   CBLAS   interface :  Fast vector & matrix operations
   LAPACKE interface :  Fast linear algebra routines
   SCALAPACK package :  Parallel linear algebra routines
   Shared memory     :  Shared parallel matrices
   BLAS/LAPACK       :  OpenBLAS 0.3.27  USE64BITINT DYNAMIC_ARCH NO_AFFINITY SkylakeX SINGLE_THREADED
        Core in use  :  SkylakeX
   Copyright (c) 2011-2014, The OpenBLAS Project


Your calculation utilizes the geometrical counterpoise correction gCP
Please cite in your paper:
H.Kruse, S. Grimme J.Chem.Phys., 136, (2012), 154101 
   

Your calculation utilizes the atom-pairwise dispersion correction
based on EEQ partial charges (D4)


================================================================================

----- Orbital basis set information -----
Your calculation utilizes the basis: def2-SV(P)
   F. Weigend and R. Ahlrichs, Phys. Chem. Chem. Phys. 7, 3297 (2005).

----- AuxJ basis set information -----
Your calculation utilizes the auxiliary basis: def2/J
   F. Weigend, Phys. Chem. Chem. Phys. 8, 1057 (2006).

================================================================================
                                        WARNINGS
                       Please study these warnings very carefully!
================================================================================


================================================================================
                                       INPUT FILE
================================================================================
NAME = sp.inp
|  1> ! pbe def2-sv(p) def2/J RI DEFGRID1 loosescf d4 GCP(DFT/SV(P)) printgap
|  2> %output
|  3>     printlevel normal
|  4> end
|  5> * xyz 0 1
|  6> C 1.9796171173 -1.0002311308 0.2518885712
|  7> C 1.2287229784 0.1592888838 0.8986352249
|  8> C 0.1692231844 0.8365071208 0.0125603818
|  9> H -0.0489046853 1.8116925565 0.4862922072
| 10> C -1.1940254418 0.1198639275 -0.1296593009
| 11> C -1.1046162292 -1.2444188265 -0.8095952647
| 12> C -1.9175360776 0.011923722 1.2103210582
| 13> O 0.7574132712 1.0724926549 -1.2563453216
| 14> H 2.8448684093 -1.2543188991 0.859781951
| 15> H 2.3232755991 -0.7079547429 -0.7364822213
| 16> H 1.3582813855 -1.8838653072 0.1576655506
| 17> H 0.7572841769 -0.1628519116 1.8262827998
| 18> H 1.9607255261 0.9307949235 1.1486474572
| 19> H -1.7946912888 0.7728531153 -0.7779462767
| 20> H -0.4105082854 -1.2053694279 -1.6452121666
| 21> H -0.7706810751 -2.0041443235 -0.1088352754
| 22> H -2.0833389925 -1.5377648872 -1.1828175054
| 23> H -2.9306696311 -0.3494250699 1.0527549731
| 24> H -1.9684765591 0.9810816434 1.7014841476
| 25> H -1.4094085035 -0.6851667759 1.8714112009
| 26> H 0.1427176716 1.5816148049 -1.8003751574
| 27> *
| 28> 
| 29>                          ****END OF INPUT****
================================================================================

                       ****************************
                       * Single Point Calculation *
                       ****************************

---------------------------------
CARTESIAN COORDINATES (ANGSTROEM)
---------------------------------
  C      1.979617   -1.000231    0.251889
  C      1.228723    0.159289    0.898635
  C      0.169223    0.836507    0.012560
  H     -0.048905    1.811693    0.486292
  C     -1.194025    0.119864   -0.129659
  C     -1.104616   -1.244419   -0.809595
  C     -1.917536    0.011924    1.210321
  O      0.757413    1.072493   -1.256345
  H      2.844868   -1.254319    0.859782
  H      2.323276   -0.707955   -0.736482
  H      1.358281   -1.883865    0.157666
  H      0.757284   -0.162852    1.826283
  H      1.960726    0.930795    1.148647
  H     -1.794691    0.772853   -0.777946
  H     -0.410508   -1.205369   -1.645212
  H     -0.770681   -2.004144   -0.108835
  H     -2.083339   -1.537765   -1.182818
  H     -2.930670   -0.349425    1.052755
  H     -1.968477    0.981082    1.701484
  H     -1.409409   -0.685167    1.871411
  H      0.142718    1.581615   -1.800375

----------------------------
CARTESIAN COORDINATES (A.U.)
----------------------------
  NO LB      ZA    FRAG     MASS         X           Y           Z
   0 C     6.0000    0    12.011    3.740934   -1.890163    0.476000
   1 C     6.0000    0    12.011    2.321950    0.301012    1.698174
   2 C     6.0000    0    12.011    0.319785    1.580769    0.023736
   3 H     1.0000    0     1.008   -0.092416    3.423603    0.918959
   4 C     6.0000    0    12.011   -2.256381    0.226510   -0.245021
   5 C     6.0000    0    12.011   -2.087422   -2.351611   -1.529913
   6 C     6.0000    0    12.011   -3.623618    0.022533    2.287175
   7 O     8.0000    0    15.999    1.431304    2.026717   -2.374149
   8 H     1.0000    0     1.008    5.376022   -2.370319    1.624752
   9 H     1.0000    0     1.008    4.390355   -1.337841   -1.391750
  10 H     1.0000    0     1.008    2.566780   -3.559990    0.297945
  11 H     1.0000    0     1.008    1.431060   -0.307746    3.451174
  12 H     1.0000    0     1.008    3.705234    1.758947    2.170629
  13 H     1.0000    0     1.008   -3.391475    1.460481   -1.470105
  14 H     1.0000    0     1.008   -0.775748   -2.277818   -3.109000
  15 H     1.0000    0     1.008   -1.456376   -3.787284   -0.205669
  16 H     1.0000    0     1.008   -3.936940   -2.905954   -2.235201
  17 H     1.0000    0     1.008   -5.538163   -0.660318    1.989419
  18 H     1.0000    0     1.008   -3.719882    1.853976    3.215339
  19 H     1.0000    0     1.008   -2.663396   -1.294778    3.536455
  20 H     1.0000    0     1.008    0.269697    2.988819   -3.402216

--------------------------------
INTERNAL COORDINATES (ANGSTROEM)
--------------------------------
 C      0   0   0     0.000000000000     0.00000000     0.00000000
 C      1   0   0     1.525322885872     0.00000000     0.00000000
 C      2   1   0     1.538275977056   115.43554867     0.00000000
 H      3   2   1     1.105887988875   106.10003818   196.94913611
 C      3   2   1     1.546690247427   117.13262975    79.01223153
 C      5   3   2     1.526949362300   113.78560779   296.32294572
 C      5   3   2     1.526651921969   111.70105919    62.72491232
 O      3   2   1     1.418371754737   107.63435664   313.01433911
 H      1   2   3     1.087545288028   109.40625859   167.04947415
 H      1   2   3     1.086463741919   109.69042873    47.96735251
 H      1   2   3     1.084317954718   111.97749539   287.13248378
 H      2   1   3     1.089293008716   110.44651979   123.95979771
 H      2   1   3     1.092499618047   107.69890620   241.31254199
 H      5   3   2     1.098849553910   105.11213685   179.00745120
 H      6   5   3     1.086998758011   110.34086611   319.14610881
 H      6   5   3     1.086167611623   110.83371797    79.92169903
 H      6   5   3     1.087770655829   109.94061292   199.27331604
 H      7   5   3     1.087124472086   109.75199616   171.03758338
 H      7   5   3     1.087705470087   110.82664147    51.16639314
 H      7   5   3     1.086815978259   110.95768232   290.44540702
 H      8   3   2     0.965931936540   109.12678159   185.97084458

---------------------------
INTERNAL COORDINATES (A.U.)
---------------------------
 C      0   0   0     0.000000000000     0.00000000     0.00000000
 C      1   0   0     2.882442520100     0.00000000     0.00000000
 C      2   1   0     2.906920315025   115.43554867     0.00000000
 H      3   2   1     2.089825433767   106.10003818   196.94913611
 C      3   2   1     2.922820981644   117.13262975    79.01223153
 C      5   3   2     2.885516115113   113.78560779   296.32294572
 C      5   3   2     2.884954034347   111.70105919    62.72491232
 O      3   2   1     2.680334172542   107.63435664   313.01433911
 H      1   2   3     2.055162752610   109.40625859   167.04947415
 H      1   2   3     2.053118926662   109.69042873    47.96735251
 H      1   2   3     2.049063976511   111.97749539   287.13248378
 H      2   1   3     2.058465466069   110.44651979   123.95979771
 H      2   1   3     2.064525079522   107.69890620   241.31254199
 H      5   3   2     2.076524719271   105.11213685   179.00745120
 H      6   5   3     2.054129960554   110.34086611   319.14610881
 H      6   5   3     2.052559321503   110.83371797    79.92169903
 H      6   5   3     2.055588636033   109.94061292   199.27331604
 H      7   5   3     2.054367525727   109.75199616   171.03758338
 H      7   5   3     2.055465452832   110.82664147    51.16639314
 H      7   5   3     2.053784556879   110.95768232   290.44540702
 H      8   3   2     1.825346824070   109.12678159   185.97084458

---------------------
BASIS SET INFORMATION
---------------------
There are 3 groups of distinct atoms

 Group   1 Type C   : 7s4p1d contracted to 3s2p1d pattern {511/31/1}
 Group   2 Type H   : 4s contracted to 2s pattern {31}
 Group   3 Type O   : 7s4p1d contracted to 3s2p1d pattern {511/31/1}

Atom   0C    basis set group =>   1
Atom   1C    basis set group =>   1
Atom   2C    basis set group =>   1
Atom   3H    basis set group =>   2
Atom   4C    basis set group =>   1
Atom   5C    basis set group =>   1
Atom   6C    basis set group =>   1
Atom   7O    basis set group =>   3
Atom   8H    basis set group =>   2
Atom   9H    basis set group =>   2
Atom  10H    basis set group =>   2
Atom  11H    basis set group =>   2
Atom  12H    basis set group =>   2
Atom  13H    basis set group =>   2
Atom  14H    basis set group =>   2
Atom  15H    basis set group =>   2
Atom  16H    basis set group =>   2
Atom  17H    basis set group =>   2
Atom  18H    basis set group =>   2
Atom  19H    basis set group =>   2
Atom  20H    basis set group =>   2
---------------------------------
AUXILIARY/J BASIS SET INFORMATION
---------------------------------
There are 3 groups of distinct atoms

 Group   1 Type C   : 12s5p4d2f1g contracted to 6s4p3d1f1g pattern {711111/2111/211/2/1}
 Group   2 Type H   : 5s2p1d contracted to 3s1p1d pattern {311/2/1}
 Group   3 Type O   : 12s5p4d2f1g contracted to 6s4p3d1f1g pattern {711111/2111/211/2/1}

Atom   0C    basis set group =>   1
Atom   1C    basis set group =>   1
Atom   2C    basis set group =>   1
Atom   3H    basis set group =>   2
Atom   4C    basis set group =>   1
Atom   5C    basis set group =>   1
Atom   6C    basis set group =>   1
Atom   7O    basis set group =>   3
Atom   8H    basis set group =>   2
Atom   9H    basis set group =>   2
Atom  10H    basis set group =>   2
Atom  11H    basis set group =>   2
Atom  12H    basis set group =>   2
Atom  13H    basis set group =>   2
Atom  14H    basis set group =>   2
Atom  15H    basis set group =>   2
Atom  16H    basis set group =>   2
Atom  17H    basis set group =>   2
Atom  18H    basis set group =>   2
Atom  19H    basis set group =>   2
Atom  20H    basis set group =>   2
------------------------------------------------------------------------------
                             ORCA STARTUP CALCULATIONS
                           -- RI-GTO INTEGRALS CHOSEN --
------------------------------------------------------------------------------
------------------------------------------------------------------------------
                   ___                                                        
                  /   \      - P O W E R E D   B Y -                         
                 /     \                                                     
                 |  |  |   _    _      __       _____    __    __             
                 |  |  |  | |  | |    /  \     |  _  \  |  |  /  |          
                  \  \/   | |  | |   /    \    | | | |  |  | /  /          
                 / \  \   | |__| |  /  /\  \   | |_| |  |  |/  /          
                |  |  |   |  __  | /  /__\  \  |    /   |      \           
                |  |  |   | |  | | |   __   |  |    \   |  |\   \          
                \     /   | |  | | |  |  |  |  | |\  \  |  | \   \       
                 \___/    |_|  |_| |__|  |__|  |_| \__\ |__|  \__/        
                                                                              
                      - O R C A' S   B I G   F R I E N D -                    
                                      &                                       
                       - I N T E G R A L  F E E D E R -                       
                                                                              
 v1 FN, 2020, v2 2021, v3 2022-2024                                           
------------------------------------------------------------------------------


----------------------
SHARK INTEGRAL PACKAGE
----------------------

Number of atoms                             ...     21
Number of basis functions                   ...    126
Number of shells                            ...     70
Maximum angular momentum                    ...      2
Integral batch strategy                     ... SHARK/LIBINT Hybrid
RI-J (if used) integral strategy            ... SPLIT-RIJ (Revised 2003 algorithm where possible)
Printlevel                                  ...      1
Contraction scheme used                     ... SEGMENTED contraction
Prescreening option                         ... SCHWARTZ
   Thresh                                   ... 1.000e-09
   Tcut                                     ... 1.000e-10
   Tpresel                                  ... 1.000e-10 
Coulomb Range Separation                    ... NOT USED
Exchange Range Separation                   ... NOT USED
Multipole approximations                    ... NOT USED
Finite Nucleus Model                        ... NOT USED
CABS basis                                  ... NOT available
Auxiliary Coulomb fitting basis             ... AVAILABLE
   # of basis functions in Aux-J            ...    497
   # of shells in Aux-J                     ...    175
   Maximum angular momentum in Aux-J        ...      4
Auxiliary J/K fitting basis                 ... NOT available
Auxiliary Correlation fitting basis         ... NOT available
Auxiliary 'external' fitting basis          ... NOT available

Checking pre-screening integrals            ... done (  0.0 sec) Dimension = 70
Check shell pair data                       ... done (  0.0 sec)
Shell pair information
Shell pair cut-off parameter TPreSel        ...   1.0e-10
Total number of shell pairs                 ...      2485
Shell pairs after pre-screening             ...      2430
Total number of primitive shell pairs       ...     10003
Primitive shell pairs kept                  ...      7060
          la=0 lb=0:   1184 shell pairs
          la=1 lb=0:    681 shell pairs
          la=1 lb=1:    105 shell pairs
          la=2 lb=0:    334 shell pairs
          la=2 lb=1:     98 shell pairs
          la=2 lb=2:     28 shell pairs

Calculating one electron integrals          ... done (  0.0 sec)
Calculating RI/J V-Matrix + Cholesky decomp.... done (  0.1 sec)
Calculating Nuclear repulsion               ... done (  0.0 sec) ENN=    342.870147007040 Eh

Diagonalization of the overlap matrix:
Smallest eigenvalue                        ... 1.694e-03
Time for diagonalization                   ...    0.002 sec
Threshold for overlap eigenvalues          ... 1.000e-07
Number of eigenvalues below threshold      ... 0
Time for construction of square roots      ...    0.021 sec
Total time needed                          ...    0.033 sec

-------------------
DFT GRID GENERATION
-------------------

General Integration Accuracy     IntAcc      ... 4.159
Radial Grid Type                 RadialGrid  ... OptM3 with GC (2021)
Angular Grid (max. ang.)         AngularGrid ... 3 (Lebedev-194)
Angular grid pruning method      GridPruning ... 4 (adaptive)
Weight generation scheme         WeightScheme... mBecke (2022)
Basis function cutoff            BFCut       ... 1.0000e-10
Integration weight cutoff        WCut        ... 1.0000e-14
Partially contracted basis set               ... off
Rotationally invariant grid construction     ... off
Angular grids for H and He will be reduced by one unit

Total number of grid points                  ...    42165
Total number of batches                      ...      670
Average number of points per batch           ...       62
Average number of grid points per atom       ...     2008
Initializing property integral containers    ... done (  0.0 sec)

SHARK setup successfully completed in   0.7 seconds

Maximum memory used throughout the entire STARTUP-calculation: 20.5 MB
-------------------------------------------------------------------------------
                                 ORCA GUESS
                   Start orbitals & Density for SCF / CASSCF
-------------------------------------------------------------------------------

------------
SCF SETTINGS
------------
Hamiltonian:
 Density Functional     Method          .... DFT(GTOs)
 Exchange Functional    Exchange        .... PBE
   PBE kappa parameter   XKappa         ....  0.804000
   PBE mue parameter    XMuePBE         ....  0.219520
 Correlation Functional Correlation     .... PBE
   PBE beta parameter  CBetaPBE         ....  0.066725
 LDA part of GGA corr.  LDAOpt          .... PW91-LDA
 Gradients option       PostSCFGGA      .... off
   NL short-range parameter             ....  6.400000
 RI-approximation to the Coulomb term is turned on
   Number of AuxJ basis functions       .... 497


General Settings:
 Integral files         IntName         .... sp
 Hartree-Fock type      HFTyp           .... RHF
 Total Charge           Charge          ....    0
 Multiplicity           Mult            ....    1
 Number of Electrons    NEL             ....   58
 Basis Dimension        Dim             ....  126
 Nuclear Repulsion      ENuc            ....    342.8701470070 Eh

Convergence Acceleration:
 AO-DIIS                CNVDIIS         .... on
   Start iteration      DIISMaxIt       ....    12
   Startup error        DIISStart       ....  0.200000
   # of expansion vecs  DIISMaxEq       ....     5
   Bias factor          DIISBfac        ....   1.050
   Max. coefficient     DIISMaxC        ....  10.000
 MO-DIIS                CNVKDIIS        .... off
 Trust-Rad. Augm. Hess. CNVTRAH         .... auto
   Auto Start mean grad. ratio tolernc. ....  1.125000
   Auto Start start iteration           ....    50
   Auto Start num. interpolation iter.  ....    10
   Max. Number of Micro iterations      ....    24
   Max. Number of Macro iterations      .... Maxiter - #DIIS iter
   Number of Davidson start vectors     ....     2
   Converg. threshold    (grad. norm)   ....   1.000e-04
   Grad. Scal. Fac. for Micro threshold ....   0.100
   Minimum threshold for Micro iter.    ....   1.000e-02
   NR start threshold (gradient norm)   ....   1.000e-04
   Initial trust radius                 ....   0.400
   Minimum AH scaling param. (alpha)    ....   1.000
   Maximum AH scaling param. (alpha)    .... 1000.000
   Quad. conv. algorithm                .... NR
   White noise on init. David. guess    .... on
   Maximum white noise                  ....   0.010
   Pseudo random numbers                .... off
   Inactive MOs                         .... canonical
   Orbital update algorithm             .... Taylor
   Preconditioner                       .... Diag
   Full preconditioner red. dimension   ....   250
 SOSCF                  CNVSOSCF        .... on
   Start iteration      SOSCFMaxIt      ....   150
   Startup grad/error   SOSCFStart      ....  0.003300
   Hessian update       SOSCFHessUp     .... L-BFGS
 Level Shifting         CNVShift        .... on
   Level shift para.    LevelShift      ....    0.2500
   Turn off err/grad.   ShiftErr        ....    0.0010
 Zerner damping         CNVZerner       .... off
 Static damping         CNVDamp         .... on
   Fraction old density DampFac         ....    0.7000
   Max. Damping (<1)    DampMax         ....    0.9800
   Min. Damping (>=0)   DampMin         ....    0.0000
   Turn off err/grad.   DampErr         ....    0.1000

SCF Procedure:
 Maximum # iterations   MaxIter         ....   125
 SCF integral mode      SCFMode         .... Direct
   Integral package                     .... SHARK and LIBINT hybrid scheme
 Reset frequency        DirectResetFreq ....    20
 Integral Threshold     Thresh          ....  1.000e-09 Eh
 Primitive CutOff       TCut            ....  1.000e-10 Eh

Convergence Tolerance:
 Convergence Check Mode ConvCheckMode   .... Total+1el-Energy
 Convergence forced     ConvForced      .... 0
 Energy Change          TolE            ....  1.000e-05 Eh
 1-El. energy change                    ....  1.000e-02 Eh
 Orbital Gradient       TolG            ....  1.000e-04
 Orbital Rotation angle TolX            ....  1.000e-04
 DIIS Error             TolErr          ....  5.000e-04

------------------------------
INITIAL GUESS: MODEL POTENTIAL
------------------------------
Loading Hartree-Fock densities                     ... done
Calculating cut-offs                               ... done
Initializing the effective Hamiltonian             ... done
Setting up the integral package (SHARK)            ... done
Starting the Coulomb interaction                   ... done (   0.1 sec)
Making the grid                                    ... done (   0.2 sec)
Mapping shells                                     ... done
Starting the XC term evaluation                    ... done (   0.2 sec)
  promolecular density results
     # of electrons  =     57.995615644
     EX              =    -42.989417273
     EC              =     -1.898126247
     EX+EC           =    -44.887543519
Transforming the Hamiltonian                       ... done (   0.0 sec)
Diagonalizing the Hamiltonian                      ... done (   0.0 sec)
Back transforming the eigenvectors                 ... done (   0.0 sec)
Now organizing SCF variables                       ... done
                      ------------------
                      INITIAL GUESS DONE (   0.6 sec)
                      ------------------
             **** ENERGY FILE WAS UPDATED (sp.en.tmp) ****
Finished Guess after   0.8 sec
Maximum memory used throughout the entire GUESS-calculation: 15.6 MB

-------------------------------------------------------------------------------------------
                                      ORCA LEAN-SCF
                              memory conserving SCF solver
-------------------------------------------------------------------------------------------

----------------------------------------D-I-I-S--------------------------------------------
Iteration    Energy (Eh)           Delta-E    RMSDP     MaxDP     DIISErr   Damp  Time(sec)
-------------------------------------------------------------------------------------------
               ***  Starting incremental Fock matrix formation  ***
    1    -311.3538415938544972     0.00e+00  5.19e-03  8.25e-02  2.13e-01  0.700   0.8
    2    -311.4744320526356773    -1.21e-01  3.58e-03  4.74e-02  7.67e-02  0.700   0.8
                               ***Turning on AO-DIIS***
    3    -311.5144759380336268    -4.00e-02  1.39e-03  1.45e-02  2.14e-02  0.700   0.8
    4    -311.5384186007223093    -2.39e-02  2.01e-03  2.16e-02  7.79e-03  0.000   0.9
    5    -311.5939085175968444    -5.55e-02  6.46e-04  8.61e-03  1.12e-02  0.000   0.8
                              *** Initializing SOSCF ***
---------------------------------------S-O-S-C-F--------------------------------------
Iteration    Energy (Eh)           Delta-E    RMSDP     MaxDP     MaxGrad    Time(sec)
--------------------------------------------------------------------------------------
    6    -311.5945454876378449    -6.37e-04  2.29e-04  2.56e-03  2.13e-03     0.7
               *** Restarting incremental Fock matrix formation ***
    7    -311.5946064222122800    -6.09e-05  1.58e-04  2.41e-03  2.22e-04     0.7
    8    -311.5946052615949498     1.16e-06  5.44e-05  1.13e-03  4.75e-04     1.2
                 **** Energy Check signals convergence ****

               *****************************************************
               *                     SUCCESS                       *
               *           SCF CONVERGED AFTER   8 CYCLES          *
               *****************************************************

             **** ENERGY FILE WAS UPDATED (sp.en.tmp) ****

----------------
TOTAL SCF ENERGY
----------------

Total Energy       :       -311.59460526159495 Eh           -8478.92027 eV

Components:
Nuclear Repulsion  :        342.87014700703952 Eh            9329.97103 eV
Electronic Energy  :       -654.46475226863447 Eh          -17808.89130 eV
One Electron Energy:      -1100.89207739492804 Eh          -29956.79640 eV
Two Electron Energy:        446.42732512629357 Eh           12147.90510 eV

Virial components:
Potential Energy   :       -620.45303431053128 Eh          -16883.38540 eV
Kinetic Energy     :        308.85842904893633 Eh            8404.46513 eV
Virial Ratio       :          2.00885899802406

DFT components:
N(Alpha)           :       28.999776610686 electrons
N(Beta)            :       28.999776610686 electrons
N(Total)           :       57.999553221371 electrons
E(X)               :      -44.059205403963 Eh       
E(C)               :       -1.908514412993 Eh       
E(XC)              :      -45.967719816956 Eh       

---------------
SCF CONVERGENCE
---------------

  Last Energy change         ...   -1.1606e-06  Tolerance :   1.0000e-05
  Last MAX-Density change    ...    1.1274e-03  Tolerance :   1.0000e-03
  Last RMS-Density change    ...    5.4380e-05  Tolerance :   1.0000e-04
  Last DIIS Error            ...    2.1280e-03  Tolerance :   5.0000e-04
  Last Orbital Gradient      ...    4.7476e-04  Tolerance :   1.0000e-04
  Last Orbital Rotation      ...    2.0086e-04  Tolerance :   1.0000e-04


----------------
ORBITAL ENERGIES
----------------

  NO   OCC          E(Eh)            E(eV) 
   0   2.0000     -18.740440      -509.9533 
   1   2.0000      -9.932582      -270.2793 
   2   2.0000      -9.894007      -269.2296 
   3   2.0000      -9.879057      -268.8228 
   4   2.0000      -9.875434      -268.7242 
   5   2.0000      -9.868344      -268.5313 
   6   2.0000      -9.861844      -268.3544 
   7   2.0000      -0.917644       -24.9704 
   8   2.0000      -0.724311       -19.7095 
   9   2.0000      -0.679256       -18.4835 
  10   2.0000      -0.612139       -16.6571 
  11   2.0000      -0.597384       -16.2556 
  12   2.0000      -0.532871       -14.5002 
  13   2.0000      -0.496420       -13.5083 
  14   2.0000      -0.446434       -12.1481 
  15   2.0000      -0.429846       -11.6967 
  16   2.0000      -0.393484       -10.7073 
  17   2.0000      -0.375055       -10.2058 
  18   2.0000      -0.368562       -10.0291 
  19   2.0000      -0.354071        -9.6348 
  20   2.0000      -0.341241        -9.2856 
  21   2.0000      -0.328510        -8.9392 
  22   2.0000      -0.317989        -8.6529 
  23   2.0000      -0.301366        -8.2006 
  24   2.0000      -0.297964        -8.1080 
  25   2.0000      -0.282364        -7.6835 
  26   2.0000      -0.280371        -7.6293 
  27   2.0000      -0.257374        -7.0035 
  28   2.0000      -0.210366        -5.7244 
  29   0.0000       0.018910         0.5146 
  30   0.0000       0.048505         1.3199 
  31   0.0000       0.063648         1.7319 
  32   0.0000       0.071138         1.9358 
  33   0.0000       0.085226         2.3191 
  34   0.0000       0.098906         2.6914 
  35   0.0000       0.107987         2.9385 
  36   0.0000       0.120032         3.2662 
  37   0.0000       0.127052         3.4573 
  38   0.0000       0.132628         3.6090 
  39   0.0000       0.144070         3.9203 
*Only the first 10 virtual orbitals were printed.

                    ********************************
                    * MULLIKEN POPULATION ANALYSIS *
                    ********************************

-----------------------
MULLIKEN ATOMIC CHARGES
-----------------------
   0 C :   -0.281052
   1 C :   -0.170707
   2 C :    0.062478
   3 H :    0.049941
   4 C :   -0.184864
   5 C :   -0.242085
   6 C :   -0.258456
   7 O :   -0.416987
   8 H :    0.095853
   9 H :    0.117220
  10 H :    0.097944
  11 H :    0.086456
  12 H :    0.084861
  13 H :    0.053306
  14 H :    0.105464
  15 H :    0.106297
  16 H :    0.093835
  17 H :    0.099868
  18 H :    0.097247
  19 H :    0.107664
  20 H :    0.295717
Sum of atomic charges:    0.0000000

--------------------------------
MULLIKEN REDUCED ORBITAL CHARGES
--------------------------------
  0 C s       :     3.080798  s :     3.080798
      pz      :     1.071990  p :     3.171182
      px      :     1.054383
      py      :     1.044809
      dz2     :     0.006272  d :     0.029072
      dxz     :     0.006794
      dyz     :     0.003744
      dx2y2   :     0.004771
      dxy     :     0.007491

  1 C s       :     3.044328  s :     3.044328
      pz      :     1.044608  p :     3.091170
      px      :     1.017564
      py      :     1.028998
      dz2     :     0.006532  d :     0.035209
      dxz     :     0.007691
      dyz     :     0.005367
      dx2y2   :     0.004545
      dxy     :     0.011074

  2 C s       :     3.044558  s :     3.044558
      pz      :     0.801483  p :     2.824089
      px      :     1.005019
      py      :     1.017586
      dz2     :     0.016492  d :     0.068876
      dxz     :     0.016761
      dyz     :     0.015230
      dx2y2   :     0.010581
      dxy     :     0.009813

  3 H s       :     0.950059  s :     0.950059

  4 C s       :     3.091406  s :     3.091406
      pz      :     1.021895  p :     3.051039
      px      :     1.016526
      py      :     1.012617
      dz2     :     0.007024  d :     0.042419
      dxz     :     0.008470
      dyz     :     0.010098
      dx2y2   :     0.007113
      dxy     :     0.009714

  5 C s       :     3.076241  s :     3.076241
      pz      :     1.062735  p :     3.137063
      px      :     1.051022
      py      :     1.023305
      dz2     :     0.003279  d :     0.028780
      dxz     :     0.007261
      dyz     :     0.007149
      dx2y2   :     0.006491
      dxy     :     0.004601

  6 C s       :     3.089137  s :     3.089137
      pz      :     1.033376  p :     3.140243
      px      :     1.050478
      py      :     1.056388
      dz2     :     0.005088  d :     0.029076
      dxz     :     0.004815
      dyz     :     0.008977
      dx2y2   :     0.006310
      dxy     :     0.003887

  7 O s       :     3.791069  s :     3.791069
      pz      :     1.294221  p :     4.610764
      px      :     1.586661
      py      :     1.729883
      dz2     :     0.001816  d :     0.015153
      dxz     :     0.005744
      dyz     :     0.002371
      dx2y2   :     0.001472
      dxy     :     0.003750

  8 H s       :     0.904147  s :     0.904147

  9 H s       :     0.882780  s :     0.882780

 10 H s       :     0.902056  s :     0.902056

 11 H s       :     0.913544  s :     0.913544

 12 H s       :     0.915139  s :     0.915139

 13 H s       :     0.946694  s :     0.946694

 14 H s       :     0.894536  s :     0.894536

 15 H s       :     0.893703  s :     0.893703

 16 H s       :     0.906165  s :     0.906165

 17 H s       :     0.900132  s :     0.900132

 18 H s       :     0.902753  s :     0.902753

 19 H s       :     0.892336  s :     0.892336

 20 H s       :     0.704283  s :     0.704283


------------------------
MULLIKEN OVERLAP CHARGES
------------------------
B(  0-C ,  1-C ) :   0.8816 B(  0-C ,  2-C ) :  -0.0874 B(  0-C ,  8-H ) :   0.7292 
B(  0-C ,  9-H ) :   0.7485 B(  0-C , 10-H ) :   0.7434 B(  0-C , 12-H ) :  -0.0519 
B(  1-C ,  2-C ) :   0.6959 B(  1-C ,  3-H ) :  -0.0932 B(  1-C ,  4-C ) :  -0.1241 
B(  1-C ,  7-O ) :  -0.1499 B(  1-C ,  9-H ) :  -0.0552 B(  1-C , 11-H ) :   0.6906 
B(  1-C , 12-H ) :   0.6576 B(  2-C ,  3-H ) :   0.6932 B(  2-C ,  4-C ) :   0.7710 
B(  2-C ,  5-C ) :  -0.0946 B(  2-C ,  6-C ) :  -0.0766 B(  2-C ,  7-O ) :   0.6648 
B(  2-C , 13-H ) :  -0.0604 B(  2-C , 20-H ) :  -0.0779 B(  3-H ,  4-C ) :  -0.1187 
B(  3-H ,  7-O ) :  -0.0608 B(  4-C ,  5-C ) :   0.8206 B(  4-C ,  6-C ) :   0.6922 
B(  4-C ,  7-O ) :  -0.1086 B(  4-C , 13-H ) :   0.6381 B(  4-C , 14-H ) :  -0.0547 
B(  5-C ,  6-C ) :  -0.1207 B(  5-C , 13-H ) :  -0.0864 B(  5-C , 14-H ) :   0.7161 
B(  5-C , 15-H ) :   0.7493 B(  5-C , 16-H ) :   0.7160 B(  6-C , 17-H ) :   0.7042 
B(  6-C , 18-H ) :   0.7352 B(  6-C , 19-H ) :   0.7506 B(  7-O , 14-H ) :   0.0540 
B(  7-O , 20-H ) :   0.5160 B( 11-H , 12-H ) :  -0.0525 B( 18-H , 19-H ) :  -0.0521 



                     *******************************
                     * LOEWDIN POPULATION ANALYSIS *
                     *******************************

----------------------
LOEWDIN ATOMIC CHARGES
----------------------
   0 C :   -0.346100
   1 C :   -0.235078
   2 C :   -0.046477
   3 H :    0.093967
   4 C :   -0.170620
   5 C :   -0.334897
   6 C :   -0.330475
   7 O :   -0.325141
   8 H :    0.117258
   9 H :    0.125683
  10 H :    0.114322
  11 H :    0.118397
  12 H :    0.121705
  13 H :    0.107144
  14 H :    0.119742
  15 H :    0.116441
  16 H :    0.117434
  17 H :    0.120693
  18 H :    0.116331
  19 H :    0.117453
  20 H :    0.282218

-------------------------------
LOEWDIN REDUCED ORBITAL CHARGES
-------------------------------
  0 C s       :     2.941235  s :     2.941235
      pz      :     1.130914  p :     3.334241
      px      :     1.109182
      py      :     1.094145
      dz2     :     0.015072  d :     0.070623
      dxz     :     0.016320
      dyz     :     0.009431
      dx2y2   :     0.010382
      dxy     :     0.019419

  1 C s       :     2.909850  s :     2.909850
      pz      :     1.085396  p :     3.239194
      px      :     1.069780
      py      :     1.084018
      dz2     :     0.014513  d :     0.086034
      dxz     :     0.020393
      dyz     :     0.014149
      dx2y2   :     0.009325
      dxy     :     0.027653

  2 C s       :     2.889309  s :     2.889309
      pz      :     0.893053  p :     2.999766
      px      :     1.035296
      py      :     1.071417
      dz2     :     0.037525  d :     0.157402
      dxz     :     0.038198
      dyz     :     0.033721
      dx2y2   :     0.022750
      dxy     :     0.025209

  3 H s       :     0.906033  s :     0.906033

  4 C s       :     2.887525  s :     2.887525
      pz      :     1.060674  p :     3.178623
      px      :     1.051994
      py      :     1.065955
      dz2     :     0.018191  d :     0.104472
      dxz     :     0.020844
      dyz     :     0.023777
      dx2y2   :     0.018268
      dxy     :     0.023391

  5 C s       :     2.944846  s :     2.944846
      pz      :     1.116502  p :     3.319340
      px      :     1.122298
      py      :     1.080540
      dz2     :     0.007133  d :     0.070711
      dxz     :     0.017932
      dyz     :     0.018682
      dx2y2   :     0.016958
      dxy     :     0.010006

  6 C s       :     2.945858  s :     2.945858
      pz      :     1.084200  p :     3.313510
      px      :     1.109230
      py      :     1.120080
      dz2     :     0.012566  d :     0.071107
      dxz     :     0.013077
      dyz     :     0.020583
      dx2y2   :     0.015524
      dxy     :     0.009356

  7 O s       :     3.541914  s :     3.541914
      pz      :     1.368830  p :     4.756722
      px      :     1.639104
      py      :     1.748787
      dz2     :     0.004235  d :     0.026506
      dxz     :     0.010527
      dyz     :     0.004452
      dx2y2   :     0.001728
      dxy     :     0.005564

  8 H s       :     0.882742  s :     0.882742

  9 H s       :     0.874317  s :     0.874317

 10 H s       :     0.885678  s :     0.885678

 11 H s       :     0.881603  s :     0.881603

 12 H s       :     0.878295  s :     0.878295

 13 H s       :     0.892856  s :     0.892856

 14 H s       :     0.880258  s :     0.880258

 15 H s       :     0.883559  s :     0.883559

 16 H s       :     0.882566  s :     0.882566

 17 H s       :     0.879307  s :     0.879307

 18 H s       :     0.883669  s :     0.883669

 19 H s       :     0.882547  s :     0.882547

 20 H s       :     0.717782  s :     0.717782


---------------------------------
LOEWDIN BOND ORDERS (THRESH 0.050000)
---------------------------------
B(  0-C ,  1-C ) :   1.1286 B(  0-C ,  8-H ) :   0.9370 B(  0-C ,  9-H ) :   0.9339 
B(  0-C , 10-H ) :   0.9353 B(  1-C ,  2-C ) :   1.0664 B(  1-C ,  7-O ) :   0.0547 
B(  1-C , 11-H ) :   0.8999 B(  1-C , 12-H ) :   0.9013 B(  2-C ,  3-H ) :   0.8743 
B(  2-C ,  4-C ) :   1.0350 B(  2-C ,  6-C ) :   0.0558 B(  2-C ,  7-O ) :   1.1943 
B(  4-C ,  5-C ) :   1.0952 B(  4-C ,  6-C ) :   1.0915 B(  4-C ,  7-O ) :   0.0750 
B(  4-C , 13-H ) :   0.8668 B(  5-C ,  6-C ) :   0.0557 B(  5-C , 14-H ) :   0.9290 
B(  5-C , 15-H ) :   0.9313 B(  5-C , 16-H ) :   0.9347 B(  6-C , 17-H ) :   0.9340 
B(  6-C , 18-H ) :   0.9344 B(  6-C , 19-H ) :   0.9328 B(  7-O , 20-H ) :   0.8859 


------------------------------------------
LOEWDIN REDUCED ORBITAL POPULATIONS PER MO
-------------------------------------------
THRESHOLD FOR PRINTING IS 0.1%%
                      0         1         2         3         4         5   
                 -18.74044  -9.93258  -9.89401  -9.87906  -9.87543  -9.86834
                   2.00000   2.00000   2.00000   2.00000   2.00000   2.00000
                  --------  --------  --------  --------  --------  --------
 1 C  s               0.0       0.0       0.0      99.6       0.0       0.0
 2 C  s               0.0      99.6       0.0       0.0       0.0       0.0
 4 C  s               0.0       0.0      99.6       0.0       0.0       0.0
 5 C  s               0.0       0.0       0.0       0.0       0.0      99.7
 6 C  s               0.0       0.0       0.0       0.0      99.7       0.0
 7 O  s              99.9       0.0       0.0       0.0       0.0       0.0

                      6         7         8         9        10        11   
                  -9.86184  -0.91764  -0.72431  -0.67926  -0.61214  -0.59738
                   2.00000   2.00000   2.00000   2.00000   2.00000   2.00000
                  --------  --------  --------  --------  --------  --------
 0 C  s              99.7       0.1       2.1      17.3       2.3      14.5
 0 C  pz              0.0       0.0       0.1       0.4       0.0       0.0
 0 C  px              0.0       0.0       0.3       0.5       0.0       0.2
 0 C  py              0.0       0.1       0.3       1.5       0.1       0.3
 1 C  s               0.0       0.8       6.2      23.3       0.1       0.1
 1 C  pz              0.0       0.7       0.2       0.4       0.0       0.0
 1 C  px              0.0       0.3       0.5       0.3       0.7       4.5
 1 C  py              0.1       0.2       0.0       0.5       1.0       5.4
 1 C  dxz             0.0       0.0       0.0       0.0       0.0       0.1
 1 C  dyz             0.0       0.0       0.0       0.0       0.0       0.1
 2 C  s               0.0      10.4       7.8       2.4       1.8      13.2
 2 C  pz              0.0       7.2       1.7       2.3       0.9       0.6
 2 C  px              0.0       1.1       1.7       5.2       0.0       0.1
 2 C  py              0.0       0.3       1.9       0.3       0.4       0.1
 2 C  dz2             0.0       0.4       0.1       0.0       0.0       0.0
 2 C  dxz             0.0       0.3       0.1       0.0       0.0       0.0
 3 H  s               0.0       1.3       1.5       0.4       1.1       4.0
 4 C  s               0.0       0.9      23.0       4.8       0.0       0.4
 4 C  pz              0.0       0.1       0.5       0.0       8.5       1.5
 4 C  px              0.0       1.0       0.0       1.3       0.2       5.2
 4 C  py              0.0       0.3       0.2       0.6       6.2       1.2
 4 C  dz2             0.0       0.0       0.0       0.0       0.1       0.1
 4 C  dx2y2           0.0       0.0       0.0       0.0       0.1       0.0
 5 C  s               0.0       0.1       9.4       3.9      26.0       0.0
 5 C  pz              0.0       0.0       0.7       0.1       0.2       0.1
 5 C  px              0.0       0.0       0.0       0.1       0.0       0.1
 5 C  py              0.0       0.1       1.8       0.4       0.2       0.1
 6 C  s               0.0       0.1      11.3       4.7      13.7      11.9
 6 C  pz              0.0       0.0       1.9       0.5       0.4       0.3
 6 C  px              0.0       0.0       0.7       0.0       0.0       0.5
 6 C  py              0.0       0.0       0.0       0.0       0.3       0.1
 7 O  s               0.0      58.0       3.4       0.5       0.1       2.0
 7 O  pz              0.0       0.4       1.2       1.1       0.5       6.6
 7 O  px              0.0       2.7       0.1       0.2       0.0       0.1
 7 O  py              0.0       0.3       0.4       0.2       0.0       0.8
 8 H  s               0.1       0.0       0.3       3.5       0.6       4.4
 9 H  s               0.1       0.1       0.3       3.3       0.6       3.7
10 H  s               0.1       0.0       0.5       3.2       1.0       4.0
11 H  s               0.0       0.1       1.5       4.5       0.1       0.0
12 H  s               0.0       0.1       1.0       5.0       0.0       0.0
13 H  s               0.0       0.2       4.0       1.3       0.0       0.1
14 H  s               0.0       0.1       1.6       0.6       7.4       0.0
15 H  s               0.0       0.0       1.9       0.7       6.6       0.0
16 H  s               0.0       0.0       1.6       0.9       6.9       0.0
17 H  s               0.0       0.0       2.0       1.1       3.2       4.0
18 H  s               0.0       0.0       2.1       0.8       4.6       3.0
19 H  s               0.0       0.0       2.3       0.8       3.4       3.4
20 H  s               0.0      12.1       1.3       0.7       0.1       2.5

                     12        13        14        15        16        17   
                  -0.53287  -0.49642  -0.44643  -0.42985  -0.39348  -0.37505
                   2.00000   2.00000   2.00000   2.00000   2.00000   2.00000
                  --------  --------  --------  --------  --------  --------
 0 C  s               8.4       1.0       0.6       0.3       0.1       0.0
 0 C  pz              0.8       2.7       0.1       0.1       1.3      16.7
 0 C  px              1.0       0.2       0.0       4.5       0.9       0.0
 0 C  py              2.5       0.8       4.7       0.1       0.1       6.3
 1 C  s               7.1       5.6       1.2       0.0       0.3       0.0
 1 C  pz              1.8       7.9       0.3       0.2       1.2      11.7
 1 C  px              0.2       0.1       4.0       5.3       0.1       0.1
 1 C  py              2.6       0.1       0.1       4.9       2.5       4.7
 2 C  s               0.6       2.5       2.4       0.1       0.1       0.1
 2 C  pz              1.9       3.2       6.4       0.5       3.4       5.4
 2 C  px              9.5       3.7       5.7       0.1       1.4       0.5
 2 C  py              0.0       0.4       3.5      20.9       1.8       2.9
 2 C  dz2             0.1       0.0       0.0       0.0       0.0       0.2
 2 C  dxz             0.0       0.4       0.0       0.0       0.0       0.1
 2 C  dx2y2           0.0       0.0       0.2       0.0       0.0       0.1
 3 H  s               0.2       0.3       8.4       8.1       1.4       0.1
 4 C  s               6.6       3.5       2.4       0.4       0.6       0.0
 4 C  pz              1.0       0.4       3.3       1.6       6.7       0.5
 4 C  px              0.3       0.5       7.5       8.4       1.8       0.1
 4 C  py              5.9       0.7       0.5       3.5       6.4       0.3
 5 C  s               4.6       0.7       0.8       0.7       0.1       0.0
 5 C  pz              0.1       0.1       0.1       3.8      16.5       1.6
 5 C  px              0.0       0.2       1.9       5.3       4.0       1.2
 5 C  py              3.5       1.9       6.1       1.1       0.2       0.0
 6 C  s               2.6       1.8       0.0       0.0       0.4       0.0
 6 C  pz              2.5       2.5       3.8       0.3       9.8       0.0
 6 C  px              0.4       0.7       2.0       4.4       2.5       0.2
 6 C  py              0.8       0.2       0.2       2.1       8.1       6.1
 7 O  s               0.6       0.0       1.0       0.5       0.2       0.1
 7 O  pz              0.1      22.6       5.0       0.8       0.1      10.1
 7 O  px              0.8       1.4       2.8       0.1       2.4       3.4
 7 O  py              0.1       5.2       5.5       3.5       2.5       0.1
 7 O  dxz             0.0       0.2       0.0       0.0       0.0       0.1
 8 H  s               3.4       0.2       0.5       1.6       0.1       3.1
 9 H  s               3.2       1.6       0.0       0.2       0.8       8.5
10 H  s               3.3       0.9       2.5       0.3       0.0       1.4
11 H  s               3.6       5.8       0.1       0.8       1.3       5.9
12 H  s               3.7       2.6       1.8       3.3       0.0       0.4
13 H  s               4.7       3.3       4.2       3.0       1.1       0.0
14 H  s               1.3       0.6       1.1       0.1       8.9       1.8
15 H  s               2.6       0.9       3.1       0.1       1.6       0.2
16 H  s               2.3       0.3       0.1       4.9       0.0       0.1
17 H  s               1.5       1.2       0.7       1.0       0.2       0.6
18 H  s               0.8       0.9       0.8       0.7       8.5       2.3
19 H  s               2.3       1.1       0.9       1.8       0.0       1.3
20 H  s               0.1       8.6       3.3       0.0       0.1       0.9

                     18        19        20        21        22        23   
                  -0.36856  -0.35407  -0.34124  -0.32851  -0.31799  -0.30137
                   2.00000   2.00000   2.00000   2.00000   2.00000   2.00000
                  --------  --------  --------  --------  --------  --------
 0 C  s               0.0       0.1       0.1       0.2       0.0       0.2
 0 C  pz              1.1       2.6       0.4       0.0       5.6      14.3
 0 C  px             17.6       0.1       1.2       2.8      13.4       5.2
 0 C  py              5.1       0.0       0.8      15.6       0.1       0.1
 0 C  dz2             0.1       0.0       0.0       0.0       0.0       0.3
 0 C  dxz             0.1       0.0       0.0       0.1       0.1       0.1
 0 C  dx2y2           0.0       0.0       0.0       0.0       0.2       0.0
 0 C  dxy             0.1       0.0       0.0       0.1       0.2       0.0
 1 C  s               0.1       0.0       0.1       0.4       0.0       0.1
 1 C  pz              0.3       1.3       0.4       5.9       0.1      12.3
 1 C  px             13.3       0.9       3.9       1.5       3.4       1.8
 1 C  py              2.7       0.6       0.0       7.7       0.2       1.0
 1 C  dz2             0.1       0.0       0.0       0.0       0.0       0.2
 1 C  dxz             0.0       0.0       0.0       0.0       0.0       0.1
 1 C  dyz             0.0       0.0       0.0       0.1       0.1       0.0
 1 C  dx2y2           0.0       0.0       0.0       0.0       0.2       0.1
 1 C  dxy             0.0       0.0       0.0       0.0       0.2       0.2
 2 C  s               0.0       0.9       0.0       0.3       1.7       0.0
 2 C  pz              1.8       0.8       0.9       1.6       1.1       0.6
 2 C  px              2.1       0.0       0.4       2.0       0.3       2.2
 2 C  py              0.1       0.0       0.1       0.5       6.6       0.5
 2 C  dz2             0.0       0.0       0.0       0.0       0.0       0.1
 2 C  dxz             0.0       0.4       0.0       0.0       0.0       0.0
 2 C  dxy             0.1       0.0       0.0       0.1       0.0       0.0
 3 H  s               0.0       0.7       0.0       0.2       0.4       0.8
 4 C  s               0.2       0.2       0.0       0.3       0.1       0.1
 4 C  pz              0.0       7.2       0.2       0.1       2.3       0.0
 4 C  px              5.5       0.9       0.2       0.6       3.1       0.0
 4 C  py              0.8       1.7       0.2       1.9       0.5       7.7
 4 C  dz2             0.0       0.0       0.1       0.0       0.1       0.0
 4 C  dxz             0.0       0.0       0.1       0.0       0.0       0.0
 4 C  dyz             0.0       0.0       0.0       0.1       0.1       0.3
 4 C  dx2y2           0.0       0.0       0.0       0.0       0.2       0.0
 4 C  dxy             0.0       0.0       0.0       0.2       0.2       0.0
 5 C  s               0.1       0.1       0.0       0.0       0.0       0.2
 5 C  pz              0.3       1.5       9.4       0.7       0.3       0.2
 5 C  px              2.8       0.1      17.6      12.7       2.3       0.0
 5 C  py              0.8       7.6       3.5       6.0       0.0      10.0
 5 C  dxz             0.0       0.0       0.0       0.3       0.0       0.0
 5 C  dyz             0.0       0.0       0.2       0.0       0.0       0.2
 5 C  dx2y2           0.0       0.0       0.1       0.0       0.0       0.0
 6 C  pz              3.7       1.2       4.3       0.8       3.4       0.1
 6 C  px              5.9      11.2      12.9       0.1       8.0       0.7
 6 C  py              2.3      21.6       0.7       0.3       0.9       2.3
 6 C  dxz             0.0       0.2       0.0       0.0       0.0       0.0
 6 C  dyz             0.0       0.0       0.1       0.0       0.1       0.1
 6 C  dx2y2           0.0       0.2       0.1       0.0       0.1       0.0
 6 C  dxy             0.1       0.0       0.1       0.0       0.1       0.0
 7 O  s               0.3       2.2       0.7       2.1       0.2       0.3
 7 O  pz              0.2       1.4       0.0       0.1       1.9       0.1
 7 O  px              1.5       4.4       2.8      10.9       0.0       0.0
 7 O  py              0.0       1.0       0.3       0.1       2.1       6.8
 8 H  s               5.2       0.5       0.4       2.8      11.4       0.2
 9 H  s               0.3       0.8       0.7       0.2       0.4      11.0
10 H  s               8.0       0.1       0.1       2.8       5.1       0.5
11 H  s               1.2       0.4       1.5       1.0       0.1       8.4
12 H  s               5.7       0.0       1.4       1.0       2.4       0.1
13 H  s               1.2       0.0       0.0       0.0       4.9       2.0
14 H  s               0.3       0.6       0.0       5.6       0.1       0.2
15 H  s               0.0       3.9      11.0       0.6       1.0       3.3
16 H  s               1.8       0.3      10.0       7.7       2.2       0.2
17 H  s               1.9      11.5       5.9       0.0       5.2       1.2
18 H  s               0.1       6.1       0.0       0.0       0.0       2.1
19 H  s               5.1       2.2       6.5       0.4       6.9       0.4
20 H  s               0.0       1.7       0.2       0.8       0.0       0.4

                     24        25        26        27        28        29   
                  -0.29796  -0.28236  -0.28037  -0.25737  -0.21037   0.01891
                   2.00000   2.00000   2.00000   2.00000   2.00000   0.00000
                  --------  --------  --------  --------  --------  --------
 0 C  s               0.0       0.1       0.0       0.0       0.0       1.8
 0 C  pz              2.2       5.1       2.6       0.0       0.4       0.0
 0 C  px              0.7       0.4       0.9       5.3       0.1       0.1
 0 C  py              4.4       7.4       4.1       0.0       0.4       0.0
 0 C  dz2             0.0       0.3       0.0       0.0       0.0       0.0
 0 C  dxz             0.0       0.3       0.0       0.0       0.0       0.0
 0 C  dx2y2           0.0       0.0       0.1       0.1       0.0       0.0
 0 C  dxy             0.1       0.0       0.2       0.1       0.0       0.0
 1 C  s               0.0       0.0       0.0       0.4       0.0       2.1
 1 C  pz              0.5       4.3       1.2       3.3       0.1       0.4
 1 C  px              0.6       1.0       1.4       9.6       0.0       0.0
 1 C  py              6.0       8.4       4.6       0.6       0.2       0.4
 1 C  dz2             0.0       0.2       0.0       0.0       0.0       0.1
 1 C  dxz             0.0       0.4       0.0       0.0       0.0       0.0
 1 C  dyz             0.0       0.0       0.0       0.1       0.0       0.0
 1 C  dxy             0.1       0.0       0.3       0.1       0.1       0.3
 2 C  s               0.0       0.3       0.1       0.1       0.1       1.4
 2 C  pz              0.1       0.7       2.5       0.2       0.7       1.7
 2 C  px              0.6       0.0       0.1      13.7       1.3       0.6
 2 C  py              1.3       5.0       0.7       1.8       4.5       1.9
 2 C  dz2             0.1       0.0       0.2       0.1       0.3       0.3
 2 C  dxz             0.2       0.2       0.0       0.2       0.0       0.1
 2 C  dyz             0.0       0.0       0.1       0.5       0.7       0.0
 2 C  dx2y2           0.0       0.3       0.0       0.0       0.3       0.1
 2 C  dxy             0.0       0.0       0.0       0.1       0.6       0.0
 3 H  s               0.8       1.6       2.1       4.2       7.7       8.4
 4 C  s               0.0       0.0       0.0       0.2       1.0       2.9
 4 C  pz              7.7       0.2      11.0       0.1       0.1       1.4
 4 C  px              1.3       0.1       0.1       8.2       6.2       1.7
 4 C  py              4.2       7.7       0.6       0.4       1.9       1.3
 4 C  dz2             0.1       0.0       0.1       0.1       0.0       0.0
 4 C  dxz             0.1       0.1       0.4       0.0       0.0       0.0
 4 C  dyz             0.1       0.2       0.0       0.2       0.0       0.1
 4 C  dx2y2           0.1       0.1       0.1       0.0       0.1       0.0
 4 C  dxy             0.0       0.0       0.1       0.3       0.0       0.1
 5 C  s               0.1       0.5       0.1       0.0       0.0       2.6
 5 C  pz             13.6       0.2       5.4       0.2       0.8       0.2
 5 C  px              4.0       0.6       0.7       2.4       0.0       0.1
 5 C  py              2.6       5.7       0.0       1.5       0.6       0.2
 5 C  dz2             0.1       0.0       0.0       0.0       0.0       0.0
 5 C  dxz             0.2       0.1       0.0       0.1       0.0       0.0
 5 C  dyz             0.0       0.1       0.1       0.0       0.0       0.0
 5 C  dx2y2           0.1       0.0       0.2       0.0       0.0       0.1
 5 C  dxy             0.0       0.0       0.1       0.1       0.1       0.1
 6 C  s               0.2       0.0       0.6       0.1       0.0       1.9
 6 C  pz              8.3       1.1       8.7       0.2       0.3       1.2
 6 C  px              1.5       0.1       1.2       1.8       0.6       0.3
 6 C  py              7.2       2.6       0.2       0.0       0.0       0.0
 6 C  dz2             0.0       0.0       0.0       0.1       0.0       0.2
 6 C  dyz             0.3       0.2       0.0       0.0       0.0       0.1
 6 C  dx2y2           0.1       0.0       0.0       0.0       0.1       0.0
 7 O  s               0.6       0.2       1.3       2.8       0.0       4.5
 7 O  pz              0.0       4.6       1.3       2.6       7.6       1.4
 7 O  px              4.1       0.6      19.9      12.8      11.2       2.0
 7 O  py              0.0       4.7       0.3       4.7      48.8       0.6
 8 H  s               0.0       1.2       1.2       3.4       0.0       1.4
 9 H  s               0.3       7.3       0.1       0.1       0.1       0.8
10 H  s               1.1       4.5       3.5       1.3       0.1       0.6
11 H  s               0.0       7.6       0.1       0.0       0.0       2.4
12 H  s               1.5       4.4       5.6       2.7       0.7       3.1
13 H  s               0.0       3.1       6.3       5.1       0.1      12.3
14 H  s              10.8       0.3       1.4       0.9       0.3       1.2
15 H  s               0.6       1.1       3.7       0.8       0.1       0.8
16 H  s               0.1       1.1       1.7       1.3       0.6       3.7
17 H  s               0.2       0.0       0.0       1.4       0.7       1.7
18 H  s               9.6       1.1       0.4       0.1       0.2       2.7
19 H  s               0.6       2.2       1.7       0.6       0.0       1.0
20 H  s               0.4       0.1       0.5       2.1       0.0      25.4

                     30        31        32        33        34        35   
                   0.04850   0.06365   0.07114   0.08523   0.09891   0.10799
                   0.00000   0.00000   0.00000   0.00000   0.00000   0.00000
                  --------  --------  --------  --------  --------  --------
 0 C  s               0.9       7.9       0.0       5.3       0.5       2.6
 0 C  pz              0.1       0.3       0.9       0.1       0.7       0.1
 0 C  px              0.1       0.1       1.7       2.3       1.0       5.0
 0 C  py              1.9       0.9       0.4       0.3       0.2       0.9
 0 C  dz2             0.1       0.0       0.0       0.0       0.0       0.1
 0 C  dx2y2           0.0       0.0       0.2       0.4       0.0       0.0
 1 C  s               2.5       0.5       2.5       0.1       4.2       0.2
 1 C  pz              2.2       1.2       1.5       1.0       1.1       0.1
 1 C  px              0.1       0.2       1.9       2.7       0.0       0.4
 1 C  py              0.0       0.0       1.0       3.5       0.0       0.1
 1 C  dz2             0.0       0.1       0.1       0.1       0.0       0.0
 1 C  dxz             0.0       0.0       0.0       0.3       0.1       0.1
 1 C  dyz             0.0       0.4       0.2       0.1       0.0       0.1
 1 C  dxy             0.0       0.0       0.3       0.1       0.0       0.0
 2 C  s               0.1       1.7       1.3       0.1       0.1       1.9
 2 C  pz              0.6       1.5       2.2       0.3       0.4       0.4
 2 C  px              0.2       0.2       0.0       0.1       0.2       0.4
 2 C  py              0.2       1.2       3.8       0.2       2.3       1.4
 2 C  dz2             0.1       0.3       0.1       0.1       0.0       0.0
 2 C  dxz             0.1       0.2       0.0       0.0       0.1       0.0
 2 C  dx2y2           0.0       0.0       0.1       0.6       0.0       0.2
 2 C  dxy             0.0       0.0       0.1       0.0       0.0       0.1
 3 H  s               0.1       3.6      14.9       0.3       4.6       8.0
 4 C  s               0.1       1.5       0.4       0.3       0.4       0.1
 4 C  pz              0.1       1.0       0.4       0.2       0.6       1.2
 4 C  px              0.4       0.6       0.9       0.0       0.4       0.9
 4 C  py              0.1       0.5       0.5       0.7       0.1       0.2
 4 C  dz2             0.0       0.0       0.1       0.0       0.0       0.6
 4 C  dxz             0.1       0.2       0.1       0.1       0.0       0.3
 4 C  dyz             0.1       0.1       0.0       0.1       0.4       0.0
 4 C  dx2y2           0.1       0.0       0.0       0.1       0.1       0.4
 4 C  dxy             0.0       0.2       0.0       0.0       0.5       0.2
 5 C  s               2.3       0.5       5.6       2.9       3.9       1.8
 5 C  pz              0.6       0.7       0.6       0.8       0.0       5.1
 5 C  px              0.2       2.8       0.5       0.8       3.4       1.2
 5 C  py              1.9       0.7       2.3       0.0       0.6       1.3
 5 C  dxz             0.0       0.0       0.0       0.0       0.3       0.6
 5 C  dx2y2           0.0       0.1       0.0       0.0       0.1       0.2
 6 C  s               9.1       2.7       0.0       3.5       0.4       6.9
 6 C  pz              1.3       0.3       0.5       3.2       0.7       0.8
 6 C  px              0.1       2.5       1.5       0.3       0.4       0.9
 6 C  py              0.8       1.7       1.1       0.1       9.9       0.2
 6 C  dz2             0.0       0.1       0.1       0.0       0.0       0.2
 6 C  dxz             0.1       0.0       0.0       0.0       0.1       0.1
 6 C  dyz             0.0       0.0       0.1       0.1       0.3       0.0
 6 C  dx2y2           0.0       0.0       0.1       0.0       0.7       0.0
 7 O  s               2.9       2.7       0.1       0.7       0.0       0.2
 7 O  pz              0.6       0.2       0.3       0.0       0.1       0.0
 7 O  px              2.7       0.5       0.1       0.9       0.0       0.1
 7 O  py              1.4       0.1       0.1       0.7       0.8       0.1
 8 H  s               0.8       4.5       3.9      12.5       1.0      10.0
 9 H  s               0.1       4.2       0.4       4.1       1.4       6.5
10 H  s               3.8       7.2       3.1       0.7       2.0       1.9
11 H  s               6.4       3.5       1.5       7.3       6.8       0.3
12 H  s               1.4       0.3      13.7      10.6       3.0       0.8
13 H  s               0.8       9.7       3.7       1.9       1.9       0.1
14 H  s               0.0       1.1       3.3       2.0       9.4       7.1
15 H  s               6.3       6.6       4.1       0.1       4.3      11.7
16 H  s               2.7       2.4       8.2       6.8       1.1       3.2
17 H  s               6.8       7.4       5.4       0.2       4.3       6.7
18 H  s               3.3       5.7       2.3       3.7      23.1       4.7
19 H  s              12.0       1.9       0.2      10.9       1.1       0.8
20 H  s              21.1       5.1       1.0       5.5       0.5       0.2

                     36        37        38        39        40        41   
                   0.12003   0.12705   0.13263   0.14407   0.14826   0.16295
                   0.00000   0.00000   0.00000   0.00000   0.00000   0.00000
                  --------  --------  --------  --------  --------  --------
 0 C  s               3.0       2.3       0.7       3.9       0.6       0.0
 0 C  pz              0.2       6.0       0.2       5.3       6.7       0.8
 0 C  px              0.8       0.3       0.2       0.8       0.9       1.1
 0 C  py              1.7       0.8       0.9       4.8       0.2       0.6
 0 C  dz2             0.1       0.1       0.0       0.0       0.0       0.2
 0 C  dxz             0.0       0.3       0.0       1.0       0.1       0.0
 0 C  dyz             0.0       0.1       0.0       0.0       0.1       0.1
 0 C  dx2y2           0.0       0.1       0.0       0.0       0.5       0.1
 0 C  dxy             0.1       0.2       0.0       0.3       0.5       0.1
 1 C  s               0.2       3.8       0.4       5.0       4.1       0.8
 1 C  pz              0.1       0.3       0.0       1.0       1.6       0.8
 1 C  px              0.1       3.4       0.0       0.1       3.2       0.9
 1 C  py              0.1       2.6       0.5       1.8       0.6       0.1
 1 C  dz2             0.1       1.0       0.1       0.1       0.0       0.1
 1 C  dxz             0.0       0.0       0.1       0.2       0.0       0.0
 1 C  dyz             0.0       0.0       0.0       0.4       0.6       0.0
 1 C  dx2y2           0.3       0.0       0.0       0.1       0.0       0.1
 1 C  dxy             0.0       0.1       0.0       0.5       0.5       0.1
 2 C  s               0.2       0.1       1.9       0.4       0.2       2.4
 2 C  pz              3.0       3.0       0.7       2.8       0.5       0.6
 2 C  px              1.7       0.1       0.6       0.9       1.6       0.0
 2 C  py              0.1       0.1       0.1       0.6       0.5       3.8
 2 C  dz2             0.4       0.5       0.0       0.4       0.0       0.0
 2 C  dxz             0.6       0.4       0.0       0.3       0.0       0.0
 2 C  dyz             0.2       0.1       0.0       0.0       0.2       0.0
 2 C  dx2y2           0.0       0.0       0.2       0.0       0.0       0.0
 2 C  dxy             0.0       0.2       0.0       0.0       0.5       0.1
 3 H  s               0.7       1.0       3.4       3.2       0.2      13.0
 4 C  s               4.2       0.1       1.5       0.1       2.4       0.4
 4 C  pz              2.3       0.0       2.4       0.3       0.0       0.4
 4 C  px              0.6       0.3       0.5       0.2       0.4       0.4
 4 C  py              1.1       0.1       1.4       0.6       2.3       0.1
 4 C  dz2             0.0       0.0       1.0       0.0       0.0       0.1
 4 C  dxz             0.4       0.4       0.0       0.2       0.2       0.0
 4 C  dyz             0.1       0.0       0.0       0.1       0.4       0.1
 4 C  dx2y2           0.0       0.0       0.0       0.0       0.2       0.0
 4 C  dxy             0.0       0.1       0.0       0.5       0.1       0.0
 5 C  s               5.6       0.0       0.5       1.9       0.1       0.0
 5 C  pz              4.6       0.1       2.1       0.6       0.8       4.7
 5 C  px              2.3       4.5       0.0       2.2       1.1       6.2
 5 C  py              0.7       0.0       0.1       0.3       5.7       0.1
 5 C  dz2             0.2       0.1       0.2       0.0       0.2       0.0
 5 C  dxz             0.1       0.2       0.0       0.2       0.0       0.2
 5 C  dyz             0.1       0.1       0.1       0.0       1.0       0.0
 5 C  dx2y2           0.0       0.1       0.2       0.1       0.2       0.1
 6 C  s               0.0       0.6       0.0       0.7       0.5       0.4
 6 C  pz              0.0       0.5       1.0       0.5       1.7       1.9
 6 C  px              0.1       0.3      14.1       0.9       0.3       0.1
 6 C  py              0.7       0.9       0.0       2.1       2.7       5.6
 6 C  dz2             0.2       0.0       0.1       0.0       0.1       0.0
 6 C  dyz             0.0       0.0       0.0       0.5       0.2       0.1
 6 C  dx2y2           0.0       0.1       0.2       0.0       0.3       0.3
 6 C  dxy             0.0       0.0       0.9       0.1       0.1       0.0
 7 O  s               1.3       0.0       0.1       0.2       0.0       0.3
 7 O  pz              0.9       1.8       0.5       1.1       0.1       0.0
 7 O  px              0.2       0.3       0.0       0.4       1.0       0.2
 7 O  py              0.2       0.1       0.4       0.0       0.1       1.1
 8 H  s               2.1      16.1       2.4       2.7       6.8       0.2
 9 H  s               0.1       3.8       0.1      22.8       8.9       1.0
10 H  s               8.3       1.2       2.0       0.4       4.5       1.4
11 H  s               0.6       1.8       0.5       6.5      14.9       0.8
12 H  s               0.2      21.2       1.0       1.0       1.3       2.8
13 H  s              18.4       0.4      11.7       0.1       1.3       0.8
14 H  s               7.1       3.2       3.4       8.2       0.4      16.9
15 H  s               1.3       1.8       1.0       0.4       6.1       1.5
16 H  s              20.4       7.0       1.2       1.0       0.3       5.0
17 H  s               0.6       3.2      25.9       1.1       0.8       1.2
18 H  s               0.5       0.6       0.1       1.0       0.6      16.5
19 H  s               0.3       0.5      10.1       6.0       6.9       0.3
20 H  s               0.3       1.2       2.8       0.9       0.9       2.7

                     42        43        44        45        46        47   
                   0.16818   0.17942   0.19315   0.20577   0.23616   0.23663
                   0.00000   0.00000   0.00000   0.00000   0.00000   0.00000
                  --------  --------  --------  --------  --------  --------
 0 C  s               0.2       0.2       0.4       0.1       0.0       0.9
 0 C  pz              1.6       2.5       1.1       0.7       0.6       2.3
 0 C  px              2.7       8.9       2.4       0.9       1.0       5.0
 0 C  py              1.5       1.6       1.9       1.2       1.3      14.2
 0 C  dz2             0.1       1.0       0.6       0.1       0.2       0.3
 0 C  dxz             0.0       0.3       0.0       0.0       0.0       0.9
 0 C  dyz             0.4       0.3       0.1       0.5       0.1       1.1
 0 C  dx2y2           0.0       0.0       0.0       0.1       0.0       0.6
 0 C  dxy             0.1       0.5       0.1       0.0       0.1       2.5
 1 C  s               0.0       1.3       0.0       0.5       0.8       2.5
 1 C  pz              2.5       7.2       2.5       2.9       1.1       7.8
 1 C  px              0.5       1.0       2.4       6.9       5.4       2.9
 1 C  py              1.9       4.5       0.8       3.0       2.4       5.7
 1 C  dz2             0.0       0.1       0.1       0.2       0.5       0.1
 1 C  dxz             0.3       0.2       0.9       2.8       1.2       0.0
 1 C  dyz             0.0       0.7       0.1       0.2       1.3       0.5
 1 C  dx2y2           0.6       0.0       0.1       1.0       0.0       0.3
 1 C  dxy             0.0       1.7       0.1       0.2       0.1       1.3
 2 C  s               0.6       0.7       0.9      17.9       0.4       2.0
 2 C  pz              1.3       9.0       0.1       0.1       0.6       7.3
 2 C  px              0.1       0.1       6.2       0.2       9.6       2.7
 2 C  py              2.1       5.8       0.2       9.8       0.2       0.1
 2 C  dz2             0.0       1.8       0.4       0.0       1.1       0.3
 2 C  dxz             1.0       1.1       0.0       0.2       0.3       1.4
 2 C  dyz             0.0       0.2       0.3       0.8       0.1       0.2
 2 C  dx2y2           0.2       0.1       0.5       1.2       0.2       0.2
 2 C  dxy             0.0       0.2       1.3       0.7       0.2       0.2
 3 H  s               0.6       3.6       1.1       1.3       0.3       0.2
 4 C  s               5.8       0.3       6.1       9.1       0.1       0.1
 4 C  pz              3.5       0.1       0.5       4.0       9.8       0.2
 4 C  px              6.4       0.5       1.9       7.3       0.5       0.2
 4 C  py              1.1       1.0       7.8       0.5      10.0       0.1
 4 C  dz2             1.4       0.0       0.4       0.1       0.1       0.1
 4 C  dxz             1.0       0.0       0.1       0.1       0.1       0.6
 4 C  dyz             0.1       0.6       0.5       0.2       0.5       0.1
 4 C  dx2y2           0.3       0.1       1.1       2.2       1.3       0.0
 4 C  dxy             0.1       0.1       0.1       1.0       0.7       0.0
 5 C  s               0.0       0.0       2.0       0.1       0.5       0.4
 5 C  pz              0.4       0.0       8.1       0.6       1.6       0.9
 5 C  px              2.6       0.2       1.2       0.1       0.4       2.6
 5 C  py              1.2       1.5       7.1       0.5      13.2       0.6
 5 C  dz2             0.1       0.0       0.0       0.2       0.5       0.0
[...]
 7 O  s               0.0       0.2       0.0       0.3       0.1       0.0
 7 O  pz              0.0       0.4       0.0       0.1       0.1       0.0
 7 O  dz2             0.5       5.9       1.8       2.2       0.5       4.6
 7 O  dxz             0.2       0.1       3.9       0.1       9.6       6.0
 7 O  dyz             0.6       0.0       0.3       0.6       1.8       2.0
 7 O  dx2y2           0.2       0.1       0.0      13.6      27.3       0.0
 7 O  dxy             0.3       0.0       3.1       1.6       7.9       1.1
 8 H  s               0.6       0.0       0.0       0.3       0.0       0.1
 9 H  s               0.3       0.1       0.2       0.0       0.1       0.0
10 H  s               0.1       0.1       0.1       0.1       0.0       0.0
11 H  s               0.0       0.3       0.4       0.4       0.0       0.0
12 H  s               0.1       0.1       0.1       0.7       0.2       0.0
13 H  s               0.0       0.0       2.9       0.1       0.3       0.0
14 H  s               0.9       0.2       0.0       0.1       0.1       0.0
15 H  s               0.7       1.1       0.1       0.0       0.0       0.1
16 H  s               0.0       1.0       0.3       0.1       0.0       0.0
17 H  s               0.4       0.8       0.1       0.1       0.0       0.1
18 H  s               1.1       0.0       0.0       0.0       0.0       0.2
19 H  s               0.3       1.0       0.2       0.1       0.0       0.0

                    120       121       122       123       124       125   
                   2.59216   2.62242   2.79079   2.88949   2.95406   3.31069
                   0.00000   0.00000   0.00000   0.00000   0.00000   0.00000
                  --------  --------  --------  --------  --------  --------
 0 C  s               0.5       0.0       0.0       0.0       0.1       0.0
 0 C  px              0.5       0.0       0.0       0.0       0.0       0.0
 0 C  py              0.7       0.0       0.0       0.0       0.0       0.0
 0 C  dz2             1.9       0.0       0.0       0.0       0.0       0.0
 0 C  dxz             0.7       0.5       0.0       0.0       0.0       0.0
 0 C  dyz             0.9       0.4       0.1       0.1       0.1       0.0
 0 C  dx2y2           0.4       0.0       0.0       0.0       0.0       0.0
 0 C  dxy             3.4       0.1       0.0       0.0       0.0       0.0
 1 C  s               0.1       0.1       0.0       0.0       0.1       0.1
 1 C  pz              0.1       0.1       0.0       0.1       0.1       0.1
 1 C  px              1.5       0.3       0.1       0.0       0.0       0.0
 1 C  py              1.3       0.1       0.0       0.0       0.0       0.1
 1 C  dz2             0.4       0.5       1.2       0.0       0.8       0.1
 1 C  dxz             8.7       1.2       0.4       0.2       0.0       0.2
 1 C  dyz            12.4       0.0       0.0       0.0       0.3       0.2
 1 C  dx2y2           1.2       1.5       0.8       0.0       0.1       0.0
 1 C  dxy             0.4       0.1       0.9       0.9       0.6       0.0
 2 C  s               0.8       0.3       0.1       0.0       0.1       1.9
 2 C  pz              0.2       0.2       0.1       0.3       0.1       3.3
 2 C  px              1.0       1.3       0.3       0.1       0.2       0.6
 2 C  py              0.5       0.3       0.7       0.3       0.0       0.2
 2 C  dz2             0.1       0.7       0.9       5.8       2.0       6.4
 2 C  dxz             5.6       1.0       2.8       2.8       4.1       6.2
 2 C  dyz             3.5       0.4       9.0       2.1       0.0       0.6
 2 C  dx2y2           7.8       4.3       1.3       0.0       2.2       0.2
 2 C  dxy             3.4      13.1       0.0       3.8       0.0       0.2
 3 H  s               0.7       0.4       0.1       0.0       0.0       0.1
 4 C  pz              0.2       1.0       0.0       0.2       0.0       0.1
 4 C  px              0.2       0.5       0.1       0.4       0.0       0.0
 4 C  py              0.3       1.7       0.0       0.0       0.0       0.0
 4 C  dz2             2.1       0.4       0.2       0.9       0.2       0.3
 4 C  dxz             0.2       0.4       0.0       4.2       1.4       0.0
 4 C  dyz             0.0       6.7       0.4       0.8       1.1       0.0
 4 C  dx2y2           5.5      15.0       0.0       0.1       0.4       0.0
 4 C  dxy             2.0      11.5       0.1       0.2       0.1       0.0
 5 C  s               0.2       1.0       0.0       0.1       0.0       0.0
 5 C  pz              0.1       0.5       0.0       0.0       0.0       0.0
 5 C  py              0.2       1.5       0.0       0.0       0.0       0.0
 5 C  dz2             0.4       0.8       0.0       0.1       0.0       0.0
 5 C  dxz             1.0       0.3       0.0       0.0       0.0       0.0
 5 C  dyz             2.1       3.8       0.0       0.0       0.1       0.0
 5 C  dx2y2           0.3       7.6       0.0       0.0       0.1       0.0
 5 C  dxy             1.3       0.0       0.0       0.0       0.1       0.0
 6 C  s               0.0       0.2       0.0       0.3       0.0       0.1
 6 C  pz              0.1       0.2       0.0       0.3       0.1       0.0
 6 C  dz2             0.4       1.6       0.0       0.9       0.4       0.0
 6 C  dxz             0.4       0.1       0.0       0.6       0.1       0.1
 6 C  dyz             1.3       1.0       0.0       0.0       0.0       0.0
 6 C  dx2y2           0.5       0.0       0.0       0.0       0.0       0.0
 7 O  s               0.1       0.1       0.2       1.1       2.1       4.7
 7 O  pz              0.1       0.0       0.1       0.3       0.0       4.3
 7 O  px              0.0       0.0       0.8       1.2       0.3       0.2
 7 O  py              0.0       0.0       1.2       0.1       0.3       0.5
 7 O  dz2             1.4       1.4       0.0      15.8      15.4      29.9
 7 O  dxz             0.7       2.7       4.5       0.7      22.6      31.3
 7 O  dyz             0.3       0.0       8.2      46.0      18.5       3.7
 7 O  dx2y2           7.5      10.4      23.3       7.0       0.0       0.8
 7 O  dxy            10.9       1.7      40.3       0.1      20.0       2.3
 8 H  s               0.1       0.0       0.0       0.0       0.0       0.0
13 H  s               0.0       0.1       0.0       0.0       0.0       0.0
14 H  s               0.1       0.2       0.0       0.0       0.0       0.0
16 H  s               0.2       0.1       0.0       0.0       0.0       0.0
18 H  s               0.2       0.0       0.0       0.0       0.0       0.0
20 H  s               0.1       0.0       1.0       1.6       5.4       0.7



                      *****************************
                      * MAYER POPULATION ANALYSIS *
                      *****************************

  NA   - Mulliken gross atomic population
  ZA   - Total nuclear charge
  QA   - Mulliken gross atomic charge
  VA   - Mayer's total valence
  BVA  - Mayer's bonded valence
  FA   - Mayer's free valence

  ATOM       NA         ZA         QA         VA         BVA        FA
  0 C      6.2811     6.0000    -0.2811     4.0333     4.0333    -0.0000
  1 C      6.1707     6.0000    -0.1707     4.0975     4.0975     0.0000
  2 C      5.9375     6.0000     0.0625     4.0988     4.0988    -0.0000
  3 H      0.9501     1.0000     0.0499     0.9472     0.9472    -0.0000
  4 C      6.1849     6.0000    -0.1849     4.2175     4.2175    -0.0000
  5 C      6.2421     6.0000    -0.2421     3.9474     3.9474    -0.0000
  6 C      6.2585     6.0000    -0.2585     3.9598     3.9598     0.0000
  7 O      8.4170     8.0000    -0.4170     2.0171     2.0171     0.0000
  8 H      0.9041     1.0000     0.0959     0.9478     0.9478    -0.0000
  9 H      0.8828     1.0000     0.1172     0.9766     0.9766    -0.0000
 10 H      0.9021     1.0000     0.0979     0.9698     0.9698     0.0000
 11 H      0.9135     1.0000     0.0865     0.9618     0.9618    -0.0000
 12 H      0.9151     1.0000     0.0849     0.9484     0.9484    -0.0000
 13 H      0.9467     1.0000     0.0533     0.9472     0.9472     0.0000
 14 H      0.8945     1.0000     0.1055     0.9837     0.9837    -0.0000
 15 H      0.8937     1.0000     0.1063     0.9669     0.9669    -0.0000
 16 H      0.9062     1.0000     0.0938     0.9517     0.9517    -0.0000
 17 H      0.9001     1.0000     0.0999     0.9538     0.9538    -0.0000
 18 H      0.9028     1.0000     0.0972     0.9599     0.9599     0.0000
 19 H      0.8923     1.0000     0.1077     0.9657     0.9657     0.0000
 20 H      0.7043     1.0000     0.2957     0.8884     0.8884     0.0000

  Mayer bond orders larger than 0.100000
B(  0-C ,  1-C ) :   1.1687 B(  0-C ,  8-H ) :   0.9495 B(  0-C ,  9-H ) :   0.9430 
B(  0-C , 10-H ) :   0.9452 B(  1-C ,  2-C ) :   1.0716 B(  1-C , 11-H ) :   0.9216 
B(  1-C , 12-H ) :   0.9147 B(  2-C ,  3-H ) :   0.9004 B(  2-C ,  4-C ) :   1.0293 
B(  2-C ,  7-O ) :   1.0453 B(  4-C ,  5-C ) :   1.1163 B(  4-C ,  6-C ) :   1.1023 
B(  4-C , 13-H ) :   0.8914 B(  5-C , 14-H ) :   0.9359 B(  5-C , 15-H ) :   0.9406 
B(  5-C , 16-H ) :   0.9456 B(  6-C , 17-H ) :   0.9466 B(  6-C , 18-H ) :   0.9479 
B(  6-C , 19-H ) :   0.9412 B(  7-O , 20-H ) :   0.8485 

-------
TIMINGS
-------

Total SCF time: 0 days 0 hours 0 min 7 sec 

Total time                  ....       7.187 sec
Sum of individual times     ....       6.779 sec  ( 94.3%)

SCF preparation             ....       0.155 sec  (  2.2%)
Fock matrix formation       ....       5.913 sec  ( 82.3%)
  Startup                   ....       0.051 sec  (  0.9% of F)
  Split-RI-J                ....       1.942 sec  ( 32.8% of F)
  XC integration            ....       3.536 sec  ( 59.8% of F)
    Basis function eval.    ....       1.042 sec  ( 29.5% of XC)
    Density eval.           ....       0.370 sec  ( 10.5% of XC)
    XC-Functional eval.     ....       0.251 sec  (  7.1% of XC)
    XC-Potential eval.      ....       0.640 sec  ( 18.1% of XC)
Diagonalization             ....       0.000 sec  (  0.0%)
Density matrix formation    ....       0.156 sec  (  2.2%)
Total Energy calculation    ....       0.024 sec  (  0.3%)
Population analysis         ....       0.061 sec  (  0.8%)
Orbital Transformation      ....       0.046 sec  (  0.6%)
Orbital Orthonormalization  ....       0.000 sec  (  0.0%)
DIIS solution               ....       0.352 sec  (  4.9%)
  MO trafo                  ....       0.000 sec  (  0.0 % of DIIS)
  Orb grad                  ....       0.000 sec  (  0.0 % of DIIS)
  Energy W gradient         ....       0.000 sec  (  0.0 % of DIIS)
  DIIS error                ....       0.002 sec  (  0.6 % of DIIS)
  DIIS work                 ....       0.317 sec  ( 90.2 % of DIIS)
  Form Q                    ....       0.000 sec  (  0.0 % of DIIS)
  Form QpQm                 ....       0.000 sec  (  0.0 % of DIIS)
  Exp/Cayley                ....       0.000 sec  (  0.0 % of DIIS)
  Orb update                ....       0.000 sec  (  0.0 % of DIIS)
  Wake-sleep                ....       0.013 sec  (  3.6 % of DIIS)
SOSCF solution              ....       0.072 sec  (  1.0%)
  MO trafo                  ....       0.036 sec  ( 50.5 % of SOSCF)
  Orb grad                  ....       0.001 sec  (  1.6 % of SOSCF)
  Rot update                ....       0.022 sec  ( 30.3 % of SOSCF)
  Step                      ....       0.013 sec  ( 17.5 % of SOSCF)
Finished LeanSCF after   7.2 sec

Maximum memory used throughout the entire LEANSCF-calculation: 12.6 MB


-------------------------------------------------------------------------------
                          DFT DISPERSION CORRECTION                            
                                                                               
                                DFTD4 V3.4.0                                   
-------------------------------------------------------------------------------
The PBE functional is recognized
Active option DFTDOPT                   ...         5   

-------------------------   ----------------
Dispersion correction           -0.017290208
-------------------------   ----------------

------------------   -----------------
gCP correction             0.096727457
------------------   -----------------

-------------------------   --------------------
FINAL SINGLE POINT ENERGY      -311.515168012337
-------------------------   --------------------


------------------------------------------------------------------------------
                              ORCA PROPERTY CALCULATIONS
------------------------------------------------------------------------------

GBWName                                 ... sp.gbw
Number of atoms                         ...     21
Number of basis functions               ...    126
Max core memory                         ...   1024 MB

Electric properties:
Dipole moment                           ... YES
Quadrupole moment                       ...  NO
Static polarizability (Dipole/Dipole)   ...  NO
Static polarizability (Dipole/Quad.)    ...  NO
Static polarizability (Quad./Quad.)     ...  NO
Static polarizability (Velocity)        ...  NO

Atomic electric properties:
Dipole moment                           ...  NO
Quadrupole moment                       ...  NO
Static polarizability                   ...  NO

Choice of electric origin               ... Center of mass
Position of electric origin             ...    -0.000009    -0.000015     0.000015

General magnetic properties:
Magnetizability                         ...  NO

EPR properties:
g-Tensor (aka g-matrix)                 ...  NO
Zero-Field splitting spin-orbit         ...  NO
Zero-field splitting spin-spin          ...  NO
Hyperfine couplings                     ...  NO (   0 nuclei)
Quadrupole couplings                    ...  NO (   0 nuclei)
Contact density                         ...  NO (   0 nuclei)

NMR properties:
Chemical shifts                         ...  NO (   0 nuclei)
Spin-rotation constants                 ...  NO (   0 nuclei)
Spin-spin couplings                     ...  NO (   0 nuclei,    0 pairs)

Choice of magnetic origin               ... GIAO
Position of magnetic origin             ...     0.000000     0.000000     0.000000

Properties with geometric perturbations:
SCF Hessian                             ...  NO
IR spectrum                             ...  NO
VCD spectrum                            ...  NO
X-ray spectroscopy properties:
SCF XES/XAS/RIXS spectra                ...  NO


-------------
DIPOLE MOMENT
-------------

Method             : SCF
Type of density    : Electron Density
Multiplicity       :   1
Irrep              :   0
Energy             :  -311.5946052615949498 Eh
Relativity type    : 
Basis              : AO
                                X                 Y                 Z
Electronic contribution:      1.366938730       3.706903432      -2.610655948
Nuclear contribution   :     -1.892786949      -3.467319796       2.657608686
                        -----------------------------------------
Total Dipole Moment    :     -0.525848219       0.239583636       0.046952739
                        -----------------------------------------
Magnitude (a.u.)       :      0.579759629
Magnitude (Debye)      :      1.473631865



--------------------
Rotational spectrum 
--------------------
 
Rotational constants in cm-1:             0.104031             0.063028             0.059192 
Rotational constants in MHz :          3118.765404          1889.532355          1774.519540 

Dipole components along the rotational axes: 
x,y,z [a.u.] :    -0.513014    -0.185710    -0.196086 
x,y,z [Debye]:    -1.303978    -0.472037    -0.498410 

 

Dipole moment calculation done in   0.0 sec 

Maximum memory used throughout the entire PROP-calculation: 7.9 MB

--------------------------------
SUGGESTED CITATIONS FOR THIS RUN
--------------------------------

Below you find a list of papers that are relevant to this ORCA run
We neither can nor want to force you to cite these papers, but we appreciate if you do
You receive ORCA, which is the product of decades of hard work by many enthusiastic individuals, for free
The only thing we kindly ask in return is that you cite our papers,
We deeply appreciate it, if you show your appreciation for ORCA by not just citing the generic ORCA reference.

Please note that relegating all ORCA citations to the supporting information does *not* help us.
SI sections are not indexed - citations you put there will not count into any citation statistics
But we need these citations in order to attract the funding resources that allow us to do what we are doing

Therefore, if you are a happy ORCA user, please consider citing a few of the papers listed below in the main body of your paper

In addition to the list printed below, the program has created the file sp.bibtex that contains the list in bibtex format
You can import this file easily into all common literature databanks and citation aid programs


List of essential papers. We consider these as the minimum necessary citations

  1. Neese,F.
     Software update: the ORCA program system, version 5.0
     WIRES Comput. Molec. Sci., 2022 12(1)e1606
     doi.org/10.1002/wcms.1606

List of papers to cite with high priority. The work reported in these papers was absolutely
necessary for this run to complete.
Our perspective: the developers of density functionals and basis sets usually get cited in chemistry papers
Good! But without the algorithms to do something with them, the functionals or basis sets would not do anything.
Hence, in our opinion, the algorithm design and method developments papers are equally worthy of getting cited

  1. Neese,F.
     An improvement of the resolution of the identity approximation for the formation of the Coulomb matrix
     J. Comp. Chem., 2003 24(14)1740-1747
     doi.org/10.1002/jcc.10318
  2. Neese,F.
     The SHARK Integral Generation and Digestion System
     J. Comp. Chem., 2022  1-16
     doi.org/10.1002/jcc.26942
  3. Caldeweyher,E.; Bannwarth,C.; Grimme,S.
     Extension of the D3 dispersion coefficient model
     J. Chem. Phys., 2017 147 034112-XXXX
     doi.org/10.1063/1.4993215
  4. Caldeweyher,E.; Ehlert,S.; Hansen,A.; Neugebauer,H.; Spicher,S.; Bannwarth,C.; Grimme,S.
     A generally applicable atomic-charge dependent London dispersion correction
     J. Chem. Phys., 2019 150 154122-XXXX
     doi.org/10.1063/1.5090222
  5. Caldeweyher,E.; Mewes,J.; Ehlert,S.; Grimme,S.
     Extension and evaluation of the D4 London-dispersion model for periodic systems
     Phys. Chem. Chem. Phys., 2020 22(16)8499-8512
     doi.org/10.1039/D0CP00502A

List of suggested additional citations. These are papers that are important in the 'surrounding' of 
of this run, or papers that preceded the highly important papers. If you like your results we are grateful for a citation.

  1. Neese,F.
     The ORCA program system
     WIRES Comput. Molec. Sci., 2012 2(1)73-78
     doi.org/10.1002/wcms.81
  2. Neese,F.
     Software update: the ORCA program system, version 4.0
     WIRES Comput. Molec. Sci., 2018 8(1)1-6
     doi.org/10.1002/wcms.1327
  3. Neese,F.; Wennmohs,F.; Becker,U.; Riplinger,C.
     The ORCA quantum chemistry program package
     J. Chem. Phys., 2020 152 Art. No. L224108
     doi.org/10.1063/5.0004608

List of optional additional citations

  1. Neese,F.
     Approximate second-order SCF convergence for spin unrestricted wavefunctions
     Chem. Phys. Lett., 2000 325(1-3)93-98
     doi.org/10.1016/s0009-2614(00)00662-x

Timings for individual modules:

Sum of individual times          ...        8.898 sec (=   0.148 min)
Startup calculation              ...        0.729 sec (=   0.012 min)   8.2 %
SCF iterations                   ...        8.073 sec (=   0.135 min)  90.7 %
Property calculations            ...        0.096 sec (=   0.002 min)   1.1 %
                             ****ORCA TERMINATED NORMALLY****
TOTAL RUN TIME: 0 days 0 hours 0 minutes 9 seconds 627 msec
