      -----------------------------------------------------------      
     |                   =====================                   |     
     |                           x T B                           |     
     |                   =====================                   |     
     |                         S. Grimme                         |     
     |          Mulliken Center for Theoretical Chemistry        |     
     |                    University of Bonn                     |     
      -----------------------------------------------------------      

   * xtb version 6.7.1 (edcfbbe) compiled by 'albert@albert-system' on 2024-07-22

   xtb is free software: you can redistribute it and/or modify it under
   the terms of the GNU Lesser General Public License as published by
   the Free Software Foundation, either version 3 of the License, or
   (at your option) any later version.
   
   xtb is distributed in the hope that it will be useful,
   but WITHOUT ANY WARRANTY; without even the implied warranty of
   MERCHANTABILITY or FITNESS FOR A PARTICULAR PURPOSE.  See the
   GNU Lesser General Public License for more details.
   
   Cite this work as:
   * C. Bannwarth, E. Caldeweyher, S. Ehlert, A. Hansen, P. Pracht,
     J. Seibert, S. Spicher, S. Grimme, WIREs Comput. Mol. Sci., 2020, 11,
     e01493. DOI: 10.1002/wcms.1493
   
   for GFN2-xTB:
   * C. Bannwarth, S. Ehlert and S. Grimme., J. Chem. Theory Comput., 2019,
     15, 1652-1671. DOI: 10.1021/acs.jctc.8b01176
   for GFN1-xTB:
   * S. Grimme, C. Bannwarth, P. Shushkov, J. Chem. Theory Comput., 2017,
     13, 1989-2009. DOI: 10.1021/acs.jctc.7b00118
   for GFN0-xTB:
   * P. Pracht, E. Caldeweyher, S. Ehlert, S. Grimme, ChemRxiv, 2019, preprint.
     DOI: 10.26434/chemrxiv.8326202.v1
   for GFN-FF:
   * S. Spicher and S. Grimme, Angew. Chem. Int. Ed., 2020, 59, 15665-15673.
     DOI: 10.1002/anie.202004239
   
   for ALPB and GBSA implicit solvation:
   * S. Ehlert, M. Stahn, S. Spicher, S. Grimme, J. Chem. Theory Comput.,
     2021, 17, 4250-4261. DOI: 10.1021/acs.jctc.1c00471
   
   for ddCOSMO and CPCM-X implicit solvation:
   * M. Stahn, S. Ehlert, S. Grimme, J. Phys. Chem. A,
     2023, XX, XXXX-XXXX. DOI: 10.1021/acs.jpca.3c04382
   
   for DFT-D4:
   * E. Caldeweyher, C. Bannwarth and S. Grimme, J. Chem. Phys., 2017,
     147, 034112. DOI: 10.1063/1.4993215
   * E. Caldeweyher, S. Ehlert, A. Hansen, H. Neugebauer, S. Spicher,
     C. Bannwarth and S. Grimme, J. Chem. Phys., 2019, 150, 154122.
     DOI: 10.1063/1.5090222
   * E. Caldeweyher, J.-M. Mewes, S. Ehlert and S. Grimme, Phys. Chem. Chem. Phys.
     2020, 22, 8499-8512. DOI: 10.1039/D0CP00502A
   
   for sTDA-xTB:
   * S. Grimme and C. Bannwarth, J. Chem. Phys., 2016, 145, 054103.
     DOI: 10.1063/1.4959605
   
   in the mass-spec context:
   * V. Asgeirsson, C. Bauer and S. Grimme, Chem. Sci., 2017, 8, 4879.
     DOI: 10.1039/c7sc00601b
   * J. Koopman and S. Grimme, ACS Omega 2019, 4, 12, 15120-15133.
     DOI: 10.1021/acsomega.9b02011
   
   for metadynamics refer to:
   * S. Grimme, J. Chem. Theory Comput., 2019, 155, 2847-2862
     DOI: 10.1021/acs.jctc.9b00143
   
   for SPH calculations refer to:
   * S. Spicher and S. Grimme, J. Chem. Theory Comput., 2021, 17, 1701-1714
     DOI: 10.1021/acs.jctc.0c01306
   
   for ONIOM refer to:
   * C. Plett, A. Katbashev, S. Ehlert, S. Grimme, M. Bursch,
     Phys. Chem. Chem. Phys., 2023, 25, 17860-17868. DOI: 10.1039/D3CP02178E
   
   for DIPRO refer to:
   * J. Kohn, N. Gildemeister, S. Grimme, D. Fazzi, A. Hansen,
     J. Chem. Phys., 2023, just accepted.
   
   for PTB refer to:
   * S. Grimme, M. Mueller, A. Hansen, J. Chem. Phys., 2023, 158, 124111.
     DOI: 10.1063/5.0137838
   
   with help from (in alphabetical order)
   P. Atkinson, C. Bannwarth, F. Bohle, G. Brandenburg, E. Caldeweyher
   M. Checinski, S. Dohm, S. Ehlert, S. Ehrlich, I. Gerasimov, C. Hölzer
   A. Katbashev, J. Kohn, J. Koopman, C. Lavigne, S. Lehtola, F. März, M. Müller,
   F. Musil, H. Neugebauer, J. Pisarek, C. Plett, P. Pracht, F. Pultar,
   J. Seibert, P. Shushkov, S. Spicher, M. Stahn, M. Steiner, T. Strunk,
   J. Stückrath, T. Rose, and J. Unsleber
   
 * started run on 2025/04/11 at 11:24:30.939     
   ID    Z sym.   atoms
    1    6 C      1-8
    2    1 H      9-26

           -------------------------------------------------
          |                Calculation Setup                |
           -------------------------------------------------

          program call               : /srv/scratch/z5358697/.xtb/bin/xtb xtb_opt.coord --opt normal --orca -I xtb_opt-xcontrol-inp
          hostname                   : k121
          coordinate file            : xtb_opt.coord
          omp threads                :                    14

           -------------------------------------------------
          |                   Orca driver                   |
           -------------------------------------------------
orca executable           : /apps/z_install_tree/linux-rocky8-ivybridge/gcc-12.2.0/orca-6.0.0-srtngmq3qlimg2qxbl6avaaiffipurdx/bin/orca
orca input file           : xtb_opt.inp
orca input line           : 
orca parallel             : true
orca number of threads    : 14
                         * ORCA takes the control...
  ------------------------------------------------------------------------

                                 *****************
                                 * O   R   C   A *
                                 *****************

                                            #,                                       
                                            ###                                      
                                            ####                                     
                                            #####                                    
                                            ######                                   
                                           ########,                                 
                                     ,,################,,,,,                         
                               ,,#################################,,                 
                          ,,##########################################,,             
                       ,#########################################, ''#####,          
                    ,#############################################,,   '####,        
                  ,##################################################,,,,####,       
                ,###########''''           ''''###############################       
              ,#####''   ,,,,##########,,,,          '''####'''          '####       
            ,##' ,,,,###########################,,,                        '##       
           ' ,,###''''                  '''############,,,                           
         ,,##''                                '''############,,,,        ,,,,,,###''
      ,#''                                            '''#######################'''  
     '                                                          ''''####''''         
             ,#######,   #######,   ,#######,      ##                                
            ,#'     '#,  ##    ##  ,#'     '#,    #''#        ,####,   ,####,        
            ##       ##  ##   ,#'  ##            #'  '#       #'       #'  '#        
            ##       ##  #######   ##           ,######,      #####,   #    #        
            '#,     ,#'  ##    ##  '#,     ,#' ,#      #,     #,   #   #,  ,#        
             '#######'   ##     ##  '#######'  #'      '#     '####' # '####'        



                #########################################################
                #                        -***-                          #
                #          Department of theory and spectroscopy        #
                #                                                       #
                #                      Frank Neese                      #
                #                                                       #
                #     Directorship, Architecture, Infrastructure        #
                #                    SHARK, DRIVERS                     #
                #        Core code/Algorithms in most modules           #
                #                                                       #
                #        Max Planck Institute fuer Kohlenforschung      #
                #                Kaiser Wilhelm Platz 1                 #
                #                 D-45470 Muelheim/Ruhr                 #
                #                      Germany                          #
                #                                                       #
                #                  All rights reserved                  #
                #                        -***-                          #
                #########################################################


                         Program Version 6.0.0  -   RELEASE  -


 With contributions from (in alphabetic order):
   Daniel Aravena         : Magnetic Suceptibility
   Michael Atanasov       : Ab Initio Ligand Field Theory (pilot matlab implementation)
   Alexander A. Auer      : GIAO ZORA, VPT2 properties, NMR spectrum
   Ute Becker             : All parallelization in ORCA, NUMFREQ, NUMCALC
   Giovanni Bistoni       : ED, misc. LED, open-shell LED, HFLD
   Martin Brehm           : Molecular dynamics
   Dmytro Bykov           : pre 5.0 version of the SCF Hessian
   Marcos Casanova-Páez   : Triplet and SCS-CIS(D). UHF-(DLPNO)-IP/EA/STEOM-CCSD. UHF-CVS-IP/STEOM-CCSD
   Vijay G. Chilkuri      : MRCI spin determinant printing, contributions to CSF-ICE
   Pauline Colinet        : FMM embedding
   Dipayan Datta          : RHF DLPNO-CCSD density
   Achintya Kumar Dutta   : EOM-CC, STEOM-CC
   Nicolas Foglia         : Exact transition moments, OPA infrastructure, MCD improvements
   Dmitry Ganyushin       : Spin-Orbit,Spin-Spin,Magnetic field MRCI
   Miquel Garcia          : C-PCM and meta-GGA Hessian, CCSD/C-PCM, Gaussian charge scheme
   Tiago L. C. Gouveia    : GS-ROHF, GS-ROCIS
   Yang Guo               : DLPNO-NEVPT2, F12-NEVPT2, CIM, IAO-localization
   Andreas Hansen         : Spin unrestricted coupled pair/coupled cluster methods
   Ingolf Harden          : AUTO-CI MPn and infrastructure 
   Benjamin Helmich-Paris : MC-RPA, TRAH-(SCF,CASSCF), AVAS, COSX integrals, SCF dyn. polar.
   Lee Huntington         : MR-EOM, pCC
   Robert Izsak           : Overlap fitted RIJCOSX, COSX-SCS-MP3, EOM
   Riya Kayal             : Wick's Theorem for AUTO-CI, AUTO-CI UHF-CCSDT
   Emily Kempfer          : AUTO-CI, RHF CISDT and CCSDT
   Christian Kollmar      : KDIIS, OOCD, Brueckner-CCSD(T), CCSD density, CASPT2, CASPT2-K, improved NEVPT2
   Axel Koslowski         : Symmetry handling
   Simone Kossmann        : Meta GGA functionals, TD-DFT gradient, OOMP2, (MP2 Hessian; deprecated post 5.0)
   Lucas Lang             : DCDCAS
   Marvin Lechner         : AUTO-CI (C++ implementation), FIC-MRCC
   Spencer Leger          : CASSCF response
   Dagmar Lenk            : GEPOL surface, SMD, ORCA-2-JSON
   Dimitrios Liakos       : Extrapolation schemes; Compound Job, initial MDCI parallelization
   Dimitrios Manganas     : Further ROCIS development; embedding schemes. LFT, Crystal Embedding
   Dimitrios Pantazis     : SARC Basis sets
   Anastasios Papadopoulos: AUTO-CI, single reference methods and gradients
   Taras Petrenko         : pre 6.0 DFT Hessian and TD-DFT gradient, (ASA, deprecated), ECA, 1-Electron XAS/XES, NRVS
   Peter Pinski           : DLPNO-MP2, DLPNO-MP2 Gradient
   Christoph Reimann      : Effective Core Potentials
   Marius Retegan         : Local ZFS, SOC
   Christoph Riplinger    : Optimizer, TS searches, QM/MM, DLPNO-CCSD(T), (RO)-DLPNO pert. Triples
   Michael Roemelt        : Original ROCIS implementation
   Masaaki Saitow         : Open-shell DLPNO-CCSD energy and density
   Barbara Sandhoefer     : DKH picture change effects
   Kantharuban Sivalingam : CASSCF convergence/infrastructure, NEVPT2 and variants, FIC-MRCI
   Bernardo de Souza      : ESD, SOC TD-DFT
   Georgi Stoychev        : AutoAux, RI-MP2 NMR, DLPNO-MP2 response, X2C
   Van Anh Tran           : RI-MP2 g-tensors
   Willem Van den Heuvel  : Paramagnetic NMR
   Zikuan Wang            : NOTCH, Electric field optimization 
   Frank Wennmohs         : Technical directorship and infrastructure
   Hang Xu                : AUTO-CI-Response properties 


 We gratefully acknowledge several colleagues who have allowed us to
 interface, adapt or use parts of their codes:
   Stefan Grimme, W. Hujo, H. Kruse, P. Pracht,  : VdW corrections, initial TS optimization,
                  C. Bannwarth, S. Ehlert,         DFT functionals, gCP, sTDA/sTD-DF
                  L. Wittmann, M. Mueller
   Ed Valeev, F. Pavosevic, A. Kumar             : LibInt (2-el integral package), F12 methods
   Garnet Chan, S. Sharma, J. Yang, R. Olivares  : DMRG
   Ulf Ekstrom                                   : XCFun DFT Library
   Mihaly Kallay                                 : mrcc  (arbitrary order and MRCC methods)
   Frank Weinhold                                : gennbo (NPA and NBO analysis)
   Simon Mueller                                 : openCOSMO-RS
   Christopher J. Cramer and Donald G. Truhlar   : smd solvation model
   Lars Goerigk                                  : TD-DFT with DH, B97 family of functionals
   V. Asgeirsson, H. Jonsson                     : NEB implementation
   FAccTs GmbH                                   : IRC, NEB, NEB-TS, DLPNO-Multilevel, CI-OPT
                                                   MM, QMMM, 2- and 3-layer-ONIOM, Crystal-QMMM,
                                                   LR-CPCM, SF, NACMEs, symmetry and pop. for TD-DFT,
                                                   nearIR, NL-DFT gradient (VV10), updates on ESD,
                                                   ML-optimized integration grids, MBIS, APM,
                                                   GOAT, DOCKER, SOLVATOR, interface openCOSMO-RS
   S Lehtola, MJT Oliveira, MAL Marques          : LibXC Library
   Liviu Ungur et al                             : ANISO software


 Your calculation uses the libint2 library for the computation of 2-el integrals
 For citations please refer to: http://libint.valeyev.net

 Your ORCA version has been built with support for libXC version: 6.2.2
 For citations please refer to: https://libxc.gitlab.io

 This ORCA versions uses:
   CBLAS   interface :  Fast vector & matrix operations
   LAPACKE interface :  Fast linear algebra routines
   SCALAPACK package :  Parallel linear algebra routines
   Shared memory     :  Shared parallel matrices
   BLAS/LAPACK       :  OpenBLAS 0.3.27  USE64BITINT DYNAMIC_ARCH NO_AFFINITY SkylakeX SINGLE_THREADED
        Core in use  :  SkylakeX
   Copyright (c) 2011-2014, The OpenBLAS Project




***************************************
The coordinates will be read from file: xtb_opt.xyz
***************************************


Your calculation utilizes the geometrical counterpoise correction gCP
Please cite in your paper:
H.Kruse, S. Grimme J.Chem.Phys., 136, (2012), 154101 
   

Your calculation utilizes the atom-pairwise dispersion correction
based on EEQ partial charges (D4)


Your calculation utilizes the SMD solvation module
Please cite in your paper:
A.V. Marenich, C.J. Cramer, D.G. Truhlar J. Phys. Chem. B, 113, (2009), 6378 

================================================================================

----- Orbital basis set information -----
Your calculation utilizes the basis: def2-mTZVPP
   Stefan Grimme, Andreas Hansen, Sebastian Ehlert, and Jan-Michael Mewes 
   J. Chem. Phys. 154, 064103 (2021). DOI: 10.1063/5.0040021

----- AuxJ basis set information -----
Your calculation utilizes the auxiliary basis: def2/J
   F. Weigend, Phys. Chem. Chem. Phys. 8, 1057 (2006).

================================================================================
                                        WARNINGS
                       Please study these warnings very carefully!
================================================================================

Using LibXC functional ID 497 : Re-regularized SCAN exchange by Furness et al
[ 1]  J. W. Furness, A. D. Kaplan, J. Ning, J. P. Perdew, and J. Sun.,  J. Phys. Chem. Lett. 11, 8208-8215 (2020)
[ 2]  J. W. Furness, A. D. Kaplan, J. Ning, J. P. Perdew, and J. Sun.,  J. Phys. Chem. Lett. 11, 9248-9248 (2020)
Using LibXC functional ID 498 : Re-regularized SCAN correlation by Furness et al
[ 1]  J. W. Furness, A. D. Kaplan, J. Ning, J. P. Perdew, and J. Sun.,  J. Phys. Chem. Lett. 11, 8208-8215 (2020)
[ 2]  J. W. Furness, A. D. Kaplan, J. Ning, J. P. Perdew, and J. Sun.,  J. Phys. Chem. Lett. 11, 9248-9248 (2020)
Using LibXC functional ID 497 : Re-regularized SCAN exchange by Furness et al
[ 1]  J. W. Furness, A. D. Kaplan, J. Ning, J. P. Perdew, and J. Sun.,  J. Phys. Chem. Lett. 11, 8208-8215 (2020)
[ 2]  J. W. Furness, A. D. Kaplan, J. Ning, J. P. Perdew, and J. Sun.,  J. Phys. Chem. Lett. 11, 9248-9248 (2020)
Using LibXC functional ID 498 : Re-regularized SCAN correlation by Furness et al
[ 1]  J. W. Furness, A. D. Kaplan, J. Ning, J. P. Perdew, and J. Sun.,  J. Phys. Chem. Lett. 11, 8208-8215 (2020)
[ 2]  J. W. Furness, A. D. Kaplan, J. Ning, J. P. Perdew, and J. Sun.,  J. Phys. Chem. Lett. 11, 9248-9248 (2020)

================================================================================
                                       INPUT FILE
================================================================================
NAME = xtb_opt.inp
|  1> ! r2scan-3c def2/J RI DEFGRID2 scfconv7 ENGRAD tightSCF miniprint
|  2> %cpcm
|  3>     smd true
|  4>     smdsolvent "water"
|  5> end
|  6> * xyzfile 0 1 xtb_opt.xyz
|  7> 
|  8>                          ****END OF INPUT****
================================================================================

                     *******************************
                     * Energy+Gradient Calculation *
                     *******************************

---------------------------------
CARTESIAN COORDINATES (ANGSTROEM)
---------------------------------
  C     -2.457791    0.263325    0.627531
  C     -1.150059   -0.334228    0.097160
  C     -1.354293   -0.674953   -1.379695
  C      0.034630    0.628824    0.329000
  C      0.106394    1.042463    1.804379
  C      1.429029    0.102593   -0.101944
  C      1.665150   -1.369829    0.230503
  C      1.762108    0.384020   -1.568717
  H     -2.618414    1.256491    0.212922
  H     -3.295912   -0.365786    0.335288
  H     -2.460161    0.330872    1.710964
  H     -0.960510   -1.261591    0.646380
  H     -0.548789   -1.288931   -1.768816
  H     -1.420667    0.233823   -1.973711
  H     -2.280541   -1.232372   -1.506022
  H     -0.161323    1.535067   -0.257034
  H     -0.766278    1.617267    2.097633
  H      0.981454    1.664519    1.979847
  H      0.176327    0.166619    2.445694
  H      2.157545    0.678082    0.482641
  H      1.441200   -1.569997    1.275186
  H      1.055069   -2.022379   -0.387553
  H      2.709148   -1.621235    0.054763
  H      1.161265   -0.210293   -2.248335
  H      2.808872    0.151761   -1.755854
  H      1.602626    1.435022   -1.799419

----------------------------
CARTESIAN COORDINATES (A.U.)
----------------------------
  NO LB      ZA    FRAG     MASS         X           Y           Z
   0 C     6.0000    0    12.011   -4.644551    0.497612    1.185861
   1 C     6.0000    0    12.011   -2.173297   -0.631599    0.183606
   2 C     6.0000    0    12.011   -2.559243   -1.275477   -2.607245
   3 C     6.0000    0    12.011    0.065441    1.188305    0.621720
   4 C     6.0000    0    12.011    0.201055    1.969969    3.409782
   5 C     6.0000    0    12.011    2.700473    0.193873   -0.192647
   6 C     6.0000    0    12.011    3.146678   -2.588602    0.435588
   7 C     6.0000    0    12.011    3.329901    0.725692   -2.964446
   8 H     1.0000    0     1.008   -4.948086    2.374424    0.402365
   9 H     1.0000    0     1.008   -6.228370   -0.691236    0.633602
  10 H     1.0000    0     1.008   -4.649030    0.625258    3.233253
  11 H     1.0000    0     1.008   -1.815100   -2.384061    1.221481
  12 H     1.0000    0     1.008   -1.037061   -2.435726   -3.342577
  13 H     1.0000    0     1.008   -2.684671    0.441861   -3.729773
  14 H     1.0000    0     1.008   -4.309597   -2.328845   -2.845968
  15 H     1.0000    0     1.008   -0.304856    2.900856   -0.485724
  16 H     1.0000    0     1.008   -1.448055    3.056192    3.963953
  17 H     1.0000    0     1.008    1.854680    3.145486    3.741368
  18 H     1.0000    0     1.008    0.333210    0.314864    4.621693
  19 H     1.0000    0     1.008    4.077169    1.281390    0.912059
  20 H     1.0000    0     1.008    2.723474   -2.966865    2.409753
  21 H     1.0000    0     1.008    1.993792   -3.821742   -0.732368
  22 H     1.0000    0     1.008    5.119548   -3.063689    0.103488
  23 H     1.0000    0     1.008    2.194473   -0.397396   -4.248737
  24 H     1.0000    0     1.008    5.307999    0.286786   -3.318083
  25 H     1.0000    0     1.008    3.028525    2.711799   -3.400410

------------------------------------------------------------------------------
                   ___                                                        
                  /   \      - P O W E R E D   B Y -                         
                 /     \                                                     
                 |  |  |   _    _      __       _____    __    __             
                 |  |  |  | |  | |    /  \     |  _  \  |  |  /  |          
                  \  \/   | |  | |   /    \    | | | |  |  | /  /          
                 / \  \   | |__| |  /  /\  \   | |_| |  |  |/  /          
                |  |  |   |  __  | /  /__\  \  |    /   |      \           
                |  |  |   | |  | | |   __   |  |    \   |  |\   \          
                \     /   | |  | | |  |  |  |  | |\  \  |  | \   \       
                 \___/    |_|  |_| |__|  |__|  |_| \__\ |__|  \__/        
                                                                              
                      - O R C A' S   B I G   F R I E N D -                    
                                      &                                       
                       - I N T E G R A L  F E E D E R -                       
                                                                              
 v1 FN, 2020, v2 2021, v3 2022-2024                                           
------------------------------------------------------------------------------


----------------------
SHARK INTEGRAL PACKAGE
----------------------

Number of atoms                             ...     26
Number of basis functions                   ...    242
Number of shells                            ...    126
Maximum angular momentum                    ...      2
Integral batch strategy                     ... SHARK/LIBINT Hybrid
RI-J (if used) integral strategy            ... SPLIT-RIJ (Revised 2003 algorithm where possible)
Printlevel                                  ...      1
Contraction scheme used                     ... SEGMENTED contraction
Prescreening option                         ... SCHWARTZ
   Thresh                                   ... 3.000e-11
   Tcut                                     ... 1.000e-12
   Tpresel                                  ... 1.000e-12 
Coulomb Range Separation                    ... NOT USED
Exchange Range Separation                   ... NOT USED
Multipole approximations                    ... NOT USED
Finite Nucleus Model                        ... NOT USED
CABS basis                                  ... NOT available
Auxiliary Coulomb fitting basis             ... AVAILABLE
   # of basis functions in Aux-J            ...    590
   # of shells in Aux-J                     ...    210
   Maximum angular momentum in Aux-J        ...      4
Auxiliary J/K fitting basis                 ... NOT available
Auxiliary Correlation fitting basis         ... NOT available
Auxiliary 'external' fitting basis          ... NOT available

Checking pre-screening integrals            ... done (  0.0 sec) Dimension = 126
Check shell pair data                       ... done (  0.0 sec)
Shell pair information
Shell pair cut-off parameter TPreSel        ...   1.0e-12
Total number of shell pairs                 ...      8001
Shell pairs after pre-screening             ...      7382
Total number of primitive shell pairs       ...     27725
Primitive shell pairs kept                  ...     18322
          la=0 lb=0:   2691 shell pairs
          la=1 lb=0:   2929 shell pairs
          la=1 lb=1:    830 shell pairs
          la=2 lb=0:    578 shell pairs
          la=2 lb=1:    318 shell pairs
          la=2 lb=2:     36 shell pairs

Calculating one electron integrals          ... done (  0.0 sec)
Calculating RI/J V-Matrix + Cholesky decomp.... done (  0.1 sec)
Calculating Nuclear repulsion               ... done (  0.0 sec) ENN=    424.729017789771 Eh

Diagonalization of the overlap matrix:
Smallest eigenvalue                        ... 1.230e-04
Time for diagonalization                   ...    0.006 sec
Threshold for overlap eigenvalues          ... 1.000e-07
Number of eigenvalues below threshold      ... 0
Time for construction of square roots      ...    0.017 sec
Total time needed                          ...    0.043 sec

-------------------
DFT GRID GENERATION
-------------------

General Integration Accuracy     IntAcc      ... 4.388
Radial Grid Type                 RadialGrid  ... OptM3 with GC (2021)
Angular Grid (max. ang.)         AngularGrid ... 4 (Lebedev-302)
Angular grid pruning method      GridPruning ... 4 (adaptive)
Weight generation scheme         WeightScheme... mBecke (2022)
Basis function cutoff            BFCut       ... 1.0000e-11
Integration weight cutoff        WCut        ... 1.0000e-14
Partially contracted basis set               ... off
Rotationally invariant grid construction     ... off
Angular grids for H and He will be reduced by one unit

Total number of grid points                  ...   104752
Total number of batches                      ...     1651
Average number of points per batch           ...       63
Average number of grid points per atom       ...     4029
Initializing property integral containers    ... done (  0.0 sec)

SHARK setup successfully completed in   1.6 seconds

Maximum memory used throughout the entire STARTUP-calculation: 45.1 MB
Occupation numbers will be reassigned to an Aufbau configuration
             **** ENERGY FILE WAS UPDATED (xtb_opt.en.tmp) ****
Finished Guess after   0.3 sec
Maximum memory used throughout the entire GUESS-calculation: 17.7 MB
--------------------
CPCM SOLVATION MODEL
--------------------
CPCM parameters:
  Epsilon                                         ...      78.3550
  Refrac                                          ...       1.3328
  Rsolv                                           ...       1.3000
  Surface type                                    ... GAUSSIAN VDW
  Discretization scheme                           ... Constant charge density
    Threshold for H atoms                         ...       5.0000 (charges/Ang^2)
    Threshold for non-H atoms                     ...       5.0000 (charges/Ang^2)
  Epsilon function type                           ...         CPCM
Solvent:                                          ... WATER
SMD-CDS solvent descriptors:
  Soln                                            ...       1.3328
  Soln25                                          ...       1.3323
  Sola                                            ...       0.0000
  Solb                                            ...       0.0000
  Solg                                            ...       0.0000
  Solc                                            ...       0.0000
  Solh                                            ...       0.0000
Radii:
  Scheme                                          ... Element-dependent radii
  Radius for C  used is    3.4960 Bohr (=   1.8500 Ang.)
  Radius for H  used is    2.2677 Bohr (=   1.2000 Ang.)
Calculating surface                               ...        done! (  0.0s)
Cavity surface points                             ...         1848
Cavity Volume                                     ...    1027.7949
Cavity Surface-area                               ...     639.7329
Calculating surface distance matrix               ...        done! (  0.0s)
Performing Cholesky decomposition & store         ...        done! (  0.2s)
Overall time for CPCM initialization              ...                 0.2s

----------------------------------------D-I-I-S--------------------------------------------
Iteration    Energy (Eh)           Delta-E    RMSDP     MaxDP     DIISErr   Damp  Time(sec)
-------------------------------------------------------------------------------------------
               ***  Starting incremental Fock matrix formation  ***
                              *** Initializing SOSCF ***
---------------------------------------S-O-S-C-F--------------------------------------
Iteration    Energy (Eh)           Delta-E    RMSDP     MaxDP     MaxGrad    Time(sec)
--------------------------------------------------------------------------------------
    1    -315.5889982617874239     0.00e+00  1.05e-05  3.22e-04  1.54e-05     4.9
               *** Restarting incremental Fock matrix formation ***
    2    -315.5889983450150567    -8.32e-08  1.22e-05  3.37e-04  3.99e-05     4.7
    3    -315.5889980838422844     2.61e-07  7.59e-06  1.77e-04  6.12e-05     3.7
    4    -315.5889985384582133    -4.55e-07  3.44e-07  1.62e-05  6.97e-07     3.6
                  *** Gradient check signals convergence ***

               *****************************************************
               *                     SUCCESS                       *
               *           SCF CONVERGED AFTER   4 CYCLES          *
               *****************************************************


SMD CDS free energy correction energy :                 4.38014     Kcal/mol
Total Energy after SMD CDS correction =              -315.582018337 Eh
             **** ENERGY FILE WAS UPDATED (xtb_opt.en.tmp) ****

----------------
TOTAL SCF ENERGY
----------------

Total Energy       :       -315.58201833687951 Eh           -8587.42330 eV

Components:
Nuclear Repulsion  :        424.72901778977109 Eh           11557.46414 eV
Electronic Energy  :       -740.31495168301853 Eh          -20144.99399 eV
One Electron Energy:      -1265.47537793532933 Eh          -34435.33569 eV
Two Electron Energy:        525.16042625231080 Eh           14290.34171 eV
CPCM Dielectric    :         -0.00306464521075 Eh              -0.08339 eV
SMD CDS (Gcds)     :          0.00698020157869 Eh               0.18994 eV

Virial components:
Potential Energy   :       -629.66026063742152 Eh          -17133.92676 eV
Kinetic Energy     :        314.07824230054200 Eh            8546.50347 eV
Virial Ratio       :          2.00478790261090

DFT components:
N(Alpha)           :       32.999992410973 electrons
N(Beta)            :       32.999992410973 electrons
N(Total)           :       65.999984821946 electrons
E(X)               :      -48.058255536379 Eh       
E(C)               :       -2.034844467428 Eh       
E(XC)              :      -50.093100003807 Eh       

CPCM Solvation Model Properties:
Surface-charge          :         -0.05414515196382
Corrected charge        :          0.00000000000000
Outlying charge corr.   :          0.00021791708377 Eh               0.00593 eV
Free-energy (cav+disp)  :          0.00698020157869 Eh               0.18994 eV

---------------
SCF CONVERGENCE
---------------

  Last Energy change         ...    4.5462e-07  Tolerance :   1.0000e-07
  Last MAX-Density change    ...    1.6239e-05  Tolerance :   1.0000e-07
  Last RMS-Density change    ...    3.4440e-07  Tolerance :   5.0000e-09
  Last DIIS Error            ...    2.0981e-04  Tolerance :   1.0000e-07
  Last Orbital Gradient      ...    6.9696e-07  Tolerance :   1.0000e-04
  Last Orbital Rotation      ...    1.0415e-06  Tolerance :   1.0000e-04


----------------
ORBITAL ENERGIES
----------------

  NO   OCC          E(Eh)            E(eV) 
   0   2.0000     -10.021982      -272.7120 
   1   2.0000     -10.021233      -272.6916 
   2   2.0000     -10.019526      -272.6452 
   3   2.0000     -10.004449      -272.2349 
   4   2.0000     -10.003766      -272.2163 
   5   2.0000     -10.003058      -272.1970 
   6   2.0000     -10.002886      -272.1924 
   7   2.0000     -10.002766      -272.1891 
   8   2.0000      -0.785051       -21.3623 
   9   2.0000      -0.733122       -19.9493 
  10   2.0000      -0.684845       -18.6356 
  11   2.0000      -0.640501       -17.4289 
  12   2.0000      -0.636232       -17.3128 
  13   2.0000      -0.585350       -15.9282 
  14   2.0000      -0.539889       -14.6911 
  15   2.0000      -0.494001       -13.4424 
  16   2.0000      -0.429538       -11.6883 
  17   2.0000      -0.415259       -11.2998 
  18   2.0000      -0.401014       -10.9121 
  19   2.0000      -0.391389       -10.6502 
  20   2.0000      -0.374188       -10.1822 
  21   2.0000      -0.360446        -9.8082 
  22   2.0000      -0.348968        -9.4959 
  23   2.0000      -0.347406        -9.4534 
  24   2.0000      -0.338192        -9.2027 
  25   2.0000      -0.335105        -9.1187 
  26   2.0000      -0.313599        -8.5335 
  27   2.0000      -0.306847        -8.3497 
  28   2.0000      -0.292827        -7.9682 
  29   2.0000      -0.289607        -7.8806 
  30   2.0000      -0.269124        -7.3232 
  31   2.0000      -0.263326        -7.1655 
  32   2.0000      -0.256548        -6.9810 
  33   0.0000       0.084488         2.2990 
  34   0.0000       0.113635         3.0922 
  35   0.0000       0.115981         3.1560 
  36   0.0000       0.119067         3.2400 
  37   0.0000       0.126645         3.4462 
  38   0.0000       0.131172         3.5694 
  39   0.0000       0.142696         3.8829 
  40   0.0000       0.148588         4.0433 
  41   0.0000       0.155275         4.2253 
  42   0.0000       0.159201         4.3321 
  43   0.0000       0.166967         4.5434 
*Only the first 10 virtual orbitals were printed.
Total SCF time: 0 days 0 hours 0 min 17 sec 
Finished LeanSCF after  17.8 sec

Maximum memory used throughout the entire LEANSCF-calculation: 42.0 MB


-------------------------------------------------------------------------------
                          DFT DISPERSION CORRECTION                            
                                                                               
                                DFTD4 V3.4.0                                   
-------------------------------------------------------------------------------
-------------------------   ----------------
Dispersion correction           -0.008187680
-------------------------   ----------------

------------------   -----------------
gCP correction             0.013055931
------------------   -----------------

-------------------------   --------------------
FINAL SINGLE POINT ENERGY      -315.577150086085
-------------------------   --------------------

------------------------------------------------------------------------------
                         ORCA SCF GRADIENT CALCULATION
------------------------------------------------------------------------------

Nuc. rep. gradient        (SHARK) ... done (  0.0 sec)
HCore & Overlap gradient  (SHARK) ... done (  0.5 sec)
Split-RIJ-J gradient      (SHARK) ... done (  2.2 sec)
XC gradient                       ... done ( 11.0 sec)
CPCM gradient                     ... done (  1.6 sec)
SMD gradient                      ... done (  0.0 sec)
Dispersion correction             ... done (  0.0 sec)

-------------------
DISPERSION GRADIENT
-------------------

   1   C   :   -0.000130426    0.000016169    0.000030103
   2   C   :   -0.000079106   -0.000020507    0.000008275
   3   C   :   -0.000091528   -0.000044904   -0.000095427
   4   C   :    0.000002674    0.000042659    0.000024799
   5   C   :    0.000008601    0.000071149    0.000123137
   6   C   :    0.000090814    0.000007546   -0.000003433
   7   C   :    0.000097687   -0.000094460    0.000019104
   8   C   :    0.000097502    0.000028865   -0.000096902
   9   H   :   -0.000051071    0.000015772    0.000005650
  10   H   :   -0.000050079   -0.000005452    0.000004846
  11   H   :   -0.000046746    0.000005733    0.000025750
  12   H   :   -0.000033115   -0.000022664    0.000009379
  13   H   :   -0.000027429   -0.000029926   -0.000044046
  14   H   :   -0.000041136   -0.000003820   -0.000045241
  15   H   :   -0.000043866   -0.000023646   -0.000031671
  16   H   :   -0.000000931    0.000035767    0.000002648
  17   H   :   -0.000007123    0.000034426    0.000044733
  18   H   :    0.000015214    0.000040159    0.000048639
  19   H   :    0.000006111    0.000016457    0.000055542
  20   H   :    0.000042132    0.000010145    0.000004425
  21   H   :    0.000041138   -0.000042750    0.000026521
  22   H   :    0.000036188   -0.000048201   -0.000001251
  23   H   :    0.000046040   -0.000034993    0.000005063
  24   H   :    0.000034105    0.000005163   -0.000045720
  25   H   :    0.000043102    0.000008842   -0.000031480
  26   H   :    0.000041251    0.000032472   -0.000043446

Difference to translation invariance:
           :   -0.0000000000    0.0000000000    0.0000000000

Difference to rotation invariance:
           :   -0.0000000000    0.0000000000    0.0000000000

Norm of the Dispersion gradient    ...    0.0004135244
RMS gradient                       ...    0.0000468224
MAX gradient                       ...    0.0001304261
gCP correction                   ... done

------------------
CARTESIAN GRADIENT
------------------

   1   C   :   -0.004594057    0.004173295   -0.000529482
   2   C   :    0.002645679   -0.004858710    0.004116900
   3   C   :   -0.002277151    0.002392819   -0.005414220
   4   C   :   -0.002177547    0.002497512   -0.005917221
   5   C   :    0.000989219   -0.000908585    0.005701648
   6   C   :    0.000114918    0.000751956    0.004558360
   7   C   :    0.000020436   -0.006550790   -0.000623783
   8   C   :    0.000003932    0.000378012   -0.005543494
   9   H   :    0.001569847   -0.005367089    0.001679997
  10   H   :    0.004116336    0.002165164    0.000932198
  11   H   :    0.001248348   -0.001657878   -0.004857464
  12   H   :   -0.001295429    0.002048408   -0.001482495
  13   H   :   -0.003320427    0.002056329    0.003365564
  14   H   :    0.000570711   -0.004256265    0.003906693
  15   H   :    0.003839332    0.002396795    0.001448321
  16   H   :    0.001316110   -0.001692356    0.001642043
  17   H   :    0.003783409   -0.002073187   -0.003057450
  18   H   :   -0.003459767   -0.002543217   -0.001425127
  19   H   :   -0.000407079    0.004090653   -0.004409621
  20   H   :   -0.000288969   -0.000629398   -0.000559448
  21   H   :    0.000759836    0.002767110   -0.004993685
  22   H   :    0.002951548    0.003807848    0.002565181
  23   H   :   -0.004395012    0.002167690    0.000448770
  24   H   :    0.002556065    0.002730482    0.004082472
  25   H   :   -0.004659532    0.000856586    0.002140766
  26   H   :    0.000389246   -0.004743184    0.002224579

Difference to translation invariance:
           :    0.0000000000   -0.0000000000    0.0000000000

Difference to rotation invariance:
           :    0.0003103765   -0.0008868473   -0.0013311268

Norm of the Cartesian gradient     ...    0.0272612248
RMS gradient                       ...    0.0030867259
MAX gradient                       ...    0.0065507901

-------
TIMINGS
-------

Total SCF gradient time     ....       16.611 sec

Densities                   ....       0.001 sec  (  0.0%)
One electron gradient       ....       0.516 sec  (  3.1%)
RI-J Coulomb gradient       ....       2.216 sec  ( 13.3%)
XC gradient                 ....      11.036 sec  ( 66.4%)
CPCM gradient               ....       1.599 sec  (  9.6%)
   A-Matrix (El+Nuc)        ....       0.115 sec  (  0.7%)
   Potential                ....       1.484 sec  (  8.9%)
SMD gradient                ....       0.014 sec  (  0.1%)

Maximum memory used throughout the entire SCFGRAD-calculation: 38.0 MB

------------------------------------------------------------------------------
                              ORCA PROPERTY CALCULATIONS
------------------------------------------------------------------------------

GBWName                                 ... xtb_opt.gbw
Number of atoms                         ...     26
Number of basis functions               ...    242
Max core memory                         ...   1024 MB

Electric properties:
Dipole moment                           ... YES
Quadrupole moment                       ...  NO
Static polarizability (Dipole/Dipole)   ...  NO
Static polarizability (Dipole/Quad.)    ...  NO
Static polarizability (Quad./Quad.)     ...  NO
Static polarizability (Velocity)        ...  NO

Atomic electric properties:
Dipole moment                           ...  NO
Quadrupole moment                       ...  NO
Static polarizability                   ...  NO

Choice of electric origin               ... Center of mass
Position of electric origin             ...    -0.000001    -0.000001    -0.000001

General magnetic properties:
Magnetizability                         ...  NO

EPR properties:
g-Tensor (aka g-matrix)                 ...  NO
Zero-Field splitting spin-orbit         ...  NO
Zero-field splitting spin-spin          ...  NO
Hyperfine couplings                     ...  NO (   0 nuclei)
Quadrupole couplings                    ...  NO (   0 nuclei)
Contact density                         ...  NO (   0 nuclei)

NMR properties:
Chemical shifts                         ...  NO (   0 nuclei)
Spin-rotation constants                 ...  NO (   0 nuclei)
Spin-spin couplings                     ...  NO (   0 nuclei,    0 pairs)

Choice of magnetic origin               ... GIAO
Position of magnetic origin             ...     0.000000     0.000000     0.000000

Properties with geometric perturbations:
SCF Hessian                             ...  NO
IR spectrum                             ...  NO
VCD spectrum                            ...  NO
X-ray spectroscopy properties:
SCF XES/XAS/RIXS spectra                ...  NO


-------------
DIPOLE MOMENT
-------------

Method             : SCF
Type of density    : Electron Density
Multiplicity       :   1
Irrep              :   0
Energy             :  -315.5820183368795142 Eh
Relativity type    : 
Basis              : AO
                                X                 Y                 Z
Electronic contribution:      0.420083369       0.473069252       0.464274444
Nuclear contribution   :     -0.393170360      -0.471951698      -0.427260957
                        -----------------------------------------
Total Dipole Moment    :      0.026913009       0.001117554       0.037013487
                        -----------------------------------------
Magnitude (a.u.)       :      0.045777256
Magnitude (Debye)      :      0.116356539



--------------------
Rotational spectrum 
--------------------
 
Rotational constants in cm-1:             0.081684             0.049888             0.040043 
Rotational constants in MHz :          2448.833407          1495.602010          1200.462678 

Dipole components along the rotational axes: 
x,y,z [a.u.] :     0.016723    -0.040192    -0.014160 
x,y,z [Debye]:     0.042507    -0.102159    -0.035993 

 

Dipole moment calculation done in   0.0 sec 

Maximum memory used throughout the entire PROP-calculation: 16.6 MB

--------------------------------
SUGGESTED CITATIONS FOR THIS RUN
--------------------------------

Below you find a list of papers that are relevant to this ORCA run
We neither can nor want to force you to cite these papers, but we appreciate if you do
You receive ORCA, which is the product of decades of hard work by many enthusiastic individuals, for free
The only thing we kindly ask in return is that you cite our papers,
We deeply appreciate it, if you show your appreciation for ORCA by not just citing the generic ORCA reference.

Please note that relegating all ORCA citations to the supporting information does *not* help us.
SI sections are not indexed - citations you put there will not count into any citation statistics
But we need these citations in order to attract the funding resources that allow us to do what we are doing

Therefore, if you are a happy ORCA user, please consider citing a few of the papers listed below in the main body of your paper

In addition to the list printed below, the program has created the file xtb_opt.bibtex that contains the list in bibtex format
You can import this file easily into all common literature databanks and citation aid programs


List of essential papers. We consider these as the minimum necessary citations

  1. Neese,F.
     Software update: the ORCA program system, version 5.0
     WIRES Comput. Molec. Sci., 2022 12(1)e1606
     doi.org/10.1002/wcms.1606
  2. Grimme,S.; Hansen,A.; Ehlert,S.; Mewes,J.
     r2SCAN-3c: A 'Swiss army knife' composite electronic-structure method
     J. Chem. Phys., 2021 154 064103
     doi.org/10.1063/5.0040021

List of papers to cite with high priority. The work reported in these papers was absolutely
necessary for this run to complete.
Our perspective: the developers of density functionals and basis sets usually get cited in chemistry papers
Good! But without the algorithms to do something with them, the functionals or basis sets would not do anything.
Hence, in our opinion, the algorithm design and method developments papers are equally worthy of getting cited

  1. Neese,F.
     An improvement of the resolution of the identity approximation for the formation of the Coulomb matrix
     J. Comp. Chem., 2003 24(14)1740-1747
     doi.org/10.1002/jcc.10318
  2. Garcia-Rates,M.; Neese,F.
     Effect of the Solute Cavity on the Solvation Energy and its Derivatives within the Framework of the Gaussian Charge Scheme
     J. Comput. Chem., 2020 41 922-939
     doi.org/10.1002/jcc.26139
  3. Neese,F.
     The SHARK Integral Generation and Digestion System
     J. Comp. Chem., 2022  1-16
     doi.org/10.1002/jcc.26942
  4. Lehtola,S.; Steigemann,C.; Oliveira,M.; Marques,M.
     Recent developments in Libxc - A comprehensive library of functionals for density functional theory
     Software X, 2018 7 
     doi.org/10.1016/j.softx.2017.11.002
  5. Caldeweyher,E.; Bannwarth,C.; Grimme,S.
     Extension of the D3 dispersion coefficient model
     J. Chem. Phys., 2017 147 034112-XXXX
     doi.org/10.1063/1.4993215
  6. Caldeweyher,E.; Ehlert,S.; Hansen,A.; Neugebauer,H.; Spicher,S.; Bannwarth,C.; Grimme,S.
     A generally applicable atomic-charge dependent London dispersion correction
     J. Chem. Phys., 2019 150 154122-XXXX
     doi.org/10.1063/1.5090222
  7. Caldeweyher,E.; Mewes,J.; Ehlert,S.; Grimme,S.
     Extension and evaluation of the D4 London-dispersion model for periodic systems
     Phys. Chem. Chem. Phys., 2020 22(16)8499-8512
     doi.org/10.1039/D0CP00502A

List of suggested additional citations. These are papers that are important in the 'surrounding' of 
of this run, or papers that preceded the highly important papers. If you like your results we are grateful for a citation.

  1. Neese,F.
     The ORCA program system
     WIRES Comput. Molec. Sci., 2012 2(1)73-78
     doi.org/10.1002/wcms.81
  2. Neese,F.
     Software update: the ORCA program system, version 4.0
     WIRES Comput. Molec. Sci., 2018 8(1)1-6
     doi.org/10.1002/wcms.1327
  3. Neese,F.; Wennmohs,F.; Becker,U.; Riplinger,C.
     The ORCA quantum chemistry program package
     J. Chem. Phys., 2020 152 Art. No. L224108
     doi.org/10.1063/5.0004608

List of optional additional citations

  1. Neese,F.
     Approximate second-order SCF convergence for spin unrestricted wavefunctions
     Chem. Phys. Lett., 2000 325(1-3)93-98
     doi.org/10.1016/s0009-2614(00)00662-x

Timings for individual modules:

Sum of individual times          ...       36.641 sec (=   0.611 min)
Startup calculation              ...        1.687 sec (=   0.028 min)   4.6 %
SCF iterations                   ...       18.129 sec (=   0.302 min)  49.5 %
Property calculations            ...        0.108 sec (=   0.002 min)   0.3 %
SCF Gradient evaluation          ...       16.716 sec (=   0.279 min)  45.6 %
                             ****ORCA TERMINATED NORMALLY****
TOTAL RUN TIME: 0 days 0 hours 0 minutes 37 seconds 667 msec
  ------------------------------------------------------------------------
          * successful ORCA run, taking over control again...

         :::::::::::::::::::::::::::::::::::::::::::::::::::::
         ::                  ORCA SUMMARY                   ::
         :::::::::::::::::::::::::::::::::::::::::::::::::::::
         :: total energy            -315.577150086085 Eh    ::
         :: gradient norm              0.027261224815 Eh/a0 ::
         :: HOMO-LUMO gap              0.000000000000 eV    ::
         :::::::::::::::::::::::::::::::::::::::::::::::::::::

      ----------------------------------------------------------- 
     |                       L-ANC optimizer                     |
      ----------------------------------------------------------- 
          low memory version by Sebastian Ehlert

          ...................................................
          :                      SETUP                      :
          :.................................................:
          :   energy convergence        0.5000000E-05 Eh    :
          :   grad. convergence         0.1000000E-02 Eh/a0 :
          :   optimization log               true           :
          :   writing optlog all                1     steps :
          :   Hessian reset                     8     steps :
          :   maximium step len.        1.0000000     a0    :
          :   LBFGS images                      8           :
          ...................................................
 * calculating model hessian...
Using Lindh-Hessian (1995)
 Shifting diagonal of input Hessian by   1.000000000000000E-002
 Lowest  eigenvalues of input Hessian
    0.000000    0.000000    0.000000    0.000000    0.000000    0.000000
    0.011493    0.012146    0.014020    0.016431    0.017605    0.018954
    0.019084    0.019627    0.019976    0.020136    0.020478    0.023559
 Highest eigenvalues
    1.181416    1.201035    1.226115    1.259678    1.267867    1.272852
 

........................................................................
.............................. CYCLE    1 ..............................
........................................................................
                         * ORCA takes the control...
  ------------------------------------------------------------------------

                                 *****************
                                 * O   R   C   A *
                                 *****************

                                            #,                                       
                                            ###                                      
                                            ####                                     
                                            #####                                    
                                            ######                                   
                                           ########,                                 
                                     ,,################,,,,,                         
                               ,,#################################,,                 
                          ,,##########################################,,             
                       ,#########################################, ''#####,          
                    ,#############################################,,   '####,        
                  ,##################################################,,,,####,       
                ,###########''''           ''''###############################       
              ,#####''   ,,,,##########,,,,          '''####'''          '####       
            ,##' ,,,,###########################,,,                        '##       
           ' ,,###''''                  '''############,,,                           
         ,,##''                                '''############,,,,        ,,,,,,###''
      ,#''                                            '''#######################'''  
     '                                                          ''''####''''         
             ,#######,   #######,   ,#######,      ##                                
            ,#'     '#,  ##    ##  ,#'     '#,    #''#        ,####,   ,####,        
            ##       ##  ##   ,#'  ##            #'  '#       #'       #'  '#        
            ##       ##  #######   ##           ,######,      #####,   #    #        
            '#,     ,#'  ##    ##  '#,     ,#' ,#      #,     #,   #   #,  ,#        
             '#######'   ##     ##  '#######'  #'      '#     '####' # '####'        



                #########################################################
                #                        -***-                          #
                #          Department of theory and spectroscopy        #
                #                                                       #
                #                      Frank Neese                      #
                #                                                       #
                #     Directorship, Architecture, Infrastructure        #
                #                    SHARK, DRIVERS                     #
                #        Core code/Algorithms in most modules           #
                #                                                       #
                #        Max Planck Institute fuer Kohlenforschung      #
                #                Kaiser Wilhelm Platz 1                 #
                #                 D-45470 Muelheim/Ruhr                 #
                #                      Germany                          #
                #                                                       #
                #                  All rights reserved                  #
                #                        -***-                          #
                #########################################################


                         Program Version 6.0.0  -   RELEASE  -


 With contributions from (in alphabetic order):
   Daniel Aravena         : Magnetic Suceptibility
   Michael Atanasov       : Ab Initio Ligand Field Theory (pilot matlab implementation)
   Alexander A. Auer      : GIAO ZORA, VPT2 properties, NMR spectrum
   Ute Becker             : All parallelization in ORCA, NUMFREQ, NUMCALC
   Giovanni Bistoni       : ED, misc. LED, open-shell LED, HFLD
   Martin Brehm           : Molecular dynamics
   Dmytro Bykov           : pre 5.0 version of the SCF Hessian
   Marcos Casanova-Páez   : Triplet and SCS-CIS(D). UHF-(DLPNO)-IP/EA/STEOM-CCSD. UHF-CVS-IP/STEOM-CCSD
   Vijay G. Chilkuri      : MRCI spin determinant printing, contributions to CSF-ICE
   Pauline Colinet        : FMM embedding
   Dipayan Datta          : RHF DLPNO-CCSD density
   Achintya Kumar Dutta   : EOM-CC, STEOM-CC
   Nicolas Foglia         : Exact transition moments, OPA infrastructure, MCD improvements
   Dmitry Ganyushin       : Spin-Orbit,Spin-Spin,Magnetic field MRCI
   Miquel Garcia          : C-PCM and meta-GGA Hessian, CCSD/C-PCM, Gaussian charge scheme
   Tiago L. C. Gouveia    : GS-ROHF, GS-ROCIS
   Yang Guo               : DLPNO-NEVPT2, F12-NEVPT2, CIM, IAO-localization
   Andreas Hansen         : Spin unrestricted coupled pair/coupled cluster methods
   Ingolf Harden          : AUTO-CI MPn and infrastructure 
   Benjamin Helmich-Paris : MC-RPA, TRAH-(SCF,CASSCF), AVAS, COSX integrals, SCF dyn. polar.
   Lee Huntington         : MR-EOM, pCC
   Robert Izsak           : Overlap fitted RIJCOSX, COSX-SCS-MP3, EOM
   Riya Kayal             : Wick's Theorem for AUTO-CI, AUTO-CI UHF-CCSDT
   Emily Kempfer          : AUTO-CI, RHF CISDT and CCSDT
   Christian Kollmar      : KDIIS, OOCD, Brueckner-CCSD(T), CCSD density, CASPT2, CASPT2-K, improved NEVPT2
   Axel Koslowski         : Symmetry handling
   Simone Kossmann        : Meta GGA functionals, TD-DFT gradient, OOMP2, (MP2 Hessian; deprecated post 5.0)
   Lucas Lang             : DCDCAS
   Marvin Lechner         : AUTO-CI (C++ implementation), FIC-MRCC
   Spencer Leger          : CASSCF response
   Dagmar Lenk            : GEPOL surface, SMD, ORCA-2-JSON
   Dimitrios Liakos       : Extrapolation schemes; Compound Job, initial MDCI parallelization
   Dimitrios Manganas     : Further ROCIS development; embedding schemes. LFT, Crystal Embedding
   Dimitrios Pantazis     : SARC Basis sets
   Anastasios Papadopoulos: AUTO-CI, single reference methods and gradients
   Taras Petrenko         : pre 6.0 DFT Hessian and TD-DFT gradient, (ASA, deprecated), ECA, 1-Electron XAS/XES, NRVS
   Peter Pinski           : DLPNO-MP2, DLPNO-MP2 Gradient
   Christoph Reimann      : Effective Core Potentials
   Marius Retegan         : Local ZFS, SOC
   Christoph Riplinger    : Optimizer, TS searches, QM/MM, DLPNO-CCSD(T), (RO)-DLPNO pert. Triples
   Michael Roemelt        : Original ROCIS implementation
   Masaaki Saitow         : Open-shell DLPNO-CCSD energy and density
   Barbara Sandhoefer     : DKH picture change effects
   Kantharuban Sivalingam : CASSCF convergence/infrastructure, NEVPT2 and variants, FIC-MRCI
   Bernardo de Souza      : ESD, SOC TD-DFT
   Georgi Stoychev        : AutoAux, RI-MP2 NMR, DLPNO-MP2 response, X2C
   Van Anh Tran           : RI-MP2 g-tensors
   Willem Van den Heuvel  : Paramagnetic NMR
   Zikuan Wang            : NOTCH, Electric field optimization 
   Frank Wennmohs         : Technical directorship and infrastructure
   Hang Xu                : AUTO-CI-Response properties 


 We gratefully acknowledge several colleagues who have allowed us to
 interface, adapt or use parts of their codes:
   Stefan Grimme, W. Hujo, H. Kruse, P. Pracht,  : VdW corrections, initial TS optimization,
                  C. Bannwarth, S. Ehlert,         DFT functionals, gCP, sTDA/sTD-DF
                  L. Wittmann, M. Mueller
   Ed Valeev, F. Pavosevic, A. Kumar             : LibInt (2-el integral package), F12 methods
   Garnet Chan, S. Sharma, J. Yang, R. Olivares  : DMRG
   Ulf Ekstrom                                   : XCFun DFT Library
   Mihaly Kallay                                 : mrcc  (arbitrary order and MRCC methods)
   Frank Weinhold                                : gennbo (NPA and NBO analysis)
   Simon Mueller                                 : openCOSMO-RS
   Christopher J. Cramer and Donald G. Truhlar   : smd solvation model
   Lars Goerigk                                  : TD-DFT with DH, B97 family of functionals
   V. Asgeirsson, H. Jonsson                     : NEB implementation
   FAccTs GmbH                                   : IRC, NEB, NEB-TS, DLPNO-Multilevel, CI-OPT
                                                   MM, QMMM, 2- and 3-layer-ONIOM, Crystal-QMMM,
                                                   LR-CPCM, SF, NACMEs, symmetry and pop. for TD-DFT,
                                                   nearIR, NL-DFT gradient (VV10), updates on ESD,
                                                   ML-optimized integration grids, MBIS, APM,
                                                   GOAT, DOCKER, SOLVATOR, interface openCOSMO-RS
   S Lehtola, MJT Oliveira, MAL Marques          : LibXC Library
   Liviu Ungur et al                             : ANISO software


 Your calculation uses the libint2 library for the computation of 2-el integrals
 For citations please refer to: http://libint.valeyev.net

 Your ORCA version has been built with support for libXC version: 6.2.2
 For citations please refer to: https://libxc.gitlab.io

 This ORCA versions uses:
   CBLAS   interface :  Fast vector & matrix operations
   LAPACKE interface :  Fast linear algebra routines
   SCALAPACK package :  Parallel linear algebra routines
   Shared memory     :  Shared parallel matrices
   BLAS/LAPACK       :  OpenBLAS 0.3.27  USE64BITINT DYNAMIC_ARCH NO_AFFINITY SkylakeX SINGLE_THREADED
        Core in use  :  SkylakeX
   Copyright (c) 2011-2014, The OpenBLAS Project




***************************************
The coordinates will be read from file: xtb_opt.xyz
***************************************


Your calculation utilizes the geometrical counterpoise correction gCP
Please cite in your paper:
H.Kruse, S. Grimme J.Chem.Phys., 136, (2012), 154101 
   

Your calculation utilizes the atom-pairwise dispersion correction
based on EEQ partial charges (D4)


Your calculation utilizes the SMD solvation module
Please cite in your paper:
A.V. Marenich, C.J. Cramer, D.G. Truhlar J. Phys. Chem. B, 113, (2009), 6378 

================================================================================

----- Orbital basis set information -----
Your calculation utilizes the basis: def2-mTZVPP
   Stefan Grimme, Andreas Hansen, Sebastian Ehlert, and Jan-Michael Mewes 
   J. Chem. Phys. 154, 064103 (2021). DOI: 10.1063/5.0040021

----- AuxJ basis set information -----
Your calculation utilizes the auxiliary basis: def2/J
   F. Weigend, Phys. Chem. Chem. Phys. 8, 1057 (2006).

================================================================================
                                        WARNINGS
                       Please study these warnings very carefully!
================================================================================

WARNING: Old DensityContainer found on disk!
         Will remove this file - 
         If you want to keep old densities, please start your calculation with a different basename. 

Using LibXC functional ID 497 : Re-regularized SCAN exchange by Furness et al
[ 1]  J. W. Furness, A. D. Kaplan, J. Ning, J. P. Perdew, and J. Sun.,  J. Phys. Chem. Lett. 11, 8208-8215 (2020)
[ 2]  J. W. Furness, A. D. Kaplan, J. Ning, J. P. Perdew, and J. Sun.,  J. Phys. Chem. Lett. 11, 9248-9248 (2020)
Using LibXC functional ID 498 : Re-regularized SCAN correlation by Furness et al
[ 1]  J. W. Furness, A. D. Kaplan, J. Ning, J. P. Perdew, and J. Sun.,  J. Phys. Chem. Lett. 11, 8208-8215 (2020)
[ 2]  J. W. Furness, A. D. Kaplan, J. Ning, J. P. Perdew, and J. Sun.,  J. Phys. Chem. Lett. 11, 9248-9248 (2020)
Using LibXC functional ID 497 : Re-regularized SCAN exchange by Furness et al
[ 1]  J. W. Furness, A. D. Kaplan, J. Ning, J. P. Perdew, and J. Sun.,  J. Phys. Chem. Lett. 11, 8208-8215 (2020)
[ 2]  J. W. Furness, A. D. Kaplan, J. Ning, J. P. Perdew, and J. Sun.,  J. Phys. Chem. Lett. 11, 9248-9248 (2020)
Using LibXC functional ID 498 : Re-regularized SCAN correlation by Furness et al
[ 1]  J. W. Furness, A. D. Kaplan, J. Ning, J. P. Perdew, and J. Sun.,  J. Phys. Chem. Lett. 11, 8208-8215 (2020)
[ 2]  J. W. Furness, A. D. Kaplan, J. Ning, J. P. Perdew, and J. Sun.,  J. Phys. Chem. Lett. 11, 9248-9248 (2020)

================================================================================
                                       INPUT FILE
================================================================================
NAME = xtb_opt.inp
|  1> ! r2scan-3c def2/J RI DEFGRID2 scfconv7 ENGRAD tightSCF miniprint
|  2> %cpcm
|  3>     smd true
|  4>     smdsolvent "water"
|  5> end
|  6> * xyzfile 0 1 xtb_opt.xyz
|  7> 
|  8>                          ****END OF INPUT****
================================================================================

                     *******************************
                     * Energy+Gradient Calculation *
                     *******************************

---------------------------------
CARTESIAN COORDINATES (ANGSTROEM)
---------------------------------
  C     -2.462892    0.265096    0.631963
  C     -1.153708   -0.326070    0.091809
  C     -1.348480   -0.679352   -1.386171
  C      0.036760    0.628642    0.339570
  C      0.104690    1.044968    1.816246
  C      1.428724    0.101610   -0.110752
  C      1.666649   -1.369865    0.235363
  C      1.765832    0.383707   -1.578492
  H     -2.631524    1.263444    0.214651
  H     -3.306777   -0.366764    0.341350
  H     -2.469985    0.342556    1.720582
  H     -0.957502   -1.254696    0.643648
  H     -0.536106   -1.288293   -1.784538
  H     -1.423272    0.231507   -1.988694
  H     -2.276125   -1.244397   -1.517439
  H     -0.165225    1.535613   -0.249393
  H     -0.773440    1.616262    2.121521
  H      0.981816    1.672742    1.994294
  H      0.180959    0.166008    2.464486
  H      2.157315    0.679103    0.473942
  H      1.444297   -1.578106    1.285554
  H      1.052485   -2.030882   -0.381338
  H      2.714131   -1.630461    0.057990
  H      1.163250   -0.213156   -2.264600
  H      2.817344    0.150434   -1.772193
  H      1.606864    1.439504   -1.816562

----------------------------
CARTESIAN COORDINATES (A.U.)
----------------------------
  NO LB      ZA    FRAG     MASS         X           Y           Z
   0 C     6.0000    0    12.011   -4.654191    0.500959    1.194237
   1 C     6.0000    0    12.011   -2.180191   -0.616183    0.173494
   2 C     6.0000    0    12.011   -2.548258   -1.283790   -2.619483
   3 C     6.0000    0    12.011    0.069467    1.187961    0.641694
   4 C     6.0000    0    12.011    0.197836    1.974703    3.432208
   5 C     6.0000    0    12.011    2.699896    0.192016   -0.209291
   6 C     6.0000    0    12.011    3.149511   -2.588669    0.444771
   7 C     6.0000    0    12.011    3.336940    0.725102   -2.982918
   8 H     1.0000    0     1.008   -4.972859    2.387563    0.405632
   9 H     1.0000    0     1.008   -6.248904   -0.693083    0.645059
  10 H     1.0000    0     1.008   -4.667595    0.647337    3.251429
  11 H     1.0000    0     1.008   -1.809417   -2.371032    1.216318
  12 H     1.0000    0     1.008   -1.013093   -2.434520   -3.372289
  13 H     1.0000    0     1.008   -2.689594    0.437485   -3.758088
  14 H     1.0000    0     1.008   -4.301252   -2.351570   -2.867543
  15 H     1.0000    0     1.008   -0.312230    2.901888   -0.471285
  16 H     1.0000    0     1.008   -1.461590    3.054293    4.009093
  17 H     1.0000    0     1.008    1.855363    3.161024    3.768670
  18 H     1.0000    0     1.008    0.341964    0.313709    4.657203
  19 H     1.0000    0     1.008    4.076735    1.283319    0.895620
  20 H     1.0000    0     1.008    2.729325   -2.982189    2.429345
  21 H     1.0000    0     1.008    1.988909   -3.837811   -0.720625
  22 H     1.0000    0     1.008    5.128964   -3.081124    0.109586
  23 H     1.0000    0     1.008    2.198224   -0.402806   -4.279474
  24 H     1.0000    0     1.008    5.324008    0.284278   -3.348959
  25 H     1.0000    0     1.008    3.036533    2.720268   -3.432806

------------------------------------------------------------------------------
                   ___                                                        
                  /   \      - P O W E R E D   B Y -                         
                 /     \                                                     
                 |  |  |   _    _      __       _____    __    __             
                 |  |  |  | |  | |    /  \     |  _  \  |  |  /  |          
                  \  \/   | |  | |   /    \    | | | |  |  | /  /          
                 / \  \   | |__| |  /  /\  \   | |_| |  |  |/  /          
                |  |  |   |  __  | /  /__\  \  |    /   |      \           
                |  |  |   | |  | | |   __   |  |    \   |  |\   \          
                \     /   | |  | | |  |  |  |  | |\  \  |  | \   \       
                 \___/    |_|  |_| |__|  |__|  |_| \__\ |__|  \__/        
                                                                              
                      - O R C A' S   B I G   F R I E N D -                    
                                      &                                       
                       - I N T E G R A L  F E E D E R -                       
                                                                              
 v1 FN, 2020, v2 2021, v3 2022-2024                                           
------------------------------------------------------------------------------


----------------------
SHARK INTEGRAL PACKAGE
----------------------

Number of atoms                             ...     26
Number of basis functions                   ...    242
Number of shells                            ...    126
Maximum angular momentum                    ...      2
Integral batch strategy                     ... SHARK/LIBINT Hybrid
RI-J (if used) integral strategy            ... SPLIT-RIJ (Revised 2003 algorithm where possible)
Printlevel                                  ...      1
Contraction scheme used                     ... SEGMENTED contraction
Prescreening option                         ... SCHWARTZ
   Thresh                                   ... 3.000e-11
   Tcut                                     ... 1.000e-12
   Tpresel                                  ... 1.000e-12 
Coulomb Range Separation                    ... NOT USED
Exchange Range Separation                   ... NOT USED
Multipole approximations                    ... NOT USED
Finite Nucleus Model                        ... NOT USED
CABS basis                                  ... NOT available
Auxiliary Coulomb fitting basis             ... AVAILABLE
   # of basis functions in Aux-J            ...    590
   # of shells in Aux-J                     ...    210
   Maximum angular momentum in Aux-J        ...      4
Auxiliary J/K fitting basis                 ... NOT available
Auxiliary Correlation fitting basis         ... NOT available
Auxiliary 'external' fitting basis          ... NOT available

Checking pre-screening integrals            ... done (  0.0 sec) Dimension = 126
Check shell pair data                       ... done (  0.0 sec)
Shell pair information
Shell pair cut-off parameter TPreSel        ...   1.0e-12
Total number of shell pairs                 ...      8001
Shell pairs after pre-screening             ...      7373
Total number of primitive shell pairs       ...     27725
Primitive shell pairs kept                  ...     18295
          la=0 lb=0:   2687 shell pairs
          la=1 lb=0:   2925 shell pairs
          la=1 lb=1:    829 shell pairs
          la=2 lb=0:    578 shell pairs
          la=2 lb=1:    318 shell pairs
          la=2 lb=2:     36 shell pairs

Calculating one electron integrals          ... done (  0.0 sec)
Calculating RI/J V-Matrix + Cholesky decomp.... done (  0.1 sec)
Calculating Nuclear repulsion               ... done (  0.0 sec) ENN=    423.390699262390 Eh

Diagonalization of the overlap matrix:
Smallest eigenvalue                        ... 1.257e-04
Time for diagonalization                   ...    0.006 sec
Threshold for overlap eigenvalues          ... 1.000e-07
Number of eigenvalues below threshold      ... 0
Time for construction of square roots      ...    0.015 sec
Total time needed                          ...    0.035 sec

-------------------
DFT GRID GENERATION
-------------------

General Integration Accuracy     IntAcc      ... 4.388
Radial Grid Type                 RadialGrid  ... OptM3 with GC (2021)
Angular Grid (max. ang.)         AngularGrid ... 4 (Lebedev-302)
Angular grid pruning method      GridPruning ... 4 (adaptive)
Weight generation scheme         WeightScheme... mBecke (2022)
Basis function cutoff            BFCut       ... 1.0000e-11
Integration weight cutoff        WCut        ... 1.0000e-14
Partially contracted basis set               ... off
Rotationally invariant grid construction     ... off
Angular grids for H and He will be reduced by one unit

Total number of grid points                  ...   104792
Total number of batches                      ...     1651
Average number of points per batch           ...       63
Average number of grid points per atom       ...     4030
Initializing property integral containers    ... done (  0.0 sec)

SHARK setup successfully completed in   1.7 seconds

Maximum memory used throughout the entire STARTUP-calculation: 45.1 MB
Occupation numbers will be reassigned to an Aufbau configuration
             **** ENERGY FILE WAS UPDATED (xtb_opt.en.tmp) ****
Finished Guess after   0.6 sec
Maximum memory used throughout the entire GUESS-calculation: 17.6 MB
--------------------
CPCM SOLVATION MODEL
--------------------
CPCM parameters:
  Epsilon                                         ...      78.3550
  Refrac                                          ...       1.3328
  Rsolv                                           ...       1.3000
  Surface type                                    ... GAUSSIAN VDW
  Discretization scheme                           ... Constant charge density
    Threshold for H atoms                         ...       5.0000 (charges/Ang^2)
    Threshold for non-H atoms                     ...       5.0000 (charges/Ang^2)
  Epsilon function type                           ...         CPCM
Solvent:                                          ... WATER
SMD-CDS solvent descriptors:
  Soln                                            ...       1.3328
  Soln25                                          ...       1.3323
  Sola                                            ...       0.0000
  Solb                                            ...       0.0000
  Solg                                            ...       0.0000
  Solc                                            ...       0.0000
  Solh                                            ...       0.0000
Radii:
  Scheme                                          ... Element-dependent radii
  Radius for C  used is    3.4960 Bohr (=   1.8500 Ang.)
  Radius for H  used is    2.2677 Bohr (=   1.2000 Ang.)
Calculating surface                               ...        done! (  0.0s)
Cavity surface points                             ...         1850
Cavity Volume                                     ...    1032.0794
Cavity Surface-area                               ...     643.0714
Calculating surface distance matrix               ...        done! (  0.0s)
Performing Cholesky decomposition & store         ...        done! (  0.1s)
Overall time for CPCM initialization              ...                 0.2s

----------------------------------------D-I-I-S--------------------------------------------
Iteration    Energy (Eh)           Delta-E    RMSDP     MaxDP     DIISErr   Damp  Time(sec)
-------------------------------------------------------------------------------------------
               ***  Starting incremental Fock matrix formation  ***
                              *** Initializing SOSCF ***
---------------------------------------S-O-S-C-F--------------------------------------
Iteration    Energy (Eh)           Delta-E    RMSDP     MaxDP     MaxGrad    Time(sec)
--------------------------------------------------------------------------------------
    1    -315.5896409345153302     0.00e+00  2.47e-04  7.39e-03  2.44e-04     4.7
               *** Restarting incremental Fock matrix formation ***
    2    -315.5898587714909240    -2.18e-04  9.64e-05  2.85e-03  3.19e-04     4.7
    3    -315.5898630747361153    -4.30e-06  3.80e-05  6.63e-04  3.54e-04     3.9
    4    -315.5898775279205779    -1.45e-05  1.41e-05  2.86e-04  3.45e-05     3.8
    5    -315.5898776553898983    -1.27e-07  3.12e-06  6.69e-05  2.25e-05     3.6
                  *** Gradient check signals convergence ***

               *****************************************************
               *                     SUCCESS                       *
               *           SCF CONVERGED AFTER   5 CYCLES          *
               *****************************************************


SMD CDS free energy correction energy :                 4.38367     Kcal/mol
Total Energy after SMD CDS correction =              -315.582891838 Eh
             **** ENERGY FILE WAS UPDATED (xtb_opt.en.tmp) ****

----------------
TOTAL SCF ENERGY
----------------

Total Energy       :       -315.58289183778908 Eh           -8587.44706 eV

Components:
Nuclear Repulsion  :        423.39069926239023 Eh           11521.04665 eV
Electronic Energy  :       -738.97750608474746 Eh          -20108.60024 eV
One Electron Energy:      -1262.85038681317087 Eh          -34363.90605 eV
Two Electron Energy:        523.87288072842341 Eh           14255.30581 eV
CPCM Dielectric    :         -0.00307083303263 Eh              -0.08356 eV
SMD CDS (Gcds)     :          0.00698581760080 Eh               0.19009 eV

Virial components:
Potential Energy   :       -629.49080760588606 Eh          -17129.31571 eV
Kinetic Energy     :        313.90791576809698 Eh            8541.86865 eV
Virial Ratio       :          2.00533588350454

DFT components:
N(Alpha)           :       33.000020646236 electrons
N(Beta)            :       33.000020646236 electrons
N(Total)           :       66.000041292472 electrons
E(X)               :      -48.014140140671 Eh       
E(C)               :       -2.032935666616 Eh       
E(XC)              :      -50.047075807287 Eh       

CPCM Solvation Model Properties:
Surface-charge          :         -0.05446405473216
Corrected charge        :          0.00000000000000
Outlying charge corr.   :          0.00022001828415 Eh               0.00599 eV
Free-energy (cav+disp)  :          0.00698581760080 Eh               0.19009 eV

---------------
SCF CONVERGENCE
---------------

  Last Energy change         ...    1.2747e-07  Tolerance :   1.0000e-07
  Last MAX-Density change    ...    6.6934e-05  Tolerance :   1.0000e-07
  Last RMS-Density change    ...    3.1235e-06  Tolerance :   5.0000e-09
  Last DIIS Error            ...    2.8662e-03  Tolerance :   1.0000e-07
  Last Orbital Gradient      ...    2.2455e-05  Tolerance :   1.0000e-04
  Last Orbital Rotation      ...    1.7934e-05  Tolerance :   1.0000e-04


----------------
ORBITAL ENERGIES
----------------

  NO   OCC          E(Eh)            E(eV) 
   0   2.0000     -10.023288      -272.7475 
   1   2.0000     -10.023041      -272.7408 
   2   2.0000     -10.021180      -272.6902 
   3   2.0000     -10.006832      -272.2997 
   4   2.0000     -10.006385      -272.2876 
   5   2.0000     -10.005857      -272.2732 
   6   2.0000     -10.005850      -272.2730 
   7   2.0000     -10.005813      -272.2720 
   8   2.0000      -0.783641       -21.3240 
   9   2.0000      -0.731585       -19.9074 
  10   2.0000      -0.683662       -18.6034 
  11   2.0000      -0.639368       -17.3981 
  12   2.0000      -0.635394       -17.2900 
  13   2.0000      -0.585338       -15.9279 
  14   2.0000      -0.539490       -14.6803 
  15   2.0000      -0.492901       -13.4125 
  16   2.0000      -0.428609       -11.6630 
  17   2.0000      -0.414509       -11.2794 
  18   2.0000      -0.400261       -10.8917 
  19   2.0000      -0.389637       -10.6026 
  20   2.0000      -0.373656       -10.1677 
  21   2.0000      -0.359397        -9.7797 
  22   2.0000      -0.347477        -9.4553 
  23   2.0000      -0.346047        -9.4164 
  24   2.0000      -0.337002        -9.1703 
  25   2.0000      -0.334565        -9.1040 
[...]
  16   2.0000      -0.428534       -11.6610 
  17   2.0000      -0.414309       -11.2739 
  18   2.0000      -0.399643       -10.8748 
  19   2.0000      -0.390318       -10.6211 
  20   2.0000      -0.373461       -10.1624 
  21   2.0000      -0.359183        -9.7739 
  22   2.0000      -0.346909        -9.4399 
  23   2.0000      -0.344537        -9.3753 
  24   2.0000      -0.336702        -9.1621 
  25   2.0000      -0.333552        -9.0764 
  26   2.0000      -0.313744        -8.5374 
  27   2.0000      -0.307785        -8.3752 
  28   2.0000      -0.292391        -7.9564 
  29   2.0000      -0.290888        -7.9155 
  30   2.0000      -0.269456        -7.3323 
  31   2.0000      -0.265051        -7.2124 
  32   2.0000      -0.256288        -6.9739 
  33   0.0000       0.083388         2.2691 
  34   0.0000       0.113058         3.0765 
  35   0.0000       0.115176         3.1341 
  36   0.0000       0.117391         3.1944 
  37   0.0000       0.125176         3.4062 
  38   0.0000       0.129539         3.5249 
  39   0.0000       0.140898         3.8340 
  40   0.0000       0.147774         4.0211 
  41   0.0000       0.152553         4.1512 
  42   0.0000       0.157628         4.2893 
  43   0.0000       0.162716         4.4277 
*Only the first 10 virtual orbitals were printed.
Total SCF time: 0 days 0 hours 0 min 9 sec 
Finished LeanSCF after   9.9 sec

Maximum memory used throughout the entire LEANSCF-calculation: 41.9 MB


-------------------------------------------------------------------------------
                          DFT DISPERSION CORRECTION                            
                                                                               
                                DFTD4 V3.4.0                                   
-------------------------------------------------------------------------------
-------------------------   ----------------
Dispersion correction           -0.008148233
-------------------------   ----------------

------------------   -----------------
gCP correction             0.012870855
------------------   -----------------

-------------------------   --------------------
FINAL SINGLE POINT ENERGY      -315.578337327482
-------------------------   --------------------

------------------------------------------------------------------------------
                         ORCA SCF GRADIENT CALCULATION
------------------------------------------------------------------------------

Nuc. rep. gradient        (SHARK) ... done (  0.0 sec)
HCore & Overlap gradient  (SHARK) ... done (  0.5 sec)
Split-RIJ-J gradient      (SHARK) ... done (  2.2 sec)
XC gradient                       ... done ( 10.0 sec)
CPCM gradient                     ... done (  1.4 sec)
SMD gradient                      ... done (  0.0 sec)
Dispersion correction             ... done (  0.0 sec)

-------------------
DISPERSION GRADIENT
-------------------

   1   C   :   -0.000131085    0.000017594    0.000028745
   2   C   :   -0.000080028   -0.000019650    0.000007908
   3   C   :   -0.000090722   -0.000045438   -0.000096145
   4   C   :    0.000002975    0.000043127    0.000026623
   5   C   :    0.000010023    0.000068458    0.000124703
   6   C   :    0.000090399    0.000007796   -0.000004220
   7   C   :    0.000097492   -0.000093937    0.000020526
   8   C   :    0.000096746    0.000028668   -0.000098323
   9   H   :   -0.000051232    0.000015804    0.000004771
  10   H   :   -0.000049550   -0.000004775    0.000004906
  11   H   :   -0.000046746    0.000006605    0.000024465
  12   H   :   -0.000033492   -0.000021887    0.000009331
  13   H   :   -0.000026965   -0.000029336   -0.000043861
  14   H   :   -0.000040759   -0.000004448   -0.000044722
  15   H   :   -0.000043095   -0.000024066   -0.000031695
  16   H   :   -0.000001179    0.000036196    0.000003788
  17   H   :   -0.000006309    0.000032847    0.000045243
  18   H   :    0.000014790    0.000039037    0.000048601
  19   H   :    0.000007156    0.000015613    0.000055434
  20   H   :    0.000041903    0.000010593    0.000003992
  21   H   :    0.000041009   -0.000041865    0.000026354
  22   H   :    0.000036288   -0.000048263   -0.000000206
  23   H   :    0.000045456   -0.000034748    0.000005202
  24   H   :    0.000034125    0.000004892   -0.000045780
  25   H   :    0.000042240    0.000009341   -0.000031764
  26   H   :    0.000040559    0.000031841   -0.000043873

Difference to translation invariance:
           :    0.0000000000    0.0000000000    0.0000000000

Difference to rotation invariance:
           :    0.0000000000    0.0000000000   -0.0000000000

Norm of the Dispersion gradient    ...    0.0004131545
RMS gradient                       ...    0.0000467805
MAX gradient                       ...    0.0001310849
gCP correction                   ... done

------------------
CARTESIAN GRADIENT
------------------

   1   C   :   -0.000188220    0.000042505    0.000019434
   2   C   :    0.000381495    0.000109063    0.000119187
   3   C   :   -0.000055565   -0.000026072   -0.000110696
   4   C   :    0.000121039   -0.000131725   -0.000198985
   5   C   :   -0.000090093    0.000066675    0.000213475
   6   C   :   -0.000244448    0.000161008    0.000187808
   7   C   :    0.000033444   -0.000078744    0.000017321
   8   C   :    0.000070939   -0.000027464   -0.000015892
   9   H   :    0.000043698    0.000003958   -0.000049170
  10   H   :   -0.000033520    0.000005276    0.000015377
  11   H   :    0.000028024    0.000017642   -0.000050140
  12   H   :   -0.000017917   -0.000046547    0.000007080
  13   H   :   -0.000043850    0.000041420   -0.000041798
  14   H   :   -0.000056472    0.000030249    0.000039735
  15   H   :    0.000002523   -0.000006260   -0.000010844
  16   H   :   -0.000038356    0.000019786   -0.000086332
  17   H   :    0.000062307   -0.000094551   -0.000020546
  18   H   :   -0.000002770    0.000002865   -0.000011242
  19   H   :    0.000022870   -0.000010472   -0.000063221
  20   H   :    0.000017507   -0.000017693    0.000023462
  21   H   :   -0.000039102   -0.000001223    0.000030982
  22   H   :   -0.000051195   -0.000009638   -0.000021775
  23   H   :    0.000034771   -0.000036769    0.000016773
  24   H   :   -0.000065816   -0.000037627   -0.000039117
  25   H   :    0.000082892   -0.000057885    0.000008798
  26   H   :    0.000025815    0.000082223    0.000020327

Difference to translation invariance:
           :   -0.0000000000   -0.0000000000    0.0000000000

Difference to rotation invariance:
           :    0.0002007132   -0.0008084264   -0.0010342317

Norm of the Cartesian gradient     ...    0.0007583937
RMS gradient                       ...    0.0000858712
MAX gradient                       ...    0.0003814947

-------
TIMINGS
-------

Total SCF gradient time     ....       15.284 sec

Densities                   ....       0.001 sec  (  0.0%)
One electron gradient       ....       0.510 sec  (  3.3%)
RI-J Coulomb gradient       ....       2.160 sec  ( 14.1%)
XC gradient                 ....       9.992 sec  ( 65.4%)
CPCM gradient               ....       1.436 sec  (  9.4%)
   A-Matrix (El+Nuc)        ....       0.109 sec  (  0.7%)
   Potential                ....       1.326 sec  (  8.7%)
SMD gradient                ....       0.015 sec  (  0.1%)

Maximum memory used throughout the entire SCFGRAD-calculation: 37.9 MB

------------------------------------------------------------------------------
                              ORCA PROPERTY CALCULATIONS
------------------------------------------------------------------------------

GBWName                                 ... xtb_opt.gbw
Number of atoms                         ...     26
Number of basis functions               ...    242
Max core memory                         ...   1024 MB

Electric properties:
Dipole moment                           ... YES
Quadrupole moment                       ...  NO
Static polarizability (Dipole/Dipole)   ...  NO
Static polarizability (Dipole/Quad.)    ...  NO
Static polarizability (Quad./Quad.)     ...  NO
Static polarizability (Velocity)        ...  NO

Atomic electric properties:
Dipole moment                           ...  NO
Quadrupole moment                       ...  NO
Static polarizability                   ...  NO

Choice of electric origin               ... Center of mass
Position of electric origin             ...    -0.000776     0.003458     0.000042

General magnetic properties:
Magnetizability                         ...  NO

EPR properties:
g-Tensor (aka g-matrix)                 ...  NO
Zero-Field splitting spin-orbit         ...  NO
Zero-field splitting spin-spin          ...  NO
Hyperfine couplings                     ...  NO (   0 nuclei)
Quadrupole couplings                    ...  NO (   0 nuclei)
Contact density                         ...  NO (   0 nuclei)

NMR properties:
Chemical shifts                         ...  NO (   0 nuclei)
Spin-rotation constants                 ...  NO (   0 nuclei)
Spin-spin couplings                     ...  NO (   0 nuclei,    0 pairs)

Choice of magnetic origin               ... GIAO
Position of magnetic origin             ...     0.000000     0.000000     0.000000

Properties with geometric perturbations:
SCF Hessian                             ...  NO
IR spectrum                             ...  NO
VCD spectrum                            ...  NO
X-ray spectroscopy properties:
SCF XES/XAS/RIXS spectra                ...  NO


-------------
DIPOLE MOMENT
-------------

Method             : SCF
Type of density    : Electron Density
Multiplicity       :   1
Irrep              :   0
Energy             :  -315.5830599495199067 Eh
Relativity type    : 
Basis              : AO
                                X                 Y                 Z
Electronic contribution:      0.414145133       0.526120004       0.464117764
Nuclear contribution   :     -0.382257897      -0.520681472      -0.427852923
                        -----------------------------------------
Total Dipole Moment    :      0.031887235       0.005438532       0.036264840
                        -----------------------------------------
Magnitude (a.u.)       :      0.048595391
Magnitude (Debye)      :      0.123519669



--------------------
Rotational spectrum 
--------------------
 
Rotational constants in cm-1:             0.080843             0.049720             0.039659 
Rotational constants in MHz :          2423.602925          1490.568396          1188.945953 

Dipole components along the rotational axes: 
x,y,z [a.u.] :     0.021317    -0.042760    -0.008867 
x,y,z [Debye]:     0.054184    -0.108688    -0.022539 

 

Dipole moment calculation done in   0.0 sec 

Maximum memory used throughout the entire PROP-calculation: 16.6 MB

--------------------------------
SUGGESTED CITATIONS FOR THIS RUN
--------------------------------

Below you find a list of papers that are relevant to this ORCA run
We neither can nor want to force you to cite these papers, but we appreciate if you do
You receive ORCA, which is the product of decades of hard work by many enthusiastic individuals, for free
The only thing we kindly ask in return is that you cite our papers,
We deeply appreciate it, if you show your appreciation for ORCA by not just citing the generic ORCA reference.

Please note that relegating all ORCA citations to the supporting information does *not* help us.
SI sections are not indexed - citations you put there will not count into any citation statistics
But we need these citations in order to attract the funding resources that allow us to do what we are doing

Therefore, if you are a happy ORCA user, please consider citing a few of the papers listed below in the main body of your paper

In addition to the list printed below, the program has created the file xtb_opt.bibtex that contains the list in bibtex format
You can import this file easily into all common literature databanks and citation aid programs


List of essential papers. We consider these as the minimum necessary citations

  1. Neese,F.
     Software update: the ORCA program system, version 5.0
     WIRES Comput. Molec. Sci., 2022 12(1)e1606
     doi.org/10.1002/wcms.1606
  2. Grimme,S.; Hansen,A.; Ehlert,S.; Mewes,J.
     r2SCAN-3c: A 'Swiss army knife' composite electronic-structure method
     J. Chem. Phys., 2021 154 064103
     doi.org/10.1063/5.0040021

List of papers to cite with high priority. The work reported in these papers was absolutely
necessary for this run to complete.
Our perspective: the developers of density functionals and basis sets usually get cited in chemistry papers
Good! But without the algorithms to do something with them, the functionals or basis sets would not do anything.
Hence, in our opinion, the algorithm design and method developments papers are equally worthy of getting cited

  1. Neese,F.
     An improvement of the resolution of the identity approximation for the formation of the Coulomb matrix
     J. Comp. Chem., 2003 24(14)1740-1747
     doi.org/10.1002/jcc.10318
  2. Garcia-Rates,M.; Neese,F.
     Effect of the Solute Cavity on the Solvation Energy and its Derivatives within the Framework of the Gaussian Charge Scheme
     J. Comput. Chem., 2020 41 922-939
     doi.org/10.1002/jcc.26139
  3. Neese,F.
     The SHARK Integral Generation and Digestion System
     J. Comp. Chem., 2022  1-16
     doi.org/10.1002/jcc.26942
  4. Lehtola,S.; Steigemann,C.; Oliveira,M.; Marques,M.
     Recent developments in Libxc - A comprehensive library of functionals for density functional theory
     Software X, 2018 7 
     doi.org/10.1016/j.softx.2017.11.002
  5. Caldeweyher,E.; Bannwarth,C.; Grimme,S.
     Extension of the D3 dispersion coefficient model
     J. Chem. Phys., 2017 147 034112-XXXX
     doi.org/10.1063/1.4993215
  6. Caldeweyher,E.; Ehlert,S.; Hansen,A.; Neugebauer,H.; Spicher,S.; Bannwarth,C.; Grimme,S.
     A generally applicable atomic-charge dependent London dispersion correction
     J. Chem. Phys., 2019 150 154122-XXXX
     doi.org/10.1063/1.5090222
  7. Caldeweyher,E.; Mewes,J.; Ehlert,S.; Grimme,S.
     Extension and evaluation of the D4 London-dispersion model for periodic systems
     Phys. Chem. Chem. Phys., 2020 22(16)8499-8512
     doi.org/10.1039/D0CP00502A

List of suggested additional citations. These are papers that are important in the 'surrounding' of 
of this run, or papers that preceded the highly important papers. If you like your results we are grateful for a citation.

  1. Neese,F.
     The ORCA program system
     WIRES Comput. Molec. Sci., 2012 2(1)73-78
     doi.org/10.1002/wcms.81
  2. Neese,F.
     Software update: the ORCA program system, version 4.0
     WIRES Comput. Molec. Sci., 2018 8(1)1-6
     doi.org/10.1002/wcms.1327
  3. Neese,F.; Wennmohs,F.; Becker,U.; Riplinger,C.
     The ORCA quantum chemistry program package
     J. Chem. Phys., 2020 152 Art. No. L224108
     doi.org/10.1063/5.0004608

List of optional additional citations

  1. Neese,F.
     Approximate second-order SCF convergence for spin unrestricted wavefunctions
     Chem. Phys. Lett., 2000 325(1-3)93-98
     doi.org/10.1016/s0009-2614(00)00662-x

Timings for individual modules:

Sum of individual times          ...       27.317 sec (=   0.455 min)
Startup calculation              ...        1.577 sec (=   0.026 min)   5.8 %
SCF iterations                   ...       10.232 sec (=   0.171 min)  37.5 %
Property calculations            ...        0.114 sec (=   0.002 min)   0.4 %
SCF Gradient evaluation          ...       15.393 sec (=   0.257 min)  56.4 %
                             ****ORCA TERMINATED NORMALLY****
TOTAL RUN TIME: 0 days 0 hours 0 minutes 28 seconds 201 msec
  ------------------------------------------------------------------------
          * successful ORCA run, taking over control again...

         :::::::::::::::::::::::::::::::::::::::::::::::::::::
         ::                  ORCA SUMMARY                   ::
         :::::::::::::::::::::::::::::::::::::::::::::::::::::
         :: total energy            -315.578337327482 Eh    ::
         :: gradient norm              0.000758393736 Eh/a0 ::
         :: HOMO-LUMO gap              0.000000000000 eV    ::
         :::::::::::::::::::::::::::::::::::::::::::::::::::::

           -------------------------------------------------
          |                Property Printout                |
           -------------------------------------------------
           -------------------------------------------------
          |                Geometry Summary                 |
           -------------------------------------------------

      molecular mass/u    :      114.2288207
   center of mass at/Å    :       -0.0004102       0.0018301       0.0000224
  moments of inertia/u·Å² :        0.2085171E+03   0.3390409E+03   0.4250520E+03
rotational constants/cm⁻¹ :        0.8084533E-01   0.4972153E-01   0.3966017E-01

 * 23 selected distances

     #   Z          #   Z                                           value/Å
     1   6 C        2   6 C                                       1.5347198
     2   6 C        3   6 C                                       1.5319095
     4   6 C        5   6 C                                       1.5358602 (max)
     6   6 C        7   6 C                                       1.5307995
     6   6 C        8   6 C                                       1.5329844
     1   6 C        9   1 H                                       1.0977170
     1   6 C       10   1 H                                       1.0953399
     1   6 C       11   1 H                                       1.0927971
     2   6 C       12   1 H                                       1.0996783
     3   6 C       13   1 H                                       1.0915000 (min)
     3   6 C       14   1 H                                       1.0973033
     3   6 C       15   1 H                                       1.0957975
     4   6 C       16   1 H                                       1.1016193
     5   6 C       17   1 H                                       1.0925235
     5   6 C       18   1 H                                       1.0949800
     5   6 C       19   1 H                                       1.0972126
     6   6 C       20   1 H                                       1.0989123
     7   6 C       21   1 H                                       1.0952984
     7   6 C       22   1 H                                       1.0952133
     7   6 C       23   1 H                                       1.0957699
     8   6 C       24   1 H                                       1.0928186
     8   6 C       25   1 H                                       1.0963736
     8   6 C       26   1 H                                       1.0959190

 * 2 distinct bonds (by element types)

   Z      Z             #   av. dist./Å        max./Å        min./Å
   1 H    6 C          18     1.0959319     1.1016193     1.0915000
   6 C    6 C           5     1.5332547     1.5358602     1.5307995


optimized geometry written to: xtbopt.coord


           -------------------------------------------------
          | TOTAL ENERGY             -315.578337327482 Eh   |
          | GRADIENT NORM               0.000758393736 Eh/α |
           -------------------------------------------------

------------------------------------------------------------------------
 * finished run on 2025/04/11 at 11:29:50.811     
------------------------------------------------------------------------
 total:
 * wall-time:     0 d,  0 h,  5 min, 19.871 sec
 *  cpu-time:     0 d,  0 h,  0 min,  0.969 sec
 * ratio c/w:     0.003 speedup
 SCF:
 * wall-time:     0 d,  0 h,  0 min, 37.774 sec
 *  cpu-time:     0 d,  0 h,  0 min,  0.428 sec
 * ratio c/w:     0.011 speedup
 ANC optimizer:
 * wall-time:     0 d,  0 h,  4 min, 42.045 sec
 *  cpu-time:     0 d,  0 h,  0 min,  0.501 sec
 * ratio c/w:     0.002 speedup

