17
 energy: -23.956323504351 gnorm: 0.041175636445 xtb: 6.7.1 (edcfbbe)
C           -2.34596719691686        0.92730023440828       -0.58446432127182
C           -1.83262080144039        0.17537402548317        0.65437478240090
C           -0.53948133014003       -0.51610185053523        0.32813365323857
O           -0.42687338888817       -1.70577003566561        0.05262693194903
O            0.49871064304636        0.34868890981832        0.32992730061935
C            1.78600572799435       -0.19437159451828       -0.10330931212513
C            2.73896759143027        0.97166263745926       -0.27016626660550
H           -3.29112614394646        1.42332836447485       -0.35205584367079
H           -1.62825486927719        1.68500873356253       -0.90758088745403
H           -2.51537916835814        0.23246333904065       -1.41226063359339
H           -2.55403371020664       -0.58362276867632        0.96281950388378
H           -1.66922006841965        0.87649921230599        1.47767344196451
H            2.13386166364413       -0.90161799880239        0.65841249576968
H            1.63257311068005       -0.73007396696154       -1.04593953939407
H            3.71177431658389        0.58143759474290       -0.57938078147687
H            2.37981405222014        1.66520642157731       -1.04046365975808
H            2.86830593239374        1.51658024284010        0.67210527165444
17
 energy: -23.957762771345 gnorm: 0.013716940845 xtb: 6.7.1 (edcfbbe)
C           -2.34536279003326        0.92455220528397       -0.58085953469080
C           -1.83023512082329        0.17633946296181        0.65274091957054
C           -0.53733119545642       -0.51131715736202        0.31547479508573
O           -0.42357833169685       -1.69050428816975        0.04775485772632
O            0.49405760368647        0.33810581285695        0.31098016645977
C            1.78079448003755       -0.18798587971761       -0.10265546848894
C            2.74277353550367        0.96936488728776       -0.27102285964560
H           -3.28537056388039        1.41731118060224       -0.34437455498743
H           -1.62460209615306        1.67562887819471       -0.89708620592124
H           -2.51225499722139        0.23020126365663       -1.40291829187111
H           -2.55261255499791       -0.57941219230304        0.96241606561007
H           -1.65741150971848        0.88195583052922        1.46606507895536
H            2.12005095618616       -0.89164720214523        0.66295812840973
H            1.63245018971776       -0.73462833109985       -1.03808753459623
H            3.71443125194786        0.58643301610282       -0.57522604756357
H            2.37888001752709        1.65676524832785       -1.03197823310348
H            2.85237748577390        1.51082876554753        0.66627085518143
17
 energy: -23.957974892243 gnorm: 0.005643295742 xtb: 6.7.1 (edcfbbe)
C           -2.34396159051237        0.92507873168353       -0.57930721590109
C           -1.82465355845311        0.17941515446512        0.65327236357646
C           -0.53230679257083       -0.51044505939826        0.31023146051112
O           -0.42105922484732       -1.68746762359259        0.04034898758290
O            0.49234938315120        0.33268048122299        0.29531420264035
C            1.77584933802840       -0.18864898693099       -0.10361521841760
C            2.73700938568389        0.97055383456512       -0.26958037369147
H           -3.28237609252047        1.41580782737512       -0.34162911148921
H           -1.62375617705750        1.67434644348807       -0.89528592725859
H           -2.51050679276658        0.23027278214336       -1.39861553557531
H           -2.54460689017438       -0.57569672158828        0.96704816171466
H           -1.64471956533784        0.88661129076687        1.46179461187428
H            2.11287298616416       -0.88759445459751        0.66751455192565
H            1.63952579817559       -0.74549028205017       -1.03585850125747
H            3.70775605662346        0.58856136725175       -0.56775023653119
H            2.37326959030036        1.65374352090149       -1.03026740000966
H            2.83637050651275        1.51026319484836        0.66683731643673
17
 energy: -23.958013806592 gnorm: 0.002005149237 xtb: 6.7.1 (edcfbbe)
C           -2.34470819983604        0.92588816982404       -0.57846036906173
C           -1.82187518746089        0.18141388173237        0.65367096779848
C           -0.53140488825258       -0.51094380409654        0.30329072777831
O           -0.42367752672060       -1.69072154756855        0.03761498381352
O            0.49178905436342        0.32960664736768        0.28473688397909
C            1.77502067596061       -0.19058904015135       -0.10410784251387
C            2.73430378362724        0.97151702759784       -0.26809296173775
H           -3.28267181392804        1.41635908023873       -0.33872462987871
H           -1.62529119563006        1.67510389799672       -0.89662885724612
H           -2.51265216003580        0.23004648105343       -1.39665376732784
H           -2.54062703543935       -0.57220325750643        0.97315616052502
H           -1.63518730293934        0.88980077602202        1.45945447805193
H            2.11112588959952       -0.88680998844565        0.67077102365262
H            1.64881904218694       -0.75262155856061       -1.03551763374234
H            3.70709757093296        0.59193758963251       -0.56158310086702
H            2.37033259489049        1.65215462678772       -1.03112653529630
H            2.82666305908097        1.51205251863006        0.66865260820329
17
 energy: -23.958025792971 gnorm: 0.001128992664 xtb: 6.7.1 (edcfbbe)
C           -2.34604919525723        0.92683296264741       -0.57787789410423
C           -1.81991762500821        0.18270975071328        0.65335665984380
C           -0.53104433964869       -0.51321201753512        0.30162981497546
O           -0.42779043160504       -1.69460761328023        0.03646005178775
O            0.49192052567806        0.32644049457033        0.27727030239569
C            1.77580864016986       -0.19281191443819       -0.10533122008576
C            2.73288490226045        0.97230331684889       -0.26694938019486
H           -3.28384628950777        1.41751094800884       -0.33638906793780
H           -1.62752615320977        1.67636549942518       -0.89833544281808
H           -2.51586223730869        0.23040630929433       -1.39558849204610
H           -2.53895663241816       -0.56863635659342        0.97724640459719
H           -1.62819510313176        0.89181786494546        1.45741167216508
H            2.11123887741931       -0.88680102650481        0.67249155390461
H            1.65735848149882       -0.75787544037548       -1.03627093407556
H            3.70855197173629        0.59612401428803       -0.55601726870972
H            2.36911451777922        1.65096212642968       -1.03257461518448
H            2.81936645095272        1.51446258210979        0.66991999161758
17
 energy: -23.958029118988 gnorm: 0.001065658490 xtb: 6.7.1 (edcfbbe)
C           -2.34800617504320        0.92712149215773       -0.57744089576708
C           -1.81872684551297        0.18368169268808        0.65270036205024
C           -0.53172857089399       -0.51458723022723        0.29825877730474
O           -0.43081426662334       -1.69721424516306        0.03738626788551
O            0.49230042537172        0.32435180490228        0.27237380044531
C            1.77767800912192       -0.19468075084071       -0.10622356215428
C            2.73282929199273        0.97251453493616       -0.26574789020366
H           -3.28533521066756        1.41792205116293       -0.33340791306449
H           -1.63068274508722        1.67693690512099       -0.90048843733660
H           -2.52030819781603        0.23050772489970       -1.39471014800631
H           -2.53804643915545       -0.56577378651445        0.98045570741895
H           -1.62316392247828        0.89366900361939        1.45533638045241
H            2.11183415471142       -0.88766188880433        0.67317381920925
H            1.66330386743139       -0.75991885362909       -1.03727128071041
H            3.71090531711559        0.59910479933397       -0.55090353396504
H            2.37019014356360        1.64956340202296       -1.03375695379432
H            2.81482752436911        1.51645484488863        0.67071763636635
17
 energy: -23.958030749615 gnorm: 0.000262837094 xtb: 6.7.1 (edcfbbe)
C           -2.34911563927915        0.92712227960038       -0.57727525865999
C           -1.81816043773499        0.18409632558166        0.65218466234436
C           -0.53170398701859       -0.51528993927654        0.29843969729204
O           -0.43098253948473       -1.69753793944261        0.03784076104304
O            0.49242500629774        0.32386648088334        0.27101164866529
C            1.77848289969447       -0.19507872118817       -0.10710776898509
C            2.73329367713638        0.97235544069757       -0.26524779732942
H           -3.28603604559686        1.41795062969265       -0.33190652292782
H           -1.63241969595554        1.67683246632878       -0.90169561400689
H           -2.52283893581311        0.23040980879573       -1.39406227446841
H           -2.53756671702533       -0.56471637376830        0.98116486047479
H           -1.62164449965274        0.89448503903794        1.45418693418879
H            2.11171371132989       -0.88793067808312        0.67256340885802
H            1.66464473798133       -0.75974677320257       -1.03827751465108
H            3.71234558856255        0.59963101052628       -0.54774310376361
H            2.37204099635110        1.64852927396292       -1.03451238033361
H            2.81257824060702        1.51701317040802        0.67088839839016
17
 energy: -23.958031648608 gnorm: 0.000372615396 xtb: 6.7.1 (edcfbbe)
C           -2.35021606075783        0.92681726831655       -0.57709823573146
C           -1.81772292149316        0.18452293906356        0.65206438599872
C           -0.53155330389315       -0.51507097962130        0.29761971763978
O           -0.43020727036218       -1.69731019109733        0.03798856336134
O            0.49238134599711        0.32427241580623        0.26948458375893
C            1.77869211550536       -0.19503355870926       -0.10801084157824
C            2.73389702445150        0.97215146961886       -0.26467084071100
H           -3.28657703341227        1.41790006096208       -0.33047081287893
H           -1.63386387458734        1.67613257876610       -0.90294487821746
H           -2.52531750147701        0.22973550583954       -1.39317513001504
H           -2.53672678751811       -0.56414986241263        0.98232320553025
H           -1.62021725926222        0.89540333015166        1.45333231183102
H            2.11077986930324       -0.88827237281163        0.67166831556147
H            1.66499494478091       -0.75921845400639       -1.03946168743739
H            3.71363447954262        0.59910567729471       -0.54400893888594
H            2.37477387025529        1.64758035714165       -1.03541168385130
H            2.81030472332666        1.51742531625157        0.67122410175584
17
 energy: -23.958032580055 gnorm: 0.000323115069 xtb: 6.7.1 (edcfbbe)
C           -2.35148161069376        0.92627360187016       -0.57683235112189
C           -1.81736948123648        0.18493892458865        0.65223650367403
C           -0.53132227123164       -0.51456436829271        0.29711566925456
O           -0.42941940850279       -1.69695091971347        0.03812696609850
O            0.49229513439872        0.32510817704306        0.26759083112763
C            1.77857999619979       -0.19474222303991       -0.10942155184167
C            2.73477022198817        0.97191532037947       -0.26390754313728
H           -3.28712792970454        1.41809995925403       -0.32907233953366
H           -1.63523456708471        1.67486207810859       -0.90457108545791
H           -2.52828025747188        0.22845836008759       -1.39189159029276
H           -2.53581613793405       -0.56362869648151        0.98396543137073
H           -1.61887524500853        0.89645654671369        1.45263571581925
H            2.10932707341777       -0.88904116760019        0.66986278887688
H            1.66511653486759       -0.75803500314813       -1.04148846349531
H            3.71548344614334        0.59812981150114       -0.53870920424674
H            2.37901270612221        1.64654551482944       -1.03688597478522
H            2.80739815613023        1.51816558445405        0.67169833382145
17
 energy: -23.958033403566 gnorm: 0.000186501445 xtb: 6.7.1 (edcfbbe)
C           -2.35293562082070        0.92534240453386       -0.57652105551934
C           -1.81710629318271        0.18547339612200        0.65272234115746
C           -0.53113594033823       -0.51361737821560        0.29669132980944
O           -0.42892482085384       -1.69625280444788        0.03864899307353
O            0.49225794602036        0.32627141139270        0.26559809316261
C            1.77823267120986       -0.19417661574703       -0.11134171884980
C            2.73601945916300        0.97157152517149       -0.26284439707064
H           -3.28778274333860        1.41824635473831       -0.32785097847835
H           -1.63669946404285        1.67292602023520       -0.90662494996174
H           -2.53165200445900        0.22642061288839       -1.39022232226253
H           -2.53480190045776       -0.56310310898696        0.98598410374992
H           -1.61800792622696        0.89788163729238        1.45218728170672
H            2.10759472044636       -0.89039237812419        0.66687975134460
H            1.66499038189036       -0.75568282798165       -1.04455441289875
H            3.71774082495063        0.59659744460600       -0.53237240166286
H            2.38468032096879        1.64560398418615       -1.03838495004907
H            2.80458674947073        1.51888182289081        0.67245742887939
17
 energy: -23.958033762865 gnorm: 0.000068829753 xtb: 6.7.1 (edcfbbe)
C           -2.35393802679181        0.92460925595778       -0.57638014745360
C           -1.81687771796877        0.18604222673481        0.65312877421609
C           -0.53099408220737       -0.51296406669331        0.29663884246924
O           -0.42902133977331       -1.69584958773228        0.03936232759016
O            0.49230812147454        0.32697060937417        0.26407588573363
C            1.77799296956336       -0.19382529855679       -0.11289267717013
C            2.73692637129713        0.97134235209786       -0.26195089340707
H           -3.28835898643238        1.41813636745026       -0.32724507285590
H           -1.63785879528236        1.67157091406027       -0.90829175119809
H           -2.53383829360132        0.22469466593806       -1.38898799142981
H           -2.53401541964374       -0.56253512320342        0.98760874380111
H           -1.61752160044265        0.89925298940174        1.45185082486540
H            2.10644353812862       -0.89165412738391        0.66434542688874
H            1.66505854536998       -0.75374349686084       -1.04711900957471
H            3.71922570921759        0.59561950394795       -0.52835441700680
H            2.38846303953021        1.64543946410184       -1.03875051055347
H            2.80306232796171        1.51888485191977        0.67341378121581
17
 energy: -23.958033960931 gnorm: 0.000079237766 xtb: 6.7.1 (edcfbbe)
C           -2.35454881752073        0.92405982996189       -0.57640231052304
C           -1.81676760762939        0.18649894972647        0.65339612917318
C           -0.53092166727022       -0.51248919860838        0.29673073610093
O           -0.42915958476829       -1.69554670355091        0.04010416623415
O            0.49236231114235        0.32742516934164        0.26326411448312
C            1.77785748221641       -0.19361189179431       -0.11387852759741
C            2.73754131455546        0.97116279476040       -0.26131983411858
H           -3.28885287330582        1.41779615188875       -0.32718148068820
H           -1.63866821136746        1.67077236391177       -0.90931301931683
H           -2.53488001756397        0.22348855755495       -1.38835976957138
H           -2.53357203953737       -0.56205730434551        0.98864367822436
H           -1.61734548393008        0.90028112761054        1.45161127597911
H            2.10576141192476       -0.89257069999256        0.66260601728997
H            1.66500742018205       -0.75235636562863       -1.04882177187305
H            3.71993432872063        0.59506380592215       -0.52682914683560
H            2.39031225920183        1.64583800021302       -1.03817022743534
H            2.80299613534928        1.51823691358268        0.67437210660520
17
 energy: -23.958034195174 gnorm: 0.000104251691 xtb: 6.7.1 (edcfbbe)
C           -2.35510798268957        0.92357139067087       -0.57649580975604
C           -1.81663363164340        0.18700045097510        0.65358301781779
C           -0.53084361947401       -0.51209005148433        0.29683127904331
O           -0.42931877672085       -1.69532797735628        0.04092732557200
O            0.49240514392565        0.32778917969945        0.26239967605894
C            1.77778752841184       -0.19348860085812       -0.11472708770064
C            2.73807574747943        0.97098487051417       -0.26069716726568
H           -3.28947097574755        1.41721603562660       -0.32726306511692
H           -1.63959235349156        1.67026956885293       -0.91023888937659
H           -2.53557507010999        0.22237347603400       -1.38788614477767
H           -2.53313591384225       -0.56147753381986        0.98966296198329
H           -1.61707509125986        0.90139010847732        1.45123311031743
H            2.10510701516333       -0.89341497237447        0.66115660676420
H            1.66511631665983       -0.75121128764588       -1.05030446827413
H            3.72036824712470        0.59468010408660       -0.52631838201948
H            2.39138160043261        1.64660987870574       -1.03697033005622
H            2.80356817618108        1.51711686045010        0.67555950291703
17
 energy: -23.958034600504 gnorm: 0.000120568474 xtb: 6.7.1 (edcfbbe)
C           -2.35604246917797        0.92278277429469       -0.57672017822476
C           -1.81642367235690        0.18781691681510        0.65380630522212
C           -0.53072363889450       -0.51144813783561        0.29697590994577
O           -0.42937398469240       -1.69496546337208        0.04230186070694
O            0.49244646501492        0.32843376933508        0.26106229723051
C            1.77770150502956       -0.19329199708997       -0.11597312190858
C            2.73894434291462        0.97066657719415       -0.25970611219968
H           -3.29059773034842        1.41608265056619       -0.32747637511971
H           -1.64120668465119        1.66961755532567       -0.91161155064328
H           -2.53651844150393        0.22066636597736       -1.38732114110170
H           -2.53246850699212       -0.56049441200572        0.99123751597560
H           -1.61655312782646        0.90316775374801        1.45052463217305
H            2.10398654005276       -0.89464089607967        0.65906795702878
H            1.66523766844413       -0.74952048898428       -1.05246042307006
H            3.72087602662211        0.59408375434942       -0.52631060796251
H            2.39262810228728        1.64812686120191       -1.03455908073212
H            2.80514396647795        1.51490791711370        0.67761424881021
17
 energy: -23.958035258807 gnorm: 0.000127665814 xtb: 6.7.1 (edcfbbe)
C           -2.35772696651577        0.92136962776917       -0.57713219180072
C           -1.81603419476929        0.18925309522645        0.65417011508604
C           -0.53049979656447       -0.51029061122437        0.29720991819589
O           -0.42915635718646       -1.69427032527327        0.04471125636005
O            0.49246989094171        0.32968936759564        0.25864444145623
C            1.77748010665664       -0.19288284344322       -0.11822244195430
C            2.74050364523011        0.97007532527194       -0.25790776982043
H           -3.29259184412677        1.41403763660267       -0.32778882692052
H           -1.64412304136751        1.66840773361736       -0.91421552833907
H           -2.53830097627034        0.21753073986665       -1.38621748156311
H           -2.53126162312929       -0.55869573866506        0.99416723225755
H           -1.61543438450072        0.90639827670217        1.44909035733498
H            2.10181249921555       -0.89680071405839        0.65531222839210
H            1.66530216970506       -0.74644530351141       -1.05631844339862
H            3.72173957835180        0.59291972960126       -0.52633116592387
H            2.39489688788277        1.65093133440096       -1.03011682957794
H            2.80798076684642        1.51076417007539        0.68139726634635
17
 energy: -23.958035971219 gnorm: 0.000106106174 xtb: 6.7.1 (edcfbbe)
C           -2.36006007162507        0.91932142073536       -0.57769934141287
C           -1.81543308873499        0.19125144847051        0.65471631477269
C           -0.53020558707345       -0.50872736481594        0.29751966310427
O           -0.42870145261995       -1.69331048199087        0.04791130549059
O            0.49249204446166        0.33143042643918        0.25535649587914
C            1.77709972624362       -0.19228148047628       -0.12143488304328
C            2.74260276417436        0.96927772314324       -0.25537449217760
H           -3.29511923575870        1.41148039843642       -0.32809786725330
H           -1.64794579446049        1.66634982909759       -0.91791257897019
H           -2.54109271451204        0.21314014577875       -1.38464863511329
H           -2.52959807457103       -0.55607471733915        0.99830124672043
H           -1.61364880549849        0.91085673838418        1.44710941043276
H            2.09876127591106       -0.89981951022428        0.64990976767622
H            1.66522450811956       -0.74209417088330       -1.06177547977158
H            3.72299597469836        0.59132826785647       -0.52578218206996
H            2.39830459018525        1.65461993820431       -1.02419753103116
H            2.81138030145976        1.50524288973776        0.68655092289772
17
 energy: -23.958036421040 gnorm: 0.000069607301 xtb: 6.7.1 (edcfbbe)
C           -2.36172539252823        0.91774093581865       -0.57809377426226
C           -1.81496462877087        0.19275027462472        0.65518848718759
C           -0.53002084055007       -0.50758147036323        0.29776630015597
O           -0.42832565250908       -1.69257816648430        0.05025813727492
O            0.49248306451013        0.33271715767342        0.25292081379249
C            1.77673685768951       -0.19177955190004       -0.12401933638947
C            2.74413678280740        0.96868937910377       -0.25337957156503
H           -3.29675618696947        1.40981963556759       -0.32826625136161
H           -1.65059441307941        1.66444966537431       -0.92108556870355
H           -2.54345368253203        0.20955467206051       -1.38311728898720
H           -2.52834421349921       -0.55399031903794        1.00168609106674
H           -1.61217501892239        0.91435335376884        1.44548475438903
H            2.09641880414381       -0.90227806689011        0.64541578963748
H            1.66503439971495       -0.73847636072475       -1.06619151528129
H            3.72401477422140        0.59015737110462       -0.52481983275137
H            2.40116280923381        1.65734978295760       -1.01980621091178
H            2.81342889743920        1.50109320790030        0.69051111283995
17
 energy: -23.958036664076 gnorm: 0.000037013460 xtb: 6.7.1 (edcfbbe)
C           -2.36254635725657        0.91678787595629       -0.57832100077016
C           -1.81463794831024        0.19361484222210        0.65552386850865
C           -0.52993259686708       -0.50703114568334        0.29794461369492
O           -0.42820358328251       -1.69221959928244        0.05140808353361
O            0.49250466237687        0.33330187007385        0.25171640366790
C            1.77650688952138       -0.19153554643440       -0.12552974069319
C            2.74484371987013        0.96842535524121       -0.25224057478298
H           -3.29733569047723        1.40923382829978       -0.32834399595981
H           -1.65170666267990        1.66300192685572       -0.92292908556390
H           -2.54496687675604        0.20751636139955       -1.38222654777226
H           -2.52767257852059       -0.55269103634612        1.00361262544018
H           -1.61119987359446        0.91630072983722        1.44465216314579
H            2.09521948212698       -0.90373437787438        0.64271665151222
H            1.66482449407943       -0.73639312332435       -1.06876358384948
H            3.72456417509862        0.58965899032812       -0.52388942028587
H            2.40275651141504        1.65874199041027       -1.01753937986558
H            2.81403859365562        1.49901255887487        0.69266105617057
17
 energy: -23.958036816051 gnorm: 0.000035934521 xtb: 6.7.1 (edcfbbe)
C           -2.36284905468542        0.91626945791353       -0.57843550569973
C           -1.81446656602954        0.19405843761545        0.65576260497572
C           -0.52992819226799       -0.50680700828758        0.29807597921482
O           -0.42822871483960       -1.69206450652852        0.05190841171508
O            0.49250502719043        0.33352017005229        0.25123474598175
C            1.77635253117402       -0.19140818717205       -0.12639995409723
C            2.74514108536850        0.96832762001693       -0.25159802970495
H           -3.29735989408116        1.40920803570009       -0.32840478719148
H           -1.65199447531318        1.66195292730808       -0.92417379704345
H           -2.54590889915101        0.20626268899268       -1.38153673364049
H           -2.52736049508242       -0.55194217409954        1.00478890566384
H           -1.61063563638429        0.91739903160596        1.44417513174030
H            2.09466362243675       -0.90465490730136        0.64103050955402
H            1.66458815436848       -0.73509702854203       -1.07029344736045
H            3.72486078481543        0.58951213267676       -0.52315453077629
H            2.40362228692441        1.65949190009283       -1.01637085947553
H            2.81405479595605        1.49796291051041        0.69384349227466
17
 energy: -23.958036926729 gnorm: 0.000031666562 xtb: 6.7.1 (edcfbbe)
C           -2.36296467157600        0.91587343176150       -0.57854137882346
C           -1.81433090087575        0.19437785617605        0.65597479067118
C           -0.52993276894819       -0.50669483932474        0.29821489965752
O           -0.42835198451990       -1.69197662972391        0.05212517981516
O            0.49253282469953        0.33357918445282        0.25109306104294
C            1.77623694880796       -0.19134935596885       -0.12698658682352
C            2.74525525230043        0.96830808783709       -0.25115189717080
H           -3.29717404609452        1.40937911542725       -0.32851361546907
H           -1.65194351891853        1.66101644809105       -0.92509278712023
H           -2.54660373329647        0.20535143675525       -1.38105159244565
H           -2.52718984191127       -0.55136409044039        1.00560777441552
H           -1.61021943554463        0.91816240959870        1.44390278204471
H            2.09439359701983       -0.90536461019500        0.63979573416194
H            1.66433281255678       -0.73416241031660       -1.07136998740898
H            3.72498340803144        0.58952010544140       -0.52269344478586
H            2.40405330601315        1.66005770272416       -1.01553787673471
H            2.81397911265560        1.49727765825816        0.69467708110392
17
 energy: -23.958037010941 gnorm: 0.000022410308 xtb: 6.7.1 (edcfbbe)
C           -2.36299336900517        0.91555519684269       -0.57864261979946
C           -1.81423089466045        0.19463314677653        0.65615974263702
C           -0.52995507975293       -0.50663124238105        0.29834441653842
O           -0.42853662233119       -1.69191832585169        0.05220231121764
O            0.49256335797798        0.33356576514673        0.25111159864708
C            1.77614270398168       -0.19131499962944       -0.12742134107169
C            2.74530742395050        0.96830854974439       -0.25079004253823
H           -3.29692522231107        1.40960330391064       -0.32864964602475
H           -1.65178190142351        1.66019016697191       -0.92590555683966
H           -2.54715101967770        0.20457607432757       -1.38062853403110
H           -2.52708102540020       -0.55088120316187        1.00628470059051
H           -1.60990132165348        0.91879306999518        1.44368303102862
H            2.09426569282616       -0.90595679406314        0.63879019295812
H            1.66409281493043       -0.73340114002932       -1.07220731781354
H            3.72502533724997        0.58961560813481       -0.52249116584577
H            2.40421891652130        1.66057061730421       -1.01475899174982
H            2.81399656917714        1.49668370651577        0.69537135822722
