      -----------------------------------------------------------      
     |                   =====================                   |     
     |                           x T B                           |     
     |                   =====================                   |     
     |                         S. Grimme                         |     
     |          Mulliken Center for Theoretical Chemistry        |     
     |                    University of Bonn                     |     
      -----------------------------------------------------------      

   * xtb version 6.7.1 (edcfbbe) compiled by 'albert@albert-system' on 2024-07-22

   xtb is free software: you can redistribute it and/or modify it under
   the terms of the GNU Lesser General Public License as published by
   the Free Software Foundation, either version 3 of the License, or
   (at your option) any later version.
   
   xtb is distributed in the hope that it will be useful,
   but WITHOUT ANY WARRANTY; without even the implied warranty of
   MERCHANTABILITY or FITNESS FOR A PARTICULAR PURPOSE.  See the
   GNU Lesser General Public License for more details.
   
   Cite this work as:
   * C. Bannwarth, E. Caldeweyher, S. Ehlert, A. Hansen, P. Pracht,
     J. Seibert, S. Spicher, S. Grimme, WIREs Comput. Mol. Sci., 2020, 11,
     e01493. DOI: 10.1002/wcms.1493
   
   for GFN2-xTB:
   * C. Bannwarth, S. Ehlert and S. Grimme., J. Chem. Theory Comput., 2019,
     15, 1652-1671. DOI: 10.1021/acs.jctc.8b01176
   for GFN1-xTB:
   * S. Grimme, C. Bannwarth, P. Shushkov, J. Chem. Theory Comput., 2017,
     13, 1989-2009. DOI: 10.1021/acs.jctc.7b00118
   for GFN0-xTB:
   * P. Pracht, E. Caldeweyher, S. Ehlert, S. Grimme, ChemRxiv, 2019, preprint.
     DOI: 10.26434/chemrxiv.8326202.v1
   for GFN-FF:
   * S. Spicher and S. Grimme, Angew. Chem. Int. Ed., 2020, 59, 15665-15673.
     DOI: 10.1002/anie.202004239
   
   for ALPB and GBSA implicit solvation:
   * S. Ehlert, M. Stahn, S. Spicher, S. Grimme, J. Chem. Theory Comput.,
     2021, 17, 4250-4261. DOI: 10.1021/acs.jctc.1c00471
   
   for ddCOSMO and CPCM-X implicit solvation:
   * M. Stahn, S. Ehlert, S. Grimme, J. Phys. Chem. A,
     2023, XX, XXXX-XXXX. DOI: 10.1021/acs.jpca.3c04382
   
   for DFT-D4:
   * E. Caldeweyher, C. Bannwarth and S. Grimme, J. Chem. Phys., 2017,
     147, 034112. DOI: 10.1063/1.4993215
   * E. Caldeweyher, S. Ehlert, A. Hansen, H. Neugebauer, S. Spicher,
     C. Bannwarth and S. Grimme, J. Chem. Phys., 2019, 150, 154122.
     DOI: 10.1063/1.5090222
   * E. Caldeweyher, J.-M. Mewes, S. Ehlert and S. Grimme, Phys. Chem. Chem. Phys.
     2020, 22, 8499-8512. DOI: 10.1039/D0CP00502A
   
   for sTDA-xTB:
   * S. Grimme and C. Bannwarth, J. Chem. Phys., 2016, 145, 054103.
     DOI: 10.1063/1.4959605
   
   in the mass-spec context:
   * V. Asgeirsson, C. Bauer and S. Grimme, Chem. Sci., 2017, 8, 4879.
     DOI: 10.1039/c7sc00601b
   * J. Koopman and S. Grimme, ACS Omega 2019, 4, 12, 15120-15133.
     DOI: 10.1021/acsomega.9b02011
   
   for metadynamics refer to:
   * S. Grimme, J. Chem. Theory Comput., 2019, 155, 2847-2862
     DOI: 10.1021/acs.jctc.9b00143
   
   for SPH calculations refer to:
   * S. Spicher and S. Grimme, J. Chem. Theory Comput., 2021, 17, 1701-1714
     DOI: 10.1021/acs.jctc.0c01306
   
   for ONIOM refer to:
   * C. Plett, A. Katbashev, S. Ehlert, S. Grimme, M. Bursch,
     Phys. Chem. Chem. Phys., 2023, 25, 17860-17868. DOI: 10.1039/D3CP02178E
   
   for DIPRO refer to:
   * J. Kohn, N. Gildemeister, S. Grimme, D. Fazzi, A. Hansen,
     J. Chem. Phys., 2023, just accepted.
   
   for PTB refer to:
   * S. Grimme, M. Mueller, A. Hansen, J. Chem. Phys., 2023, 158, 124111.
     DOI: 10.1063/5.0137838
   
   with help from (in alphabetical order)
   P. Atkinson, C. Bannwarth, F. Bohle, G. Brandenburg, E. Caldeweyher
   M. Checinski, S. Dohm, S. Ehlert, S. Ehrlich, I. Gerasimov, C. Hölzer
   A. Katbashev, J. Kohn, J. Koopman, C. Lavigne, S. Lehtola, F. März, M. Müller,
   F. Musil, H. Neugebauer, J. Pisarek, C. Plett, P. Pracht, F. Pultar,
   J. Seibert, P. Shushkov, S. Spicher, M. Stahn, M. Steiner, T. Strunk,
   J. Stückrath, T. Rose, and J. Unsleber
   
 * started run on 2025/04/11 at 11:15:42.554     
   ID    Z sym.   atoms
    1    6 C      1-9
    2    1 H      10-29

           -------------------------------------------------
          |                Calculation Setup                |
           -------------------------------------------------

          program call               : /srv/scratch/z5358697/.xtb/bin/xtb gas.coord --gfn2 --sp --chrg 0 --norestart --parallel 1
          hostname                   : k063
          coordinate file            : gas.coord
          omp threads                :                     1


           -------------------------------------------------
          |                 G F N 2 - x T B                 |
           -------------------------------------------------

        Reference                      10.1021/acs.jctc.8b01176
      * Hamiltonian:
        H0-scaling (s, p, d)           1.850000    2.230000    2.230000
        zeta-weighting                 0.500000
      * Dispersion:
        s8                             2.700000
        a1                             0.520000
        a2                             5.000000
        s9                             5.000000
      * Repulsion:
        kExp                           1.500000    1.000000
        rExp                           1.000000
      * Coulomb:
        alpha                          2.000000
        third order                    shell-resolved
        anisotropic                    true
        a3                             3.000000
        a5                             4.000000
        cn-shift                       1.200000
        cn-exp                         4.000000
        max-rad                        5.000000


          ...................................................
          :                      SETUP                      :
          :.................................................:
          :  # basis functions                  56          :
          :  # atomic orbitals                  56          :
          :  # shells                           38          :
          :  # electrons                        56          :
          :  max. iterations                   250          :
          :  Hamiltonian                  GFN2-xTB          :
          :  restarted?                      false          :
          :  GBSA solvation                  false          :
          :  PC potential                    false          :
          :  electronic temp.          300.0000000     K    :
          :  accuracy                    1.0000000          :
          :  -> integral cutoff          0.2500000E+02      :
          :  -> integral neglect         0.1000000E-07      :
          :  -> SCF convergence          0.1000000E-05 Eh   :
          :  -> wf. convergence          0.1000000E-03 e    :
          :  Broyden damping             0.4000000          :
          :  net charge                          0          :
          :  unpaired electrons                  0          :
          ...................................................

 iter      E             dE          RMSdq      gap      omega  full diag
   1    -29.8657108 -0.298657E+02  0.234E+00   12.67       0.0  T
   2    -29.9361836 -0.704729E-01  0.130E+00   12.54       1.0  T
   3    -29.9374882 -0.130461E-02  0.672E-01   12.57       1.0  T
   4    -29.9376036 -0.115327E-03  0.183E-01   12.55       1.0  T
   5    -29.9379113 -0.307683E-03  0.596E-02   12.56       1.0  T
   6    -29.9379104  0.820406E-06  0.998E-03   12.56       1.9  T
   7    -29.9379119 -0.141606E-05  0.165E-03   12.56      11.3  T
   8    -29.9379119 -0.125776E-07  0.652E-04   12.56      28.5  T
   9    -29.9379119 -0.148863E-08  0.145E-04   12.56     127.9  T

   *** convergence criteria satisfied after 9 iterations ***

         #    Occupation            Energy/Eh            Energy/eV
      -------------------------------------------------------------
         1        2.0000           -0.6258545             -17.0304
       ...           ...                  ...                  ...
        22        2.0000           -0.4363710             -11.8743
        23        2.0000           -0.4327041             -11.7745
        24        2.0000           -0.4283097             -11.6549
        25        2.0000           -0.4263203             -11.6008
        26        2.0000           -0.4114051             -11.1949
        27        2.0000           -0.4108240             -11.1791
        28        2.0000           -0.4073512             -11.0846 (HOMO)
        29                          0.0542625               1.4766 (LUMO)
        30                          0.0829971               2.2585
        31                          0.0934264               2.5423
        32                          0.0953134               2.5936
        33                          0.1066366               2.9017
       ...                                ...                  ...
        56                          0.3268835               8.8950
      -------------------------------------------------------------
                  HL-Gap            0.4616137 Eh           12.5611 eV
             Fermi-level           -0.1765443 Eh           -4.8040 eV

 SCC (total)                   0 d,  0 h,  0 min,  0.036 sec
 SCC setup                      ...        0 min,  0.000 sec (  0.816%)
 Dispersion                     ...        0 min,  0.000 sec (  0.610%)
 classical contributions        ...        0 min,  0.000 sec (  0.159%)
 integral evaluation            ...        0 min,  0.003 sec (  8.167%)
 iterations                     ...        0 min,  0.024 sec ( 64.712%)
 molecular gradient             ...        0 min,  0.009 sec ( 24.952%)
 printout                       ...        0 min,  0.000 sec (  0.501%)

         :::::::::::::::::::::::::::::::::::::::::::::::::::::
         ::                     SUMMARY                     ::
         :::::::::::::::::::::::::::::::::::::::::::::::::::::
         :: total energy             -29.490487005553 Eh    ::
         :: gradient norm              0.001175316600 Eh/a0 ::
         :: HOMO-LUMO gap             12.561147040945 eV    ::
         ::.................................................::
         :: SCC energy               -29.937711193836 Eh    ::
         :: -> isotropic ES            0.006531116816 Eh    ::
         :: -> anisotropic ES          0.010368147666 Eh    ::
         :: -> anisotropic XC          0.017839170880 Eh    ::
         :: -> dispersion             -0.020634294068 Eh    ::
         :: repulsion energy           0.447224188283 Eh    ::
         :: add. restraining           0.000000000000 Eh    ::
         :: total charge              -0.000000000000 e     ::
         :::::::::::::::::::::::::::::::::::::::::::::::::::::

           -------------------------------------------------
          |                Property Printout                |
           -------------------------------------------------

    * Orbital Energies and Occupations

         #    Occupation            Energy/Eh            Energy/eV
      -------------------------------------------------------------
         1        2.0000           -0.6258545             -17.0304
       ...           ...                  ...                  ...
        16        2.0000           -0.4692495             -12.7689
        17        2.0000           -0.4634673             -12.6116
        18        2.0000           -0.4573226             -12.4444
        19        2.0000           -0.4496067             -12.2344
        20        2.0000           -0.4486138             -12.2074
        21        2.0000           -0.4449076             -12.1066
        22        2.0000           -0.4363710             -11.8743
        23        2.0000           -0.4327041             -11.7745
        24        2.0000           -0.4283097             -11.6549
        25        2.0000           -0.4263203             -11.6008
        26        2.0000           -0.4114051             -11.1949
        27        2.0000           -0.4108240             -11.1791
        28        2.0000           -0.4073512             -11.0846 (HOMO)
        29                          0.0542625               1.4766 (LUMO)
        30                          0.0829971               2.2585
        31                          0.0934264               2.5423
        32                          0.0953134               2.5936
        33                          0.1066366               2.9017
        34                          0.1117353               3.0405
        35                          0.1262515               3.4355
        36                          0.1442567               3.9254
        37                          0.1488228               4.0497
        38                          0.1657362               4.5099
        39                          0.1704120               4.6371
       ...                                ...                  ...
        56                          0.3268835               8.8950
      -------------------------------------------------------------
                  HL-Gap            0.4616137 Eh           12.5611 eV
             Fermi-level           -0.1765443 Eh           -4.8040 eV

     #   Z          covCN         q      C6AA      α(0)
     1   6 C        3.755    -0.105    22.566     6.773
     2   6 C        3.848    -0.010    20.717     6.474
     3   6 C        3.755    -0.104    22.548     6.771
     4   6 C        3.802    -0.061    21.678     6.629
     5   6 C        3.808    -0.066    21.764     6.641
     6   6 C        3.898     0.028    20.051     6.365
     7   6 C        3.760    -0.107    22.595     6.776
     8   6 C        3.760    -0.108    22.619     6.780
     9   6 C        3.763    -0.109    22.622     6.780
    10   1 H        0.925     0.031     2.575     2.509
    11   1 H        0.925     0.032     2.561     2.502
    12   1 H        0.925     0.036     2.496     2.471
    13   1 H        0.924     0.023     2.690     2.565
    14   1 H        0.925     0.032     2.559     2.502
    15   1 H        0.925     0.034     2.524     2.484
    16   1 H        0.925     0.031     2.573     2.508
    17   1 H        0.924     0.030     2.580     2.512
    18   1 H        0.924     0.029     2.595     2.519
    19   1 H        0.924     0.034     2.534     2.489
    20   1 H        0.924     0.033     2.549     2.497
    21   1 H        0.925     0.033     2.546     2.495
    22   1 H        0.925     0.033     2.545     2.495
    23   1 H        0.925     0.033     2.542     2.493
    24   1 H        0.925     0.035     2.515     2.480
    25   1 H        0.925     0.033     2.548     2.496
    26   1 H        0.925     0.033     2.543     2.494
    27   1 H        0.925     0.032     2.561     2.503
    28   1 H        0.925     0.032     2.556     2.500
    29   1 H        0.925     0.034     2.537     2.491

 Mol. C6AA /au·bohr⁶  :       5472.557817
 Mol. C8AA /au·bohr⁸  :     113700.686666
 Mol. α(0) /au        :        109.995817


Wiberg/Mayer (AO) data.
largest (>0.10) Wiberg bond orders for each atom

 ---------------------------------------------------------------------------
     #   Z sym  total        # sym  WBO       # sym  WBO       # sym  WBO
 ---------------------------------------------------------------------------
     1   6 C    3.997 --     2 C    1.009    10 H    0.987    11 H    0.987
                            12 H    0.986
     2   6 C    3.996 --     3 C    1.009     1 C    1.009     4 C    0.993
                            13 H    0.970
     3   6 C    3.997 --     2 C    1.009    16 H    0.987    14 H    0.987
                            15 H    0.984
     4   6 C    3.997 --     5 C    1.009     2 C    0.993    18 H    0.977
                            17 H    0.973
     5   6 C    3.996 --     4 C    1.009     6 C    0.983    20 H    0.975
                            19 H    0.972
     6   6 C    3.992 --     7 C    0.999     8 C    0.999     9 C    0.997
                             5 C    0.983
     7   6 C    3.997 --     6 C    0.999    22 H    0.986    21 H    0.986
                            23 H    0.982
     8   6 C    3.997 --     6 C    0.999    25 H    0.986    26 H    0.986
                            24 H    0.985
     9   6 C    3.996 --     6 C    0.997    27 H    0.986    28 H    0.986
                            29 H    0.986
    10   1 H    0.999 --     1 C    0.987
    11   1 H    0.999 --     1 C    0.987
    12   1 H    0.999 --     1 C    0.986
    13   1 H    0.999 --     2 C    0.970
    14   1 H    0.999 --     3 C    0.987
    15   1 H    0.999 --     3 C    0.984
    16   1 H    0.999 --     3 C    0.987
    17   1 H    0.999 --     4 C    0.973
    18   1 H    0.999 --     4 C    0.977
    19   1 H    0.999 --     5 C    0.972
    20   1 H    0.999 --     5 C    0.975
    21   1 H    0.999 --     7 C    0.986
    22   1 H    0.999 --     7 C    0.986
    23   1 H    0.999 --     7 C    0.982
    24   1 H    0.999 --     8 C    0.985
    25   1 H    0.999 --     8 C    0.986
    26   1 H    0.999 --     8 C    0.986
    27   1 H    0.999 --     9 C    0.986
    28   1 H    0.999 --     9 C    0.986
    29   1 H    0.999 --     9 C    0.986
 ---------------------------------------------------------------------------

Topologies differ in total number of bonds
Writing topology from bond orders to xtbtopo.mol

molecular dipole:
                 x           y           z       tot (Debye)
 q only:        0.005      -0.001       0.008
   full:        0.003      -0.004       0.010       0.028
molecular quadrupole (traceless):
                xx          xy          yy          xz          yz          zz
 q only:       -0.205       0.004       0.068      -0.155      -0.008       0.137
  q+dip:       -0.159      -0.054       0.026      -0.063      -0.108       0.133
   full:       -0.063      -0.015      -0.004      -0.084      -0.053       0.067


           -------------------------------------------------
          | TOTAL ENERGY              -29.490487005553 Eh   |
          | GRADIENT NORM               0.001175316600 Eh/α |
          | HOMO-LUMO GAP              12.561147040945 eV   |
           -------------------------------------------------

------------------------------------------------------------------------
 * finished run on 2025/04/11 at 11:15:42.626     
------------------------------------------------------------------------
 total:
 * wall-time:     0 d,  0 h,  0 min,  0.071 sec
 *  cpu-time:     0 d,  0 h,  0 min,  0.037 sec
 * ratio c/w:     0.519 speedup
 SCF:
 * wall-time:     0 d,  0 h,  0 min,  0.037 sec
 *  cpu-time:     0 d,  0 h,  0 min,  0.024 sec
 * ratio c/w:     0.658 speedup

