
                                 *****************
                                 * O   R   C   A *
                                 *****************

                                            #,                                       
                                            ###                                      
                                            ####                                     
                                            #####                                    
                                            ######                                   
                                           ########,                                 
                                     ,,################,,,,,                         
                               ,,#################################,,                 
                          ,,##########################################,,             
                       ,#########################################, ''#####,          
                    ,#############################################,,   '####,        
                  ,##################################################,,,,####,       
                ,###########''''           ''''###############################       
              ,#####''   ,,,,##########,,,,          '''####'''          '####       
            ,##' ,,,,###########################,,,                        '##       
           ' ,,###''''                  '''############,,,                           
         ,,##''                                '''############,,,,        ,,,,,,###''
      ,#''                                            '''#######################'''  
     '                                                          ''''####''''         
             ,#######,   #######,   ,#######,      ##                                
            ,#'     '#,  ##    ##  ,#'     '#,    #''#        ,####,   ,####,        
            ##       ##  ##   ,#'  ##            #'  '#       #'       #'  '#        
            ##       ##  #######   ##           ,######,      #####,   #    #        
            '#,     ,#'  ##    ##  '#,     ,#' ,#      #,     #,   #   #,  ,#        
             '#######'   ##     ##  '#######'  #'      '#     '####' # '####'        



                #########################################################
                #                        -***-                          #
                #          Department of theory and spectroscopy        #
                #                                                       #
                #                      Frank Neese                      #
                #                                                       #
                #     Directorship, Architecture, Infrastructure        #
                #                    SHARK, DRIVERS                     #
                #        Core code/Algorithms in most modules           #
                #                                                       #
                #        Max Planck Institute fuer Kohlenforschung      #
                #                Kaiser Wilhelm Platz 1                 #
                #                 D-45470 Muelheim/Ruhr                 #
                #                      Germany                          #
                #                                                       #
                #                  All rights reserved                  #
                #                        -***-                          #
                #########################################################


                         Program Version 6.0.0  -   RELEASE  -


 With contributions from (in alphabetic order):
   Daniel Aravena         : Magnetic Suceptibility
   Michael Atanasov       : Ab Initio Ligand Field Theory (pilot matlab implementation)
   Alexander A. Auer      : GIAO ZORA, VPT2 properties, NMR spectrum
   Ute Becker             : All parallelization in ORCA, NUMFREQ, NUMCALC
   Giovanni Bistoni       : ED, misc. LED, open-shell LED, HFLD
   Martin Brehm           : Molecular dynamics
   Dmytro Bykov           : pre 5.0 version of the SCF Hessian
   Marcos Casanova-Páez   : Triplet and SCS-CIS(D). UHF-(DLPNO)-IP/EA/STEOM-CCSD. UHF-CVS-IP/STEOM-CCSD
   Vijay G. Chilkuri      : MRCI spin determinant printing, contributions to CSF-ICE
   Pauline Colinet        : FMM embedding
   Dipayan Datta          : RHF DLPNO-CCSD density
   Achintya Kumar Dutta   : EOM-CC, STEOM-CC
   Nicolas Foglia         : Exact transition moments, OPA infrastructure, MCD improvements
   Dmitry Ganyushin       : Spin-Orbit,Spin-Spin,Magnetic field MRCI
   Miquel Garcia          : C-PCM and meta-GGA Hessian, CCSD/C-PCM, Gaussian charge scheme
   Tiago L. C. Gouveia    : GS-ROHF, GS-ROCIS
   Yang Guo               : DLPNO-NEVPT2, F12-NEVPT2, CIM, IAO-localization
   Andreas Hansen         : Spin unrestricted coupled pair/coupled cluster methods
   Ingolf Harden          : AUTO-CI MPn and infrastructure 
   Benjamin Helmich-Paris : MC-RPA, TRAH-(SCF,CASSCF), AVAS, COSX integrals, SCF dyn. polar.
   Lee Huntington         : MR-EOM, pCC
   Robert Izsak           : Overlap fitted RIJCOSX, COSX-SCS-MP3, EOM
   Riya Kayal             : Wick's Theorem for AUTO-CI, AUTO-CI UHF-CCSDT
   Emily Kempfer          : AUTO-CI, RHF CISDT and CCSDT
   Christian Kollmar      : KDIIS, OOCD, Brueckner-CCSD(T), CCSD density, CASPT2, CASPT2-K, improved NEVPT2
   Axel Koslowski         : Symmetry handling
   Simone Kossmann        : Meta GGA functionals, TD-DFT gradient, OOMP2, (MP2 Hessian; deprecated post 5.0)
   Lucas Lang             : DCDCAS
   Marvin Lechner         : AUTO-CI (C++ implementation), FIC-MRCC
   Spencer Leger          : CASSCF response
   Dagmar Lenk            : GEPOL surface, SMD, ORCA-2-JSON
   Dimitrios Liakos       : Extrapolation schemes; Compound Job, initial MDCI parallelization
   Dimitrios Manganas     : Further ROCIS development; embedding schemes. LFT, Crystal Embedding
   Dimitrios Pantazis     : SARC Basis sets
   Anastasios Papadopoulos: AUTO-CI, single reference methods and gradients
   Taras Petrenko         : pre 6.0 DFT Hessian and TD-DFT gradient, (ASA, deprecated), ECA, 1-Electron XAS/XES, NRVS
   Peter Pinski           : DLPNO-MP2, DLPNO-MP2 Gradient
   Christoph Reimann      : Effective Core Potentials
   Marius Retegan         : Local ZFS, SOC
   Christoph Riplinger    : Optimizer, TS searches, QM/MM, DLPNO-CCSD(T), (RO)-DLPNO pert. Triples
   Michael Roemelt        : Original ROCIS implementation
   Masaaki Saitow         : Open-shell DLPNO-CCSD energy and density
   Barbara Sandhoefer     : DKH picture change effects
   Kantharuban Sivalingam : CASSCF convergence/infrastructure, NEVPT2 and variants, FIC-MRCI
   Bernardo de Souza      : ESD, SOC TD-DFT
   Georgi Stoychev        : AutoAux, RI-MP2 NMR, DLPNO-MP2 response, X2C
   Van Anh Tran           : RI-MP2 g-tensors
   Willem Van den Heuvel  : Paramagnetic NMR
   Zikuan Wang            : NOTCH, Electric field optimization 
   Frank Wennmohs         : Technical directorship and infrastructure
   Hang Xu                : AUTO-CI-Response properties 


 We gratefully acknowledge several colleagues who have allowed us to
 interface, adapt or use parts of their codes:
   Stefan Grimme, W. Hujo, H. Kruse, P. Pracht,  : VdW corrections, initial TS optimization,
                  C. Bannwarth, S. Ehlert,         DFT functionals, gCP, sTDA/sTD-DF
                  L. Wittmann, M. Mueller
   Ed Valeev, F. Pavosevic, A. Kumar             : LibInt (2-el integral package), F12 methods
   Garnet Chan, S. Sharma, J. Yang, R. Olivares  : DMRG
   Ulf Ekstrom                                   : XCFun DFT Library
   Mihaly Kallay                                 : mrcc  (arbitrary order and MRCC methods)
   Frank Weinhold                                : gennbo (NPA and NBO analysis)
   Simon Mueller                                 : openCOSMO-RS
   Christopher J. Cramer and Donald G. Truhlar   : smd solvation model
   Lars Goerigk                                  : TD-DFT with DH, B97 family of functionals
   V. Asgeirsson, H. Jonsson                     : NEB implementation
   FAccTs GmbH                                   : IRC, NEB, NEB-TS, DLPNO-Multilevel, CI-OPT
                                                   MM, QMMM, 2- and 3-layer-ONIOM, Crystal-QMMM,
                                                   LR-CPCM, SF, NACMEs, symmetry and pop. for TD-DFT,
                                                   nearIR, NL-DFT gradient (VV10), updates on ESD,
                                                   ML-optimized integration grids, MBIS, APM,
                                                   GOAT, DOCKER, SOLVATOR, interface openCOSMO-RS
   S Lehtola, MJT Oliveira, MAL Marques          : LibXC Library
   Liviu Ungur et al                             : ANISO software


 Your calculation uses the libint2 library for the computation of 2-el integrals
 For citations please refer to: http://libint.valeyev.net

 Your ORCA version has been built with support for libXC version: 6.2.2
 For citations please refer to: https://libxc.gitlab.io

 This ORCA versions uses:
   CBLAS   interface :  Fast vector & matrix operations
   LAPACKE interface :  Fast linear algebra routines
   SCALAPACK package :  Parallel linear algebra routines
   Shared memory     :  Shared parallel matrices
   BLAS/LAPACK       :  OpenBLAS 0.3.27  USE64BITINT DYNAMIC_ARCH NO_AFFINITY SkylakeX SINGLE_THREADED
        Core in use  :  SkylakeX
   Copyright (c) 2011-2014, The OpenBLAS Project


Your calculation utilizes the geometrical counterpoise correction gCP
Please cite in your paper:
H.Kruse, S. Grimme J.Chem.Phys., 136, (2012), 154101 
   

Your calculation utilizes the atom-pairwise dispersion correction
based on EEQ partial charges (D4)


================================================================================

----- Orbital basis set information -----
Your calculation utilizes the basis: def2-mTZVPP
   Stefan Grimme, Andreas Hansen, Sebastian Ehlert, and Jan-Michael Mewes 
   J. Chem. Phys. 154, 064103 (2021). DOI: 10.1063/5.0040021

----- AuxJ basis set information -----
Your calculation utilizes the auxiliary basis: def2/J
   F. Weigend, Phys. Chem. Chem. Phys. 8, 1057 (2006).

================================================================================
                                        WARNINGS
                       Please study these warnings very carefully!
================================================================================

Using LibXC functional ID 497 : Re-regularized SCAN exchange by Furness et al
[ 1]  J. W. Furness, A. D. Kaplan, J. Ning, J. P. Perdew, and J. Sun.,  J. Phys. Chem. Lett. 11, 8208-8215 (2020)
[ 2]  J. W. Furness, A. D. Kaplan, J. Ning, J. P. Perdew, and J. Sun.,  J. Phys. Chem. Lett. 11, 9248-9248 (2020)
Using LibXC functional ID 498 : Re-regularized SCAN correlation by Furness et al
[ 1]  J. W. Furness, A. D. Kaplan, J. Ning, J. P. Perdew, and J. Sun.,  J. Phys. Chem. Lett. 11, 8208-8215 (2020)
[ 2]  J. W. Furness, A. D. Kaplan, J. Ning, J. P. Perdew, and J. Sun.,  J. Phys. Chem. Lett. 11, 9248-9248 (2020)
Using LibXC functional ID 497 : Re-regularized SCAN exchange by Furness et al
[ 1]  J. W. Furness, A. D. Kaplan, J. Ning, J. P. Perdew, and J. Sun.,  J. Phys. Chem. Lett. 11, 8208-8215 (2020)
[ 2]  J. W. Furness, A. D. Kaplan, J. Ning, J. P. Perdew, and J. Sun.,  J. Phys. Chem. Lett. 11, 9248-9248 (2020)
Using LibXC functional ID 498 : Re-regularized SCAN correlation by Furness et al
[ 1]  J. W. Furness, A. D. Kaplan, J. Ning, J. P. Perdew, and J. Sun.,  J. Phys. Chem. Lett. 11, 8208-8215 (2020)
[ 2]  J. W. Furness, A. D. Kaplan, J. Ning, J. P. Perdew, and J. Sun.,  J. Phys. Chem. Lett. 11, 9248-9248 (2020)

================================================================================
                                       INPUT FILE
================================================================================
NAME = sp_gas.inp
|  1> ! r2scan-3c def2/J RI DEFGRID2 scfconv6 printgap
|  2> %output
|  3>     printlevel normal
|  4> end
|  5> * xyz 0 1
|  6> C -1.4557266547 0.3796130686 -0.2364765353
|  7> C -0.01040549 0.3782107055 0.2758931325
|  8> C 0.8031135974 -0.7441066194 -0.3815277062
|  9> O 2.0929026162 -0.8552017979 0.1715098756
| 10> O 0.6104194492 1.6301110177 0.0829954831
| 11> O -2.066571099 -0.8323425401 0.1406121595
| 12> H -1.4506279852 0.4852556176 -1.3310837479
| 13> H -1.9771866363 1.2391523787 0.2037296788
| 14> H -0.0177559111 0.2177828004 1.3588865526
| 15> H 0.8718610517 -0.5597986975 -1.4645496221
| 16> H 0.3021906987 -1.6986929532 -0.2151454704
| 17> H 2.462397649 0.0375349929 0.2556288148
| 18> H 0.5938965622 1.8548102375 -0.8593837862
| 19> H -2.9915478773 -0.8278398558 -0.1432898118
| 20> *
| 21> 
| 22>                          ****END OF INPUT****
================================================================================

                       ****************************
                       * Single Point Calculation *
                       ****************************

---------------------------------
CARTESIAN COORDINATES (ANGSTROEM)
---------------------------------
  C     -1.455727    0.379613   -0.236477
  C     -0.010405    0.378211    0.275893
  C      0.803114   -0.744107   -0.381528
  O      2.092903   -0.855202    0.171510
  O      0.610419    1.630111    0.082995
  O     -2.066571   -0.832343    0.140612
  H     -1.450628    0.485256   -1.331084
  H     -1.977187    1.239152    0.203730
  H     -0.017756    0.217783    1.358887
  H      0.871861   -0.559799   -1.464550
  H      0.302191   -1.698693   -0.215145
  H      2.462398    0.037535    0.255629
  H      0.593897    1.854810   -0.859384
  H     -2.991548   -0.827840   -0.143290

----------------------------
CARTESIAN COORDINATES (A.U.)
----------------------------
  NO LB      ZA    FRAG     MASS         X           Y           Z
   0 C     6.0000    0    12.011   -2.750925    0.717365   -0.446876
   1 C     6.0000    0    12.011   -0.019664    0.714715    0.521362
   2 C     6.0000    0    12.011    1.517665   -1.406158   -0.720983
   3 O     8.0000    0    15.999    3.955013   -1.616097    0.324107
   4 O     8.0000    0    15.999    1.153526    3.080463    0.156839
   5 O     8.0000    0    15.999   -3.905253   -1.572899    0.265718
   6 H     1.0000    0     1.008   -2.741290    0.917000   -2.515384
   7 H     1.0000    0     1.008   -3.736341    2.341659    0.384993
   8 H     1.0000    0     1.008   -0.033554    0.411550    2.567923
   9 H     1.0000    0     1.008    1.647579   -1.057866   -2.767598
  10 H     1.0000    0     1.008    0.571058   -3.210064   -0.406566
  11 H     1.0000    0     1.008    4.653257    0.070931    0.483068
  12 H     1.0000    0     1.008    1.122302    3.505083   -1.624000
  13 H     1.0000    0     1.008   -5.653206   -1.564391   -0.270779

--------------------------------
INTERNAL COORDINATES (ANGSTROEM)
--------------------------------
 C      0   0   0     0.000000000000     0.00000000     0.00000000
 C      1   0   0     1.533452937730     0.00000000     0.00000000
 C      2   1   0     1.534148507313   110.93352270     0.00000000
 O      3   2   1     1.407745864347   112.03831896   186.11556611
 O      2   1   3     1.410633722822   111.61127589   124.26183855
 O      1   2   3     1.408603285648   108.57194003    63.24628644
 H      1   2   3     1.099705094317   109.16544766   302.65373901
 H      1   2   3     1.097501639611   108.33210468   184.03545870
 H      2   1   3     1.094836010280   108.92438392   240.42049221
 H      3   2   1     1.100741610401   109.40560084    63.81397938
 H      3   2   1     1.090798729147   109.34923129   304.52402254
 H      4   3   2     0.969835838090   108.08904025   315.18434393
 H      5   2   1     0.968938301637   109.34767532   301.87910081
 H      6   1   2     0.967575652788   109.39069406   177.53998268

---------------------------
INTERNAL COORDINATES (A.U.)
---------------------------
 C      0   0   0     0.000000000000     0.00000000     0.00000000
 C      1   0   0     2.897806091567     0.00000000     0.00000000
 C      2   1   0     2.899120527586   110.93352270     0.00000000
 O      3   2   1     2.660254149776   112.03831896   186.11556611
 O      2   1   3     2.665711411408   111.61127589   124.26183855
 O      1   2   3     2.661874441216   108.57194003    63.24628644
 H      1   2   3     2.078141456336   109.16544766   302.65373901
 H      1   2   3     2.073977530395   108.33210468   184.03545870
 H      2   1   3     2.068940220983   108.92438392   240.42049221
 H      3   2   1     2.080100187869   109.40560084    63.81397938
 H      3   2   1     2.061310865318   109.34923129   304.52402254
 H      4   3   2     1.832724128852   108.08904025   315.18434393
 H      5   2   1     1.831028030761   109.34767532   301.87910081
 H      6   1   2     1.828452997619   109.39069406   177.53998268

---------------------
BASIS SET INFORMATION
---------------------
There are 3 groups of distinct atoms

 Group   1 Type C   : 11s6p1d contracted to 5s3p1d pattern {62111/411/1}
 Group   2 Type O   : 11s6p2d contracted to 5s3p2d pattern {62111/411/11}
 Group   3 Type H   : 4s1p contracted to 2s1p pattern {31/1}

Atom   0C    basis set group =>   1
Atom   1C    basis set group =>   1
Atom   2C    basis set group =>   1
Atom   3O    basis set group =>   2
Atom   4O    basis set group =>   2
Atom   5O    basis set group =>   2
Atom   6H    basis set group =>   3
Atom   7H    basis set group =>   3
Atom   8H    basis set group =>   3
Atom   9H    basis set group =>   3
Atom  10H    basis set group =>   3
Atom  11H    basis set group =>   3
Atom  12H    basis set group =>   3
Atom  13H    basis set group =>   3
---------------------------------
AUXILIARY/J BASIS SET INFORMATION
---------------------------------
There are 3 groups of distinct atoms

 Group   1 Type C   : 12s5p4d2f1g contracted to 6s4p3d1f1g pattern {711111/2111/211/2/1}
 Group   2 Type O   : 12s5p4d2f1g contracted to 6s4p3d1f1g pattern {711111/2111/211/2/1}
 Group   3 Type H   : 5s2p1d contracted to 3s1p1d pattern {311/2/1}

Atom   0C    basis set group =>   1
Atom   1C    basis set group =>   1
Atom   2C    basis set group =>   1
Atom   3O    basis set group =>   2
Atom   4O    basis set group =>   2
Atom   5O    basis set group =>   2
Atom   6H    basis set group =>   3
Atom   7H    basis set group =>   3
Atom   8H    basis set group =>   3
Atom   9H    basis set group =>   3
Atom  10H    basis set group =>   3
Atom  11H    basis set group =>   3
Atom  12H    basis set group =>   3
Atom  13H    basis set group =>   3

Checking for AutoStart:
The File: sp_gas.gbw exists
Trying to determine its content:
     ... Fine, the file contains calculation information
     ... Fine, the calculation information was read
     ... Fine, the file contains a basis set
     ... Fine, the basis set was read
     ... Fine, the file contains a geometry
     ... Fine, the geometry was read
     ... Fine, the file contains a set of orbitals
     ... Fine, the orbitals can be read
     => possible old guess file was deleted
     => GBW file was renamed to GES file
     => GES file is set as startup file
     => Guess is set to MORead
     ... now leaving AutoStart

------------------------------------------------------------------------------
                             ORCA STARTUP CALCULATIONS
                           -- RI-GTO INTEGRALS CHOSEN --
------------------------------------------------------------------------------
------------------------------------------------------------------------------
                   ___                                                        
                  /   \      - P O W E R E D   B Y -                         
                 /     \                                                     
                 |  |  |   _    _      __       _____    __    __             
                 |  |  |  | |  | |    /  \     |  _  \  |  |  /  |          
                  \  \/   | |  | |   /    \    | | | |  |  | /  /          
                 / \  \   | |__| |  /  /\  \   | |_| |  |  |/  /          
                |  |  |   |  __  | /  /__\  \  |    /   |      \           
                |  |  |   | |  | | |   __   |  |    \   |  |\   \          
                \     /   | |  | | |  |  |  |  | |\  \  |  | \   \       
                 \___/    |_|  |_| |__|  |__|  |_| \__\ |__|  \__/        
                                                                              
                      - O R C A' S   B I G   F R I E N D -                    
                                      &                                       
                       - I N T E G R A L  F E E D E R -                       
                                                                              
 v1 FN, 2020, v2 2021, v3 2022-2024                                           
------------------------------------------------------------------------------


----------------------
SHARK INTEGRAL PACKAGE
----------------------

Number of atoms                             ...     14
Number of basis functions                   ...    169
Number of shells                            ...     81
Maximum angular momentum                    ...      2
Integral batch strategy                     ... SHARK/LIBINT Hybrid
RI-J (if used) integral strategy            ... SPLIT-RIJ (Revised 2003 algorithm where possible)
Printlevel                                  ...      1
Contraction scheme used                     ... SEGMENTED contraction
Prescreening option                         ... SCHWARTZ
   Thresh                                   ... 1.000e-10
   Tcut                                     ... 1.000e-11
   Tpresel                                  ... 1.000e-11 
Coulomb Range Separation                    ... NOT USED
Exchange Range Separation                   ... NOT USED
Multipole approximations                    ... NOT USED
Finite Nucleus Model                        ... NOT USED
CABS basis                                  ... NOT available
Auxiliary Coulomb fitting basis             ... AVAILABLE
   # of basis functions in Aux-J            ...    382
   # of shells in Aux-J                     ...    130
   Maximum angular momentum in Aux-J        ...      4
Auxiliary J/K fitting basis                 ... NOT available
Auxiliary Correlation fitting basis         ... NOT available
Auxiliary 'external' fitting basis          ... NOT available

Checking pre-screening integrals            ... done (  0.0 sec) Dimension = 81
Check shell pair data                       ... done (  0.0 sec)
Shell pair information
Shell pair cut-off parameter TPreSel        ...   1.0e-11
Total number of shell pairs                 ...      3321
Shell pairs after pre-screening             ...      3103
Total number of primitive shell pairs       ...     11632
Primitive shell pairs kept                  ...      8104
          la=0 lb=0:    984 shell pairs
          la=1 lb=0:   1122 shell pairs
          la=1 lb=1:    337 shell pairs
          la=2 lb=0:    391 shell pairs
          la=2 lb=1:    225 shell pairs
          la=2 lb=2:     44 shell pairs

Calculating one electron integrals          ... done (  0.0 sec)
Calculating RI/J V-Matrix + Cholesky decomp.... done (  0.1 sec)
Calculating Nuclear repulsion               ... done (  0.0 sec) ENN=    261.322898428092 Eh

Diagonalization of the overlap matrix:
Smallest eigenvalue                        ... 2.151e-04
Time for diagonalization                   ...    0.003 sec
Threshold for overlap eigenvalues          ... 1.000e-07
Number of eigenvalues below threshold      ... 0
Time for construction of square roots      ...    0.013 sec
Total time needed                          ...    0.024 sec

-------------------
DFT GRID GENERATION
-------------------

General Integration Accuracy     IntAcc      ... 4.388
Radial Grid Type                 RadialGrid  ... OptM3 with GC (2021)
Angular Grid (max. ang.)         AngularGrid ... 4 (Lebedev-302)
Angular grid pruning method      GridPruning ... 4 (adaptive)
Weight generation scheme         WeightScheme... mBecke (2022)
Basis function cutoff            BFCut       ... 1.0000e-10
Integration weight cutoff        WCut        ... 1.0000e-14
Partially contracted basis set               ... off
Rotationally invariant grid construction     ... off
Angular grids for H and He will be reduced by one unit
Diffuse basis detected: some atoms will have their outermost
                        angular grid increased by 1.

Total number of grid points                  ...    62988
Total number of batches                      ...      994
Average number of points per batch           ...       63
Average number of grid points per atom       ...     4499
Initializing property integral containers    ... done (  0.0 sec)

SHARK setup successfully completed in   0.9 seconds

Maximum memory used throughout the entire STARTUP-calculation: 27.8 MB
-------------------------------------------------------------------------------
                                 ORCA GUESS
                   Start orbitals & Density for SCF / CASSCF
-------------------------------------------------------------------------------

------------
SCF SETTINGS
------------
Hamiltonian:
 Density Functional     Method          .... DFT(GTOs)
  Functional kind                       .... Exchange
  Functional name                       .... Re-regularized SCAN exchange by Furness et al
  Functional family                     .... MGGA
  Functional refs                              
    [ 0] J. W. Furness, A. D. Kaplan, J. Ning, J. P. Perdew, and J. Sun.,  J. Phys. Chem. Lett. 11, 8208-8215 (2020), doi: 10.1021/acs.jpclett.0c02405
    [ 1] J. W. Furness, A. D. Kaplan, J. Ning, J. P. Perdew, and J. Sun.,  J. Phys. Chem. Lett. 11, 9248-9248 (2020), doi: 10.1021/acs.jpclett.0c03077
  Functional external parameters        .... 6
    Parameter  0 _c1        =  6.670000e-01 : c1 parameter        
    Parameter  1 _c2        =  8.000000e-01 : c2 parameter        
    Parameter  2 _d         =  1.240000e+00 : d parameter         
    Parameter  3 _k1        =  6.500000e-02 : k1 parameter        
    Parameter  4 _eta       =  1.000000e-03 : eta parameter       
    Parameter  5 _dp2       =  3.610000e-01 : dp2 parameter       
  Functional kind                       .... Correlation
  Functional name                       .... Re-regularized SCAN correlation by Furness et al
  Functional family                     .... MGGA
  Functional refs                              
    [ 0] J. W. Furness, A. D. Kaplan, J. Ning, J. P. Perdew, and J. Sun.,  J. Phys. Chem. Lett. 11, 8208-8215 (2020), doi: 10.1021/acs.jpclett.0c02405
    [ 1] J. W. Furness, A. D. Kaplan, J. Ning, J. P. Perdew, and J. Sun.,  J. Phys. Chem. Lett. 11, 9248-9248 (2020), doi: 10.1021/acs.jpclett.0c03077
  Functional external parameters        .... 1
    Parameter  0 _eta       =  1.000000e-03 : Regularization parameter
 Gradients option       PostSCFGGA      .... off
 RI-approximation to the Coulomb term is turned on
   Number of AuxJ basis functions       .... 382


General Settings:
 Integral files         IntName         .... sp_gas
 Hartree-Fock type      HFTyp           .... RHF
 Total Charge           Charge          ....    0
 Multiplicity           Mult            ....    1
 Number of Electrons    NEL             ....   50
 Basis Dimension        Dim             ....  169
 Nuclear Repulsion      ENuc            ....    261.3228984281 Eh

Convergence Acceleration:
 AO-DIIS                CNVDIIS         .... on
   Start iteration      DIISMaxIt       ....    12
   Startup error        DIISStart       ....  0.200000
   # of expansion vecs  DIISMaxEq       ....     5
   Bias factor          DIISBfac        ....   1.050
   Max. coefficient     DIISMaxC        ....  10.000
 MO-DIIS                CNVKDIIS        .... off
 Trust-Rad. Augm. Hess. CNVTRAH         .... auto
   Auto Start mean grad. ratio tolernc. ....  1.125000
   Auto Start start iteration           ....     1
   Auto Start num. interpolation iter.  ....    10
   Max. Number of Micro iterations      ....    24
   Max. Number of Macro iterations      .... Maxiter - #DIIS iter
   Number of Davidson start vectors     ....     2
   Converg. threshold    (grad. norm)   ....   3.330e-04
   Grad. Scal. Fac. for Micro threshold ....   0.100
   Minimum threshold for Micro iter.    ....   1.000e-02
   NR start threshold (gradient norm)   ....   1.000e-04
   Initial trust radius                 ....   0.400
   Minimum AH scaling param. (alpha)    ....   1.000
   Maximum AH scaling param. (alpha)    .... 1000.000
   Quad. conv. algorithm                .... NR
   White noise on init. David. guess    .... on
   Maximum white noise                  ....   0.010
   Pseudo random numbers                .... off
   Inactive MOs                         .... canonical
   Orbital update algorithm             .... Taylor
   Preconditioner                       .... Diag
   Full preconditioner red. dimension   ....   250
   COSX micro iterations for RIJONX calc.... off
 SOSCF                  CNVSOSCF        .... on
   Start iteration      SOSCFMaxIt      ....   150
   Startup grad/error   SOSCFStart      ....  0.003300
   Hessian update       SOSCFHessUp     .... L-BFGS
 Level Shifting         CNVShift        .... on
   Level shift para.    LevelShift      ....    0.2500
   Turn off err/grad.   ShiftErr        ....    0.0010
 Zerner damping         CNVZerner       .... off
 Static damping         CNVDamp         .... on
   Fraction old density DampFac         ....    0.7000
   Max. Damping (<1)    DampMax         ....    0.9800
   Min. Damping (>=0)   DampMin         ....    0.0000
   Turn off err/grad.   DampErr         ....    0.1000

SCF Procedure:
 Maximum # iterations   MaxIter         ....   125
 SCF integral mode      SCFMode         .... Direct
   Integral package                     .... SHARK and LIBINT hybrid scheme
 Reset frequency        DirectResetFreq ....    20
 Integral Threshold     Thresh          ....  1.000e-10 Eh
 Primitive CutOff       TCut            ....  1.000e-11 Eh

Convergence Tolerance:
 Convergence Check Mode ConvCheckMode   .... Total+1el-Energy
 Convergence forced     ConvForced      .... 0
 Energy Change          TolE            ....  1.000e-06 Eh
 1-El. energy change                    ....  1.000e-03 Eh
 Orbital Gradient       TolG            ....  3.330e-04
 Orbital Rotation angle TolX            ....  3.330e-04
 DIIS Error             TolErr          ....  1.000e-06

---------------------
INITIAL GUESS: MOREAD
---------------------
Guess MOs are being read from file: sp_gas.ges
Input Geometry matches current geometry (good)
Atom 0: N(Shells)= 9 and 6 - projection required
Input basis set needs projection
NBasis(read)= 100
NBasis(calc)= 169
Basis set overlap was calculated
Using GuessMode=FMatrix for the initial guess
C*T matrix was formed
Effective Fockian was calculated
Effective Fockian was diagonalized
Initial density was built
                      ------------------
                      INITIAL GUESS DONE (   0.0 sec)
                      ------------------
             **** ENERGY FILE WAS UPDATED (sp_gas.en.tmp) ****
Finished Guess after   0.2 sec
Maximum memory used throughout the entire GUESS-calculation: 11.4 MB

-------------------------------------------------------------------------------------------
                                      ORCA LEAN-SCF
                              memory conserving SCF solver
-------------------------------------------------------------------------------------------

----------------------------------------D-I-I-S--------------------------------------------
Iteration    Energy (Eh)           Delta-E    RMSDP     MaxDP     DIISErr   Damp  Time(sec)
-------------------------------------------------------------------------------------------
               ***  Starting incremental Fock matrix formation  ***
    1    -344.5179770537601485     0.00e+00  4.41e-03  1.76e-01  6.28e-01  0.700   1.9
    2    -344.5807635208579427    -6.28e-02  3.65e-03  1.08e-01  4.41e-01  0.700   1.8
    3    -344.6253393871790536    -4.46e-02  2.69e-03  6.95e-02  3.09e-01  0.700   1.8
    4    -344.6566681071992093    -3.13e-02  1.93e-03  4.66e-02  2.16e-01  0.700   1.8
                               ***Turning on AO-DIIS***
    5    -344.6786636727264863    -2.20e-02  1.39e-03  3.15e-02  1.52e-01  0.700   1.7
    6    -344.6940948197790817    -1.54e-02  9.86e-04  2.13e-02  1.06e-01  0.700   1.7
    7    -344.7049208657542181    -1.08e-02  6.96e-04  1.45e-02  7.42e-02  0.700   1.7
    8    -344.7125113850634648    -7.59e-03  1.63e-03  3.33e-02  5.20e-02  0.000   1.7
                              *** Initializing SOSCF ***
---------------------------------------S-O-S-C-F--------------------------------------
Iteration    Energy (Eh)           Delta-E    RMSDP     MaxDP     MaxGrad    Time(sec)
--------------------------------------------------------------------------------------
    9    -344.7302604600487825    -1.77e-02  1.12e-05  1.64e-04  2.10e-04     1.9
               *** Restarting incremental Fock matrix formation ***
   10    -344.7302606466562906    -1.87e-07  1.17e-05  4.59e-04  3.27e-05     1.9
                  *** Gradient check signals convergence ***

               *****************************************************
               *                     SUCCESS                       *
               *           SCF CONVERGED AFTER  10 CYCLES          *
               *****************************************************

             **** ENERGY FILE WAS UPDATED (sp_gas.en.tmp) ****

----------------
TOTAL SCF ENERGY
----------------

Total Energy       :       -344.73026064665629 Eh           -9380.58729 eV

Components:
Nuclear Repulsion  :        261.32289842809240 Eh            7110.95758 eV
Electronic Energy  :       -606.05315907474869 Eh          -16491.54487 eV
One Electron Energy:       -989.23685514180750 Eh          -26918.50334 eV
Two Electron Energy:        383.18369606705880 Eh           10426.95847 eV

Virial components:
Potential Energy   :       -688.09191455410564 Eh          -18723.93290 eV
Kinetic Energy     :        343.36165390744929 Eh            9343.34561 eV
Virial Ratio       :          2.00398590443526

DFT components:
N(Alpha)           :       24.999987363066 electrons
N(Beta)            :       24.999987363066 electrons
N(Total)           :       49.999974726133 electrons
E(X)               :      -43.315756240437 Eh       
E(C)               :       -1.628219684520 Eh       
E(XC)              :      -44.943975924957 Eh       

---------------
SCF CONVERGENCE
---------------

  Last Energy change         ...    1.8661e-07  Tolerance :   1.0000e-06
  Last MAX-Density change    ...    4.5856e-04  Tolerance :   1.0000e-05
  Last RMS-Density change    ...    1.1672e-05  Tolerance :   1.0000e-06
  Last DIIS Error            ...    2.0981e-04  Tolerance :   1.0000e-06
  Last Orbital Gradient      ...    3.2701e-05  Tolerance :   3.3300e-04
  Last Orbital Rotation      ...    4.4159e-05  Tolerance :   3.3300e-04


----------------
ORBITAL ENERGIES
----------------

  NO   OCC          E(Eh)            E(eV) 
   0   2.0000     -18.967873      -516.1421 
   1   2.0000     -18.963614      -516.0262 
   2   2.0000     -18.943295      -515.4733 
   3   2.0000     -10.088496      -274.5219 
   4   2.0000     -10.088101      -274.5112 
   5   2.0000     -10.072662      -274.0911 
   6   2.0000      -1.012170       -27.5425 
   7   2.0000      -0.998137       -27.1607 
   8   2.0000      -0.976942       -26.5840 
   9   2.0000      -0.728983       -19.8366 
  10   2.0000      -0.642192       -17.4749 
  11   2.0000      -0.585420       -15.9301 
  12   2.0000      -0.503679       -13.7058 
  13   2.0000      -0.491309       -13.3692 
  14   2.0000      -0.452826       -12.3220 
  15   2.0000      -0.424105       -11.5405 
  16   2.0000      -0.422241       -11.4898 
  17   2.0000      -0.404292       -11.0013 
  18   2.0000      -0.362928        -9.8758 
  19   2.0000      -0.339839        -9.2475 
  20   2.0000      -0.306958        -8.3527 
  21   2.0000      -0.301269        -8.1979 
  22   2.0000      -0.260904        -7.0996 
  23   2.0000      -0.250562        -6.8181 
  24   2.0000      -0.229576        -6.2471 
  25   0.0000       0.029223         0.7952 
  26   0.0000       0.062302         1.6953 
  27   0.0000       0.086530         2.3546 
  28   0.0000       0.116861         3.1800 
  29   0.0000       0.129837         3.5331 
  30   0.0000       0.137802         3.7498 
  31   0.0000       0.148300         4.0355 
  32   0.0000       0.154327         4.1995 
  33   0.0000       0.160111         4.3568 
  34   0.0000       0.179175         4.8756 
  35   0.0000       0.184296         5.0150 
*Only the first 10 virtual orbitals were printed.

                    ********************************
                    * MULLIKEN POPULATION ANALYSIS *
                    ********************************

-----------------------
MULLIKEN ATOMIC CHARGES
-----------------------
   0 C :   -0.142949
   1 C :    0.011362
   2 C :   -0.187504
   3 O :   -0.417324
   4 O :   -0.428667
   5 O :   -0.437385
   6 H :    0.117254
   7 H :    0.138790
   8 H :    0.151564
   9 H :    0.125088
  10 H :    0.161916
  11 H :    0.311311
  12 H :    0.296844
  13 H :    0.299702
Sum of atomic charges:    0.0000000

--------------------------------
MULLIKEN REDUCED ORBITAL CHARGES
--------------------------------
  0 C s       :     3.276563  s :     3.276563
      pz      :     1.027594  p :     2.807943
      px      :     0.935226
      py      :     0.845123
      dz2     :     0.013520  d :     0.058443
      dxz     :     0.006590
      dyz     :     0.010678
      dx2y2   :     0.014971
      dxy     :     0.012684

  1 C s       :     3.154681  s :     3.154681
      pz      :     1.105629  p :     2.767581
      px      :     0.891420
      py      :     0.770532
      dz2     :     0.013874  d :     0.066376
      dxz     :     0.007082
      dyz     :     0.009535
      dx2y2   :     0.019128
      dxy     :     0.016757

  2 C s       :     3.310139  s :     3.310139
      pz      :     0.987279  p :     2.818954
      px      :     0.790211
      py      :     1.041464
      dz2     :     0.015484  d :     0.058412
      dxz     :     0.012971
      dyz     :     0.004213
      dx2y2   :     0.011569
      dxy     :     0.014174

  3 O s       :     3.762097  s :     3.762097
      pz      :     1.812368  p :     4.642745
      px      :     1.342951
      py      :     1.487427
      dz2     :     0.004113  d :     0.012482
      dxz     :     0.000532
      dyz     :     0.001623
      dx2y2   :     0.005436
      dxy     :     0.000778

  4 O s       :     3.756472  s :     3.756472
      pz      :     1.409842  p :     4.654497
      px      :     1.795182
      py      :     1.449473
      dz2     :     0.008243  d :     0.017699
      dxz     :     0.002760
      dyz     :    -0.002347
      dx2y2   :     0.005611
      dxy     :     0.003431

  5 O s       :     3.771259  s :     3.771259
      pz      :     1.831434  p :     4.648641
      px      :     1.329598
      py      :     1.487609
      dz2     :     0.003754  d :     0.017484
      dxz     :     0.004063
      dyz     :     0.002967
      dx2y2   :     0.005445
      dxy     :     0.001255

  6 H s       :     0.865600  s :     0.865600
      pz      :     0.011260  p :     0.017146
      px      :     0.003242
      py      :     0.002644

  7 H s       :     0.844017  s :     0.844017
      pz      :     0.004434  p :     0.017193
      px      :     0.004662
      py      :     0.008097

  8 H s       :     0.831391  s :     0.831391
      pz      :     0.011594  p :     0.017046
      px      :     0.002906
      py      :     0.002545

  9 H s       :     0.857926  s :     0.857926
      pz      :     0.011047  p :     0.016986
      px      :     0.002419
      py      :     0.003520

 10 H s       :     0.820525  s :     0.820525
      pz      :     0.003341  p :     0.017559
      px      :     0.004601
      py      :     0.009616

 11 H s       :     0.645654  s :     0.645654
      pz      :     0.011994  p :     0.043035
      px      :     0.010295
      py      :     0.020746

 12 H s       :     0.660415  s :     0.660415
      pz      :     0.021500  p :     0.042741
      px      :     0.011629
      py      :     0.009612

 13 H s       :     0.657001  s :     0.657001
      pz      :     0.013160  p :     0.043296
      px      :     0.021168
      py      :     0.008969


------------------------
MULLIKEN OVERLAP CHARGES
------------------------
B(  0-C ,  1-C ) :   0.4992 B(  0-C ,  2-C ) :  -0.1878 B(  0-C ,  4-O ) :  -0.1125 
B(  0-C ,  5-O ) :   0.4179 B(  0-C ,  6-H ) :   0.8295 B(  0-C ,  7-H ) :   0.8377 
B(  0-C , 13-H ) :  -0.0772 B(  1-C ,  2-C ) :   0.3643 B(  1-C ,  3-O ) :  -0.1105 
B(  1-C ,  4-O ) :   0.4748 B(  1-C ,  5-O ) :  -0.1915 B(  1-C ,  7-H ) :  -0.1009 
B(  1-C ,  8-H ) :   0.7972 B(  1-C ,  9-H ) :  -0.1350 B(  1-C , 10-H ) :  -0.0571 
B(  1-C , 12-H ) :  -0.1523 B(  2-C ,  3-O ) :   0.4651 B(  2-C ,  4-O ) :  -0.1468 
B(  2-C ,  5-O ) :   0.0712 B(  2-C ,  6-H ) :  -0.0532 B(  2-C ,  9-H ) :   0.8837 
B(  2-C , 10-H ) :   0.7945 B(  2-C , 11-H ) :  -0.0944 B(  3-O ,  9-H ) :  -0.1312 
B(  3-O , 10-H ) :  -0.0924 B(  3-O , 11-H ) :   0.5898 B(  4-O ,  8-H ) :  -0.0994 
B(  4-O , 12-H ) :   0.5897 B(  5-O ,  6-H ) :  -0.1124 B(  5-O ,  7-H ) :  -0.0888 
B(  5-O , 13-H ) :   0.5878 B(  6-H ,  7-H ) :  -0.0942 B(  9-H , 10-H ) :  -0.0635 



                     *******************************
                     * LOEWDIN POPULATION ANALYSIS *
                     *******************************

----------------------
LOEWDIN ATOMIC CHARGES
----------------------
   0 C :    0.026537
   1 C :    0.079777
   2 C :    0.020554
   3 O :   -0.600018
   4 O :   -0.590718
   5 O :   -0.620996
   6 H :    0.157037
   7 H :    0.167177
   8 H :    0.195369
   9 H :    0.156741
  10 H :    0.193409
  11 H :    0.273407
  12 H :    0.270815
  13 H :    0.270908

-------------------------------
LOEWDIN REDUCED ORBITAL CHARGES
-------------------------------
  0 C s       :     2.874239  s :     2.874239
      pz      :     1.063409  p :     2.967916
      px      :     0.982261
      py      :     0.922245
      dz2     :     0.032399  d :     0.131308
      dxz     :     0.012726
      dyz     :     0.023454
      dx2y2   :     0.034376
      dxy     :     0.028353

  1 C s       :     2.842357  s :     2.842357
      pz      :     1.071759  p :     2.935413
      px      :     0.969110
      py      :     0.894544
      dz2     :     0.031733  d :     0.142453
      dxz     :     0.013436
      dyz     :     0.020152
      dx2y2   :     0.041379
      dxy     :     0.035754

  2 C s       :     2.874900  s :     2.874900
      pz      :     1.030010  p :     2.973507
      px      :     0.885704
      py      :     1.057793
      dz2     :     0.036552  d :     0.131039
      dxz     :     0.027597
      dyz     :     0.008182
      dx2y2   :     0.025291
      dxy     :     0.033418

  3 O s       :     3.518625  s :     3.518625
      pz      :     1.816979  p :     4.810088
      px      :     1.455309
      py      :     1.537801
      dz2     :     0.050560  d :     0.271304
      dxz     :     0.058907
      dyz     :     0.010891
      dx2y2   :     0.065879
      dxy     :     0.085067

  4 O s       :     3.513174  s :     3.513174
      pz      :     1.484754  p :     4.786931
      px      :     1.776436
      py      :     1.525741
      dz2     :     0.064129  d :     0.290613
      dxz     :     0.019905
      dyz     :     0.067436
      dx2y2   :     0.071430
      dxy     :     0.067713

  5 O s       :     3.516544  s :     3.516544
      pz      :     1.829295  p :     4.821947
      px      :     1.411506
      py      :     1.581146
      dz2     :     0.043119  d :     0.282504
      dxz     :     0.026232
      dyz     :     0.053320
      dx2y2   :     0.095307
      dxy     :     0.064526

  6 H s       :     0.802556  s :     0.802556
      pz      :     0.026500  p :     0.040407
      px      :     0.007714
      py      :     0.006194

  7 H s       :     0.792208  s :     0.792208
      pz      :     0.010764  p :     0.040614
      px      :     0.011332
      py      :     0.018518

  8 H s       :     0.765217  s :     0.765217
      pz      :     0.027440  p :     0.039413
      px      :     0.006391
      py      :     0.005582

  9 H s       :     0.803340  s :     0.803340
      pz      :     0.025878  p :     0.039919
      px      :     0.006033
      py      :     0.008008

 10 H s       :     0.765620  s :     0.765620
      pz      :     0.007505  p :     0.040970
      px      :     0.009530
      py      :     0.023935

 11 H s       :     0.604353  s :     0.604353
      pz      :     0.031202  p :     0.122240
      px      :     0.027193
      py      :     0.063845

 12 H s       :     0.607228  s :     0.607228
      pz      :     0.066214  p :     0.121956
      px      :     0.030266
      py      :     0.025476

 13 H s       :     0.606849  s :     0.606849
      pz      :     0.035059  p :     0.122243
      px      :     0.063461
      py      :     0.023722


---------------------------------
LOEWDIN BOND ORDERS (THRESH 0.050000)
---------------------------------
B(  0-C ,  1-C ) :   0.9289 B(  0-C ,  2-C ) :   0.0733 B(  0-C ,  4-O ) :   0.1682 
B(  0-C ,  5-O ) :   1.4308 B(  0-C ,  6-H ) :   0.8269 B(  0-C ,  7-H ) :   0.8270 
B(  1-C ,  2-C ) :   0.9397 B(  1-C ,  3-O ) :   0.1601 B(  1-C ,  4-O ) :   1.4265 
B(  1-C ,  5-O ) :   0.1667 B(  1-C ,  8-H ) :   0.7837 B(  2-C ,  3-O ) :   1.4573 
B(  2-C ,  4-O ) :   0.1572 B(  2-C ,  9-H ) :   0.8253 B(  2-C , 10-H ) :   0.8094 
B(  3-O ,  4-O ) :   0.0621 B(  3-O ,  9-H ) :   0.1040 B(  3-O , 10-H ) :   0.0973 
B(  3-O , 11-H ) :   0.9598 B(  4-O ,  8-H ) :   0.0942 B(  4-O , 12-H ) :   0.9644 
B(  5-O ,  6-H ) :   0.1043 B(  5-O ,  7-H ) :   0.1050 B(  5-O , 13-H ) :   0.9691 


------------------------------------------
LOEWDIN REDUCED ORBITAL POPULATIONS PER MO
-------------------------------------------
THRESHOLD FOR PRINTING IS 0.1%%
                      0         1         2         3         4         5   
                 -18.96787 -18.96361 -18.94329 -10.08850 -10.08810 -10.07266
                   2.00000   2.00000   2.00000   2.00000   2.00000   2.00000
                  --------  --------  --------  --------  --------  --------
 0 C  s               0.0       0.0       0.0      96.8       2.6       0.0
 1 C  s               0.0       0.0       0.0       2.6      96.8       0.0
 2 C  s               0.0       0.0       0.0       0.0       0.0      99.4
 3 O  s               0.0       0.0      99.9       0.0       0.0       0.0
 3 O  px              0.0       0.0       0.0       0.0       0.0       0.1
 3 O  dxz             0.0       0.0       0.0       0.0       0.0       0.1
 3 O  dx2y2           0.0       0.0       0.0       0.0       0.0       0.2
 4 O  s              99.9       0.0       0.0       0.0       0.0       0.0
 4 O  dxy             0.0       0.0       0.0       0.0       0.1       0.0
 5 O  s               0.0      99.9       0.0       0.0       0.0       0.0
 5 O  dxy             0.0       0.0       0.0       0.1       0.0       0.0

                      6         7         8         9        10        11   
                  -1.01217  -0.99814  -0.97694  -0.72898  -0.64219  -0.58542
                   2.00000   2.00000   2.00000   2.00000   2.00000   2.00000
                  --------  --------  --------  --------  --------  --------
 0 C  s               4.4       5.9       0.0      11.7      14.1       3.8
 0 C  pz              0.3       0.3       0.0       0.1       0.1       2.4
 0 C  px              0.4       3.0       0.0       4.7       0.2       1.0
 0 C  py              0.7       5.8       0.1       0.3       2.0       0.1
 0 C  dz2             0.0       0.1       0.0       0.0       0.0       0.0
 0 C  dx2y2           0.0       0.2       0.0       0.1       0.0       0.0
 0 C  dxy             0.1       0.3       0.0       0.1       0.0       0.0
 1 C  s               9.8       0.5       0.2      18.0       0.2       8.3
 1 C  pz              0.5       0.0       0.0       0.3       0.1       7.6
 1 C  px              0.7       3.0       0.3       1.9       8.4       1.1
 1 C  py              3.3       1.6       3.2       3.2       3.3       1.3
 1 C  dz2             0.1       0.0       0.0       0.0       0.0       0.0
 1 C  dxz             0.0       0.0       0.0       0.0       0.1       0.0
 1 C  dx2y2           0.1       0.1       0.0       0.1       0.1       0.0
 1 C  dxy             0.2       0.0       0.1       0.1       0.0       0.1
 2 C  s               2.9       0.4       7.1       8.5      16.4       4.4
 2 C  pz              0.5       0.1       1.0       0.1       0.2       2.8
 2 C  px              0.2       0.5       7.3       4.1       0.9       0.1
 2 C  py              1.0       0.1       0.2       0.8       0.2       2.8
 2 C  dxz             0.0       0.0       0.3       0.1       0.0       0.0
 2 C  dx2y2           0.0       0.0       0.4       0.0       0.0       0.0
 3 O  s               5.2       2.0      53.2       2.0       3.1       0.1
 3 O  pz              0.0       0.0       0.2       0.2       1.2       1.3
 3 O  px              0.2       0.1       0.8       2.0       8.4       2.7
 3 O  py              0.2       0.1       1.2       0.2       1.1       1.9
 3 O  dxz             0.0       0.0       0.1       0.1       0.6       0.4
 3 O  dx2y2           0.0       0.0       0.1       0.5       1.1       0.2
 3 O  dxy             0.1       0.0       0.0       0.1       0.1       0.1
 4 O  s              40.7      10.1       9.1       4.6       0.0       0.3
 4 O  pz              0.6       0.2       0.2       1.2       0.0      12.9
 4 O  px              0.4       0.1       0.1       1.1       0.3       1.2
 4 O  py              1.1       0.2       0.1       4.1       0.3      11.2
 4 O  dz2             0.0       0.0       0.0       0.7       0.0       0.4
 4 O  dxz             0.0       0.0       0.0       0.0       0.0       0.1
 4 O  dyz             0.0       0.0       0.0       0.0       0.0       0.3
 4 O  dx2y2           0.1       0.0       0.0       0.3       0.6       0.2
 4 O  dxy             0.1       0.0       0.1       1.0       0.1       0.2
 5 O  s              11.4      49.1       0.1       2.9       1.7       0.6
 5 O  pz              0.1       0.5       0.0       0.0       0.1       0.4
 5 O  px              0.0       0.2       0.0       4.0       3.5       1.9
 5 O  py              0.5       1.4       0.0       2.1       4.8       2.0
 5 O  dz2             0.1       0.1       0.0       0.3       0.0       0.0
 5 O  dxz             0.0       0.0       0.0       0.1       0.1       0.2
 5 O  dyz             0.0       0.0       0.0       0.1       0.2       0.2
 5 O  dx2y2           0.0       0.0       0.0       0.1       1.1       0.3
 5 O  dxy             0.1       0.1       0.0       0.8       0.4       0.0
 6 H  s               0.3       0.4       0.0       2.2       3.9       2.8
 6 H  pz              0.0       0.0       0.0       0.2       0.3       0.2
 7 H  s               0.3       0.4       0.0       1.9       4.8       1.1
 7 H  px              0.0       0.0       0.0       0.1       0.1       0.0
 7 H  py              0.0       0.0       0.0       0.1       0.2       0.0
 8 H  s               0.6       0.0       0.0       3.3       0.0       6.0
 8 H  pz              0.1       0.0       0.0       0.3       0.0       0.5
 9 H  s               0.2       0.0       0.5       1.5       4.3       2.7
 9 H  pz              0.0       0.0       0.0       0.1       0.3       0.2
10 H  s               0.2       0.0       0.5       1.7       4.8       2.4
10 H  py              0.0       0.0       0.0       0.1       0.3       0.1
11 H  s               1.0       0.3       9.0       0.7       2.7       1.2
11 H  px              0.0       0.0       0.4       0.0       0.0       0.0
11 H  py              0.1       0.1       1.6       0.2       0.4       0.1
12 H  s               7.0       1.7       1.7       2.0       0.0       6.0
12 H  pz              1.4       0.4       0.3       0.4       0.0       0.5
12 H  py              0.1       0.0       0.0       0.0       0.0       0.0
13 H  s               2.0       8.5       0.0       2.0       1.7       0.8
13 H  pz              0.0       0.1       0.0       0.0       0.0       0.0
13 H  px              0.4       1.7       0.0       0.3       0.2       0.1

                     12        13        14        15        16        17   
                  -0.50368  -0.49131  -0.45283  -0.42410  -0.42224  -0.40429
                   2.00000   2.00000   2.00000   2.00000   2.00000   2.00000
                  --------  --------  --------  --------  --------  --------
 0 C  s               1.5       0.1       0.2       0.2       0.1       0.1
 0 C  pz              5.2       4.8       2.7      12.3      11.5       1.8
 0 C  px              1.6       2.6       4.7       3.2      12.7       0.3
 0 C  py             16.4       0.2       4.6       1.0       4.1       0.1
 0 C  dyz             0.2       0.0       0.0       0.0       0.0       0.0
 0 C  dx2y2           0.1       0.1       0.2       0.0       0.0       0.0
 0 C  dxy             0.0       0.0       0.1       0.0       0.1       0.0
 1 C  s               0.0       0.5       1.9       0.0       0.2       0.7
 1 C  pz              0.8       9.9       1.3       1.1       3.7       3.6
 1 C  px              0.4       0.3       7.8       7.5       2.1       0.2
 1 C  py              5.0       2.3       4.1       5.7       2.6       0.2
 1 C  dz2             0.0       0.0       0.1       0.0       0.0       0.0
 1 C  dxz             0.0       0.0       0.0       0.0       0.2       0.1
 1 C  dyz             0.0       0.0       0.1       0.0       0.0       0.1
 1 C  dx2y2           0.0       0.0       0.0       0.0       0.0       0.2
 1 C  dxy             0.0       0.0       0.4       0.0       0.1       0.0
 2 C  s               0.2       0.1       0.2       0.2       1.1       1.2
 2 C  pz              0.9       2.9       6.4      19.9       0.6       1.1
 2 C  px              1.5       5.6       1.1       0.2       0.2      11.6
 2 C  py              0.0      10.8       1.1       1.1       3.0      13.6
 2 C  dz2             0.0       0.0       0.0       0.0       0.1       0.0
 2 C  dxz             0.0       0.1       0.0       0.0       0.1       0.1
 2 C  dx2y2           0.0       0.1       0.0       0.0       0.0       0.1
 2 C  dxy             0.0       0.0       0.0       0.0       0.1       0.3
 3 O  s               0.0       0.5       0.5       0.2       2.2       0.2
 3 O  pz              0.7       0.9       1.6       3.8       0.1       3.2
 3 O  px              1.2      12.2       0.0       5.3       0.2      14.0
 3 O  py              0.6      14.8       1.5       0.2      10.6       0.1
 3 O  dz2             0.0       0.0       0.0       0.5       0.0       0.1
 3 O  dxz             0.1       0.1       0.3       0.6       0.1       0.0
 3 O  dyz             0.0       0.0       0.0       0.0       0.0       0.2
 3 O  dx2y2           0.0       0.2       0.1       0.0       0.0       0.1
 3 O  dxy             0.0       0.1       0.1       0.3       0.1       1.3
 4 O  s               0.1       1.5       0.9       0.1       0.1       3.2
 4 O  pz              1.8       7.2      12.7       0.1       0.1      13.0
 4 O  px              1.7       0.2       0.7       7.1       5.9       0.7
 4 O  py              2.8       0.5       9.2       0.1       1.5       5.6
 4 O  dz2             0.1       0.0       0.1       0.0       0.0       0.0
 4 O  dxz             0.0       0.1       0.0       0.0       0.2       0.0
 4 O  dyz             0.1       0.3       0.4       0.2       0.1       0.1
 4 O  dx2y2           0.1       0.2       0.0       0.4       0.1       0.2
 4 O  dxy             0.0       0.0       0.5       0.2       0.3       0.0
 5 O  s               1.3       0.0       0.1       1.0       0.8       0.3
 5 O  pz              1.5       0.7       1.6       7.6       2.6       1.6
 5 O  px             30.3       1.7       8.5       0.2       2.6       0.3
 5 O  py              1.5       2.4       5.5       1.4       9.0       0.3
 5 O  dz2             0.0       0.0       0.3       0.1       0.3       0.0
 5 O  dxz             0.1       0.0       0.2       0.0       0.2       0.0
 5 O  dyz             0.2       0.1       0.2       0.6       0.2       0.0
 5 O  dx2y2           0.2       0.3       0.4       0.0       0.5       0.1
 5 O  dxy             0.1       0.0       0.2       0.0       0.2       0.1
 6 H  s               4.5       1.1       0.6       5.8       3.3       1.1
 6 H  pz              0.2       0.0       0.0       0.2       0.1       0.0
 7 H  s               4.8       1.3       0.5       0.4       9.9       0.0
 7 H  pz              0.2       0.0       0.0       0.0       0.0       0.0
 7 H  py              0.0       0.1       0.0       0.0       0.3       0.0
 8 H  s               0.5       1.0       3.1       0.9       1.4       0.7
 8 H  pz              0.0       0.0       0.1       0.0       0.0       0.0
 9 H  s               0.5       1.6       3.2       8.1       1.8       0.5
 9 H  pz              0.0       0.1       0.1       0.2       0.1       0.0
 9 H  py              0.0       0.0       0.0       0.0       0.0       0.1
10 H  s               0.0       0.8       0.4       0.1       0.1      12.9
10 H  pz              0.0       0.0       0.0       0.1       0.0       0.1
10 H  px              0.0       0.1       0.0       0.0       0.0       0.0
10 H  py              0.0       0.0       0.0       0.0       0.0       0.3
11 H  s               0.5       6.6       0.1       0.2       1.6       2.4
11 H  py              0.0       0.3       0.0       0.0       0.0       0.2
12 H  s               1.3       0.9       5.2       0.1       0.3       0.9
12 H  pz              0.1       0.0       0.2       0.0       0.0       0.0
12 H  py              0.0       0.0       0.0       0.0       0.0       0.2
13 H  s               8.1       0.9       2.7       0.1       0.1       0.1
13 H  px              0.2       0.0       0.1       0.0       0.0       0.0
13 H  py              0.0       0.0       0.1       0.0       0.1       0.0

                     18        19        20        21        22        23   
                  -0.36293  -0.33984  -0.30696  -0.30127  -0.26090  -0.25056
                   2.00000   2.00000   2.00000   2.00000   2.00000   2.00000
                  --------  --------  --------  --------  --------  --------
 0 C  s               0.1       0.4       0.4       0.4       0.7       0.0
 0 C  pz              2.8       0.2       1.5       1.4       1.3       4.3
 0 C  px              2.6       0.5       2.1       3.2       3.0       0.7
 0 C  py              0.6       6.1       1.8       0.2       0.4       1.2
 0 C  dz2             0.1       0.1       0.2       0.0       0.0       0.7
 0 C  dxz             0.1       0.0       0.0       0.0       0.1       0.1
 0 C  dyz             0.0       0.0       0.0       0.0       0.1       0.7
 0 C  dx2y2           0.0       0.2       0.1       0.2       0.1       0.3
 0 C  dxy             0.0       0.3       0.2       0.0       0.0       0.1
 1 C  s               0.4       1.1       0.2       0.2       0.1       0.0
 1 C  pz              9.9       1.3       3.3       9.2       0.1       0.2
 1 C  px              3.2       0.2       4.0       0.8       2.8       0.1
 1 C  py              1.0       0.0       0.4       3.6       0.4       0.2
 1 C  dz2             0.4       0.2       0.3       0.2       0.1       0.0
 1 C  dyz             0.0       0.0       0.1       0.4       0.0       0.0
 1 C  dx2y2           0.1       0.0       0.0       0.2       0.5       0.0
 1 C  dxy             0.0       0.0       0.1       0.0       0.4       0.1
 2 C  s               0.1       0.2       0.8       0.1       0.3       0.0
 2 C  pz              5.4       2.7       2.3       0.0       0.4       0.0
 2 C  px              7.5       0.4       0.3       0.7       0.4       0.1
 2 C  py              2.9       0.0       0.2       5.2       6.7       1.9
 2 C  dz2             0.1       0.0       0.1       0.0       0.6       0.0
 2 C  dx2y2           0.3       0.0       0.1       0.0       0.0       0.0
 2 C  dxy             0.0       0.1       0.1       0.6       0.1       0.0
 3 O  s               0.4       1.5       2.0       2.0       0.7       0.2
 3 O  pz             11.2       0.2       0.0       0.7      18.5       1.4
 3 O  px              1.2       5.2       7.6       0.6       0.2       0.0
 3 O  py              1.3       9.1      17.9      12.2       2.0       1.1
 3 O  dz2             0.5       0.2       0.1       0.0       0.3       0.0
 3 O  dx2y2           0.1       0.0       0.0       0.0       0.3       0.0
 3 O  dxy             0.2       0.0       0.4       0.6       0.6       0.2
 4 O  s               0.6       0.9       0.5       2.9       0.0       0.0
 4 O  pz              2.9       4.7       3.7      11.7       1.0       0.0
 4 O  px              1.3       2.0      12.5      15.4      30.3       0.0
 4 O  py             14.4       0.8       7.0       3.4      11.0       0.3
 4 O  dz2             0.0       0.3       0.5       0.6       0.0       0.1
 4 O  dxz             0.1       0.1       0.0       0.1       0.1       0.1
 4 O  dyz             0.3       0.2       0.2       1.0       0.0       0.0
 4 O  dx2y2           0.0       0.2       0.1       0.0       0.5       0.0
 4 O  dxy             0.1       0.2       0.0       0.2       0.2       0.0
 5 O  s               0.0       4.6       1.3       0.3       0.4       0.0
 5 O  pz              1.8      12.5       5.0       1.8       4.0      49.7
 5 O  px              0.0       5.8       2.3       2.9       0.4       5.5
 5 O  py              2.7      25.0       6.3       1.7       0.1      12.3
 5 O  dz2             0.1       0.0       0.1       0.2       0.2       0.2
 5 O  dxz             0.0       0.2       0.0       0.0       0.0       0.2
 5 O  dyz             0.0       0.0       0.0       0.0       0.1       0.4
 5 O  dx2y2           0.1       0.4       0.5       0.2       0.1       0.3
 5 O  dxy             0.4       0.0       0.1       0.3       0.2       0.0
 6 H  s               2.3       0.9       2.4       0.7       0.7       7.0
 7 H  s               1.9       2.9       1.2       0.0       0.0       7.4
 8 H  s               7.7       2.8       4.2       4.9       0.2       0.3
 8 H  pz              0.1       0.1       0.0       0.0       0.0       0.0
 9 H  s               3.4       1.1       1.4       0.0       3.4       0.2
10 H  s               5.7       0.3       0.6       3.5       3.5       0.7
10 H  py              0.2       0.0       0.0       0.0       0.0       0.0
11 H  s               0.0       0.5       1.1       1.5       0.5       0.2
11 H  pz              0.2       0.0       0.0       0.0       0.4       0.0
11 H  px              0.0       0.2       0.3       0.1       0.0       0.0
12 H  s               0.1       0.8       0.5       1.9       0.0       0.0
12 H  px              0.0       0.0       0.2       0.3       0.6       0.0
12 H  py              0.3       0.0       0.2       0.1       0.2       0.0
13 H  s               0.1       1.3       0.8       0.5       0.5       0.0
13 H  pz              0.0       0.1       0.0       0.1       0.0       1.0
13 H  py              0.0       0.5       0.1       0.0       0.0       0.2

                     24        25        26        27        28        29   
                  -0.22958   0.02922   0.06230   0.08653   0.11686   0.12984
                   2.00000   0.00000   0.00000   0.00000   0.00000   0.00000
                  --------  --------  --------  --------  --------  --------
 0 C  s               0.2       0.8       9.0       2.6       1.5       0.3
 0 C  pz              0.3       0.2       4.5       0.6      10.3       2.1
 0 C  px              2.3      13.3       3.0       2.5       0.9       7.4
 0 C  py              0.2       9.5       2.8       0.9       0.7       8.0
 0 C  dz2             0.0       0.2       0.1       0.0       0.1       0.4
 0 C  dxz             0.0       0.2       0.0       0.1       0.5       0.3
 0 C  dyz             0.0       0.1       0.0       0.0       0.2       0.5
 0 C  dx2y2           0.0       0.2       0.0       0.0       0.0       0.0
 0 C  dxy             0.1       1.4       0.2       0.0       0.0       0.2
 1 C  s               0.4       0.4       1.6       0.6       5.3       3.6
 1 C  pz              0.8       0.3       0.6       0.8      18.2       2.2
 1 C  px              3.7       4.2       0.1       3.2       1.0       0.0
 1 C  py              3.2       5.2       1.1       0.9       6.4       2.5
 1 C  dz2             0.0       0.1       0.0       0.1       2.4       0.1
 1 C  dxz             0.0       0.2       0.0       0.1       0.0       0.0
 1 C  dyz             0.0       0.0       0.1       0.2       0.0       0.1
 1 C  dx2y2           0.4       0.3       0.0       0.1       0.1       0.1
 1 C  dxy             0.1       0.9       0.0       0.0       0.1       0.1
 2 C  s               0.3       0.4       2.9       2.0       0.3       8.9
 2 C  pz              4.2       0.9       2.5       2.3       7.1       9.5
 2 C  px              1.5       3.7       0.4      20.0       3.2       0.4
 2 C  py              1.3       0.7       1.6       0.5       0.7       0.2
 2 C  dz2             0.8       0.0       0.0       0.2       1.0       0.2
 2 C  dxz             0.5       0.0       0.0       1.0       0.4       0.0
 2 C  dyz             0.1       0.0       0.1       0.0       0.0       0.1
 2 C  dx2y2           0.0       0.6       0.0       1.0       0.0       0.1
 3 O  s               0.0       1.5       0.0       9.5       0.1       0.1
 3 O  pz             45.5       0.0       0.1       0.5       0.8       0.8
 3 O  px             10.9       0.5       0.4       1.7       0.3       1.5
 3 O  py              0.8       1.0       0.4       3.4       0.3       0.4
 3 O  dz2             0.4       0.3       0.1       0.1       0.0       0.1
 3 O  dxz             0.3       0.0       0.4       0.1       0.1       3.1
 3 O  dyz             0.0       0.0       0.1       0.0       0.2       0.2
 3 O  dx2y2           0.4       0.1       0.5       0.6       0.9       0.5
 3 O  dxy             0.1       0.2       0.1       1.6       0.0       0.3
 4 O  s               0.1       5.5       2.4       0.2       1.2       1.2
 4 O  pz              0.4       2.3       4.9       0.5       1.9       0.2
 4 O  px              7.9       0.5       0.3       2.6       0.3       1.5
 4 O  py              2.7       1.5       1.1       0.8       1.2       0.4
 4 O  dz2             0.1       0.7       3.6       1.8       0.1       0.1
 4 O  dxz             0.0       0.3       0.0       0.0       0.1       0.1
 4 O  dyz             0.0       0.2       0.1       0.2       0.8       1.3
 4 O  dx2y2           0.3       0.2       0.1       0.2       0.0       0.8
 4 O  dxy             0.1       0.0       0.4       0.3       0.1       0.7
 5 O  s               0.0       6.3       2.5       0.8       0.1       0.2
 5 O  pz              0.1       1.1       0.2       0.2       0.0       0.2
 5 O  px              0.2       1.0       3.2       1.4       0.4       5.2
 5 O  py              0.1       2.2       0.6       0.4       0.4       0.2
 5 O  dz2             0.0       0.1       0.0       0.3       0.6       1.4
 5 O  dxz             0.0       0.4       0.5       0.9       1.1       1.4
 5 O  dyz             0.0       0.0       0.7       0.6       0.2       1.0
 5 O  dx2y2           0.0       0.7       2.2       0.1       0.0       1.5
 5 O  dxy             0.2       0.1       0.6       0.1       0.7       0.1
 6 H  s               0.0       0.1       3.1       0.6       0.5       2.1
 6 H  pz              0.0       0.0       1.3       0.5       0.3       0.5
 6 H  px              0.0       0.4       0.0       0.1       0.2       0.2
 6 H  py              0.0       0.4       0.0       0.0       0.2       0.6
 7 H  s               0.6       0.3       1.5       0.6       2.8       1.8
 7 H  pz              0.0       0.1       0.3       0.1       0.4       0.9
 7 H  px              0.0       0.6       0.2       0.0       0.1       0.0
 7 H  py              0.0       0.1       0.2       0.2       0.5       0.0
 8 H  s               0.3       0.0       0.4       0.2       9.2       0.9
 8 H  pz              0.0       0.0       0.0       0.0       3.9       0.5
 8 H  px              0.0       0.3       0.0       0.1       0.0       0.0
 8 H  py              0.0       0.1       0.0       0.1       0.2       0.2
 9 H  s               5.6       0.2       1.1       0.3       4.1       6.7
 9 H  pz              0.0       0.0       0.3       0.0       1.4       2.5
 9 H  px              0.0       0.0       0.0       1.2       0.2       0.0
 9 H  py              0.0       0.1       0.3       0.0       0.0       0.2
10 H  s               0.1       0.7       0.8       0.3       0.6       0.4
10 H  pz              0.1       0.0       0.1       0.2       0.1       0.2
10 H  px              0.0       0.1       0.1       0.3       0.1       0.2
10 H  py              0.0       0.0       0.1       0.2       0.1       0.1
11 H  s               0.0       2.3       0.8      14.9       0.7       1.9
11 H  pz              0.9       0.0       0.0       0.1       0.0       0.0
11 H  px              0.2       0.2       0.0       1.2       0.0       0.0
11 H  py              0.0       0.5       0.2       3.2       0.1       0.4
12 H  s               0.0       9.2      15.5       0.9       1.0       1.3
12 H  pz              0.0       2.2       3.5       0.4       0.1       0.3
12 H  px              0.2       0.0       0.0       0.0       0.0       0.0
12 H  py              0.1       0.3       0.1       0.0       0.0       0.2
13 H  s               0.1       8.7      11.6       4.1       0.6       4.4
13 H  pz              0.0       0.1       0.3       0.1       0.0       0.1
13 H  px              0.0       2.3       2.4       0.9       0.1       0.8

                     30        31        32        33        34        35   
                   0.13780   0.14830   0.15433   0.16011   0.17918   0.18430
                   0.00000   0.00000   0.00000   0.00000   0.00000   0.00000
                  --------  --------  --------  --------  --------  --------
 0 C  s               7.7       0.4       1.5       4.2       2.1       0.3
 0 C  pz              1.9       2.3       7.0      11.1      13.0      10.7
 0 C  px              3.8       3.7       0.3       0.8       7.5      12.0
 0 C  py             20.0       5.8       3.2       0.4       7.4       3.1
 0 C  dz2             0.3       0.5       0.6       0.5       0.0       1.3
 0 C  dxz             0.0       0.2       0.2       0.1       0.4       0.5
 0 C  dyz             0.2       0.3       0.3       0.0       0.2       0.2
 0 C  dx2y2           0.1       0.3       0.0       0.0       0.6       2.0
 0 C  dxy             0.0       0.1       1.1       0.0       0.1       0.0
 1 C  s               0.1       0.3       2.9       5.8       2.2       3.8
 1 C  pz              0.6       0.6       2.9       0.7       2.0       5.9
 1 C  px              2.0       2.3       5.1       0.6       5.2       6.6
 1 C  py              4.7       1.9       2.3       6.5       0.1       1.1
 1 C  dz2             0.0       0.0       0.0       0.0       0.0       1.0
 1 C  dxz             0.0       0.4       1.3       0.2       0.4       0.0
 1 C  dyz             0.2       0.6       0.0       0.2       0.1       0.1
 1 C  dx2y2           0.8       0.3       0.0       0.5       0.0       0.5
 1 C  dxy             0.4       0.0       0.6       0.4       0.0       0.0
 2 C  s               0.9       9.4       1.6       0.5       2.2       3.0
 2 C  pz              0.0       1.1       9.7       5.3       0.2       0.9
 2 C  px              1.2       2.7       0.7       0.6       3.5       2.3
 2 C  py              6.9      21.6       5.6       6.3       2.4       0.0
 2 C  dz2             0.2       0.1       0.0       0.3       0.1       0.3
 2 C  dxz             0.0       0.1       0.1       0.1       0.2       0.2
 2 C  dyz             0.0       0.3       1.0       0.8       0.1       0.1
 2 C  dx2y2           0.5       0.2       0.3       0.2       0.3       0.4
 2 C  dxy             0.5       0.0       0.8       0.1       0.2       0.2
 3 O  s               0.2       0.0       0.2       0.4       0.1       1.0
 3 O  pz              0.0       0.1       0.1       0.1       2.5       0.5
 3 O  px              0.8       0.5       2.1       0.3       0.2       4.2
 3 O  py              0.5       3.1       0.2       0.6       0.8       0.1
 3 O  dz2             0.0       1.3       0.0       1.3       0.0       0.1
 3 O  dxz             0.0       1.2       0.1       0.9       0.1       0.5
 3 O  dyz             0.2       0.4       4.6       1.6       3.2       0.0
 3 O  dx2y2           0.1       0.1       1.0       1.0       0.1       1.9
 3 O  dxy             1.5       1.0       0.1       0.0       0.0       1.0
 4 O  s               1.5       0.4       0.3       0.6       0.1       0.4
 4 O  pz              0.4       0.1       0.4       4.2       0.8       0.3
 4 O  px              0.1       1.8       0.9       0.3       0.2       0.6
 4 O  py              1.6       0.4       0.2       2.3       0.1       0.4
 4 O  dz2             0.6       1.0       0.2       3.9       0.1       0.1
 4 O  dxz             0.8       2.7       0.6       0.1       5.8       0.2
 4 O  dyz             0.3       0.0       3.5       0.4       0.8       0.5
 4 O  dx2y2           2.3       0.5       0.4       0.3       0.3       0.0
 4 O  dxy             0.8       0.1       0.0       0.1       0.2       2.3
 5 O  s               2.0       0.3       0.2       0.3       0.1       0.3
 5 O  pz              0.6       0.1       0.7       1.4       0.7       0.4
 5 O  px              0.4       0.7       0.3       0.1       2.5       0.5
 5 O  py              1.0       3.0       1.1       0.0       0.8       0.1
 5 O  dz2             0.1       0.2       0.8       1.7       0.2       0.0
 5 O  dxz             0.2       0.4       5.7       0.4       0.5       1.8
 5 O  dyz             0.0       0.1       0.3       1.3       0.4       1.5
 5 O  dx2y2           2.5       1.4       0.0       1.4       0.8       1.1
 5 O  dxy             0.1       0.7       0.2       0.0       2.1       3.6
 6 H  s               0.7       0.6       7.2       6.8       0.2       3.2
 6 H  pz              0.4       0.0       2.1       3.2       0.0       0.1
 6 H  px              0.0       0.2       0.1       0.1       0.3       0.9
 6 H  py              0.4       0.4       0.4       0.0       0.1       0.1
 7 H  s               4.3       0.5       4.4       0.1       2.8       3.1
 7 H  pz              0.0       0.1       0.0       0.2       0.4       2.0
 7 H  px              0.4       0.0       0.9       0.0       1.5       0.2
 7 H  py              2.5       0.6       0.2       0.0       0.6       0.9
 8 H  s               0.3       0.7       0.9       2.2       0.6       3.0
 8 H  pz              0.0       0.0       0.6       1.1       0.4       0.4
 8 H  px              0.1       0.4       0.8       0.0       0.9       0.0
 8 H  py              0.4       0.4       0.0       0.9       0.0       0.1
 9 H  s               0.3       2.6       0.1       3.0       0.0       0.1
 9 H  pz              0.0       1.3       0.3       0.3       0.0       0.1
 9 H  px              0.0       0.1       0.1       0.1       0.5       0.1
 9 H  py              0.1       0.1       0.8       0.6       0.4       0.0
10 H  s               6.0       3.1       2.7       0.1       5.0       0.3
10 H  pz              0.0       0.0       1.1       0.8       0.2       0.0
10 H  px              0.3       0.1       0.1       0.0       0.0       0.3
10 H  py              1.6       2.3       0.1       0.2       1.2       0.1
11 H  s               3.2       5.2       0.9       3.2       0.7       0.6
11 H  px              0.3       0.3       0.0       0.1       0.0       0.0
11 H  py              0.6       0.9       0.2       0.5       0.1       0.3
12 H  s               2.9       1.1       1.8       2.7       0.7       0.6
12 H  pz              0.6       0.4       0.4       0.8       0.1       0.1
12 H  px              0.0       0.0       0.0       0.0       0.1       0.0
12 H  py              0.3       0.0       0.1       0.1       0.0       0.0
13 H  s               2.0       0.7       0.0       1.2       7.1       2.7
13 H  pz              0.0       0.0       0.1       0.0       0.2       0.0
13 H  px              0.5       0.1       0.0       0.3       1.5       0.6
13 H  py              0.1       0.1       0.0       0.0       0.0       0.2

                     36        37        38        39        40        41   
                   0.21026   0.22148   0.26301   0.26563   0.29341   0.30494
                   0.00000   0.00000   0.00000   0.00000   0.00000   0.00000
                  --------  --------  --------  --------  --------  --------
 0 C  s               1.1       0.2       0.6       2.0       2.3       0.5
 0 C  pz              4.7       0.9       9.3       3.1       5.8       5.8
 0 C  px              0.8       2.0       5.3       0.5       0.4       2.6
 0 C  py              2.9       0.6       4.1       3.2       3.6       9.6
 0 C  dz2             0.3       0.1       0.2       0.1       0.1       0.6
 0 C  dxz             0.0       0.1       0.0       0.9       0.3       0.3
 0 C  dyz             0.0       0.0       0.4       0.0       0.0       0.3
 0 C  dx2y2           0.1       0.4       0.1       0.1       0.0       0.3
 0 C  dxy             0.7       0.0       0.2       0.1       0.8       0.0
 1 C  s               0.5       1.8       0.1       0.9       0.2       1.9
 1 C  pz              0.3      19.2       1.6      12.1       2.3       0.2
 1 C  px              0.1       0.3       8.5       2.0       2.1       0.3
 1 C  py              8.0       0.8       2.6       8.6       2.1       5.2
 1 C  dz2             0.2       0.0       0.2       1.4       1.2       0.1
 1 C  dxz             0.0       0.0       0.9       0.3       0.0       0.1
 1 C  dyz             0.0       0.0       0.0       0.5       0.0       0.1
 1 C  dx2y2           0.0       0.0       0.3       0.0       0.3       0.1
 1 C  dxy             1.6       0.0       0.0       0.0       0.7       0.0
 2 C  s               0.2       1.7       0.1       2.1       1.4       5.4
 2 C  pz             20.2       8.8       8.4       2.9       4.2       0.8
 2 C  px              2.8       7.7       3.6       2.2       4.4       4.6
 2 C  py              6.9       4.6       5.0       6.1       9.2       0.2
 2 C  dz2             0.2       0.0       0.5       0.0       1.9       0.3
 2 C  dxz             0.2       0.3       0.2       0.0       0.0       0.0
 2 C  dyz             0.2       0.5       0.2       0.0       0.0       0.0
[...]
 2 C  dz2             2.1       0.5       0.1       0.7       0.0       0.0
 2 C  dxz             0.2       1.8       0.6       2.5       0.0       0.0
 2 C  dyz             1.3       0.0       0.1       0.0       0.0       0.0
 2 C  dx2y2           0.0       1.5       0.3       4.6       0.0       0.0
 2 C  dxy             0.8       0.0       0.1       0.4       0.0       0.0
 3 O  s               0.0       6.7       1.8      16.5       0.0       0.0
 3 O  pz              0.0       0.7       0.3       1.7       0.0       0.0
 3 O  px              0.0       4.1       1.0      10.1       0.1       0.0
 3 O  py              0.1       0.5       0.1       1.7       0.0       0.0
 3 O  dz2             0.1       1.7       0.4       5.0       0.0       0.0
 3 O  dxz             0.1       3.4       0.9       7.2       0.0       0.0
 3 O  dx2y2           0.5       1.6       0.3       2.9       0.1       0.0
 3 O  dxy             0.5       0.0       0.0       0.1       0.0       0.0
 4 O  s               0.4       6.6      14.6       6.4       3.1       2.8
 4 O  pz              0.6       0.0       0.2       0.2       7.3       8.1
 4 O  px              0.0       0.8       2.4       1.4       0.1       0.1
 4 O  py              0.2       2.6       8.2       3.9       1.6       2.5
 4 O  dz2             0.0       0.3       0.0       0.0      17.4      18.5
 4 O  dxz             0.1       0.1       0.0       0.1       0.1       0.1
 4 O  dyz             0.2       0.6       2.0       0.4       1.7       1.5
 4 O  dx2y2           0.4       1.2       4.8       1.4       0.0       0.2
 4 O  dxy             0.0       2.1       6.4       4.3       0.3       0.5
 5 O  s               0.1      13.8       8.9       2.6       3.3       2.4
 5 O  pz              0.0       1.0       1.0       0.2       0.4       0.3
 5 O  px              0.1       0.8       0.4       0.5       9.4       9.7
 5 O  py              0.0       9.0       5.5       1.2       0.5       0.8
 5 O  dz2             0.1       4.6       3.6       0.5       1.5       0.9
 5 O  dxz             0.2       0.1       0.1       0.0       4.9       4.6
 5 O  dyz             0.0       2.7       2.0       0.3       0.1       0.2
 5 O  dx2y2           0.0       0.5       0.0       0.0      13.9      12.4
 5 O  dxy             0.0       5.1       3.9       0.7       0.4       0.7
 6 H  s               1.2       0.3       0.2       0.0       0.0       0.0
 6 H  pz              3.5       0.5       0.3       0.0       0.0       0.0
 6 H  px              0.0       0.1       0.0       0.0       0.0       0.0
 6 H  py              0.0       0.2       0.1       0.1       0.0       0.0
 7 H  s               0.0       0.4       0.2       0.1       0.0       0.0
 7 H  pz              0.1       0.4       0.1       0.1       0.0       0.0
 7 H  px              0.2       0.4       0.2       0.1       0.0       0.0
 7 H  py              0.1       0.0       0.0       0.0       0.0       0.0
 8 H  s               9.0       0.1       0.1       0.2       0.2       0.1
 8 H  pz             22.0       0.1       0.3       0.2       0.2       0.1
 8 H  px              0.2       0.1       0.1       0.0       0.0       0.0
 8 H  py              0.8       0.4       0.3       0.1       0.0       0.0
 9 H  s               0.7       0.1       0.0       0.4       0.0       0.0
 9 H  pz              2.1       0.1       0.0       0.4       0.0       0.0
 9 H  px              0.0       0.1       0.1       0.3       0.0       0.0
 9 H  py              0.1       0.0       0.0       0.0       0.0       0.0
10 H  s               0.1       0.1       0.0       0.3       0.0       0.0
10 H  pz              0.0       0.0       0.0       0.3       0.0       0.0
10 H  px              0.5       0.0       0.1       0.0       0.0       0.0
10 H  py              0.1       0.2       0.0       0.5       0.0       0.0
11 H  s               0.0       0.1       0.1       0.5       0.0       0.0
11 H  px              0.1       0.1       0.0       0.2       0.0       0.0
11 H  py              0.1       0.1       0.0       0.5       0.0       0.0
12 H  s               0.1       0.0       0.6       0.3       6.5       6.7
12 H  pz              0.0       0.1       0.9       0.3       7.4       7.7
12 H  py              0.0       0.1       0.1       0.2       0.5       0.4
13 H  s               0.0       0.3       0.5       0.0       7.4       6.5
13 H  pz              0.0       0.0       0.0       0.0       0.7       0.7
13 H  px              0.0       0.6       0.7       0.1       7.6       6.6

                    162       163       164       165       166       167   
                   4.59313  22.00816  22.03641  22.09190  43.58401  43.60484
                   0.00000   0.00000   0.00000   0.00000   0.00000   0.00000
                  --------  --------  --------  --------  --------  --------
 0 C  s               0.0      94.9       3.4       1.2       0.0       0.0
 1 C  s               0.0       1.4       0.1      98.2       0.0       0.0
 2 C  s               0.1       3.3      96.1       0.2       0.0       0.0
 2 C  px              1.1       0.0       0.0       0.0       0.0       0.0
 2 C  dxz             0.5       0.0       0.0       0.0       0.0       0.0
 2 C  dx2y2           1.2       0.0       0.0       0.0       0.0       0.0
 2 C  dxy             0.2       0.0       0.0       0.0       0.0       0.0
 3 O  s               6.7       0.0       0.1       0.0      54.1      11.8
 3 O  pz              0.7       0.0       0.0       0.0       0.0       0.0
 3 O  px              6.2       0.0       0.0       0.0       0.0       0.0
 3 O  py             12.8       0.0       0.0       0.0       0.0       0.0
 3 O  dz2             6.6       0.0       0.0       0.0       0.0       0.0
 3 O  dxz             0.2       0.0       0.0       0.0       0.0       0.0
 3 O  dyz             0.6       0.0       0.0       0.0       0.0       0.0
 3 O  dx2y2          20.9       0.0       0.0       0.0       0.0       0.0
 3 O  dxy            11.5       0.0       0.0       0.0       0.0       0.0
 4 O  s               0.2       0.0       0.0       0.1      16.5      21.7
 5 O  s               0.1       0.1       0.0       0.0      29.3      66.4
10 H  s               0.2       0.0       0.0       0.0       0.0       0.0
10 H  py              0.2       0.0       0.0       0.0       0.0       0.0
11 H  s              13.3       0.0       0.0       0.0       0.0       0.0
11 H  pz              0.1       0.0       0.0       0.0       0.0       0.0
11 H  px              2.4       0.0       0.0       0.0       0.0       0.0
11 H  py             13.4       0.0       0.0       0.0       0.0       0.0

                    168   
                  43.68265
                   0.00000
                  --------
 3 O  s              34.0
 4 O  s              61.8
 5 O  s               4.1


                      *****************************
                      * MAYER POPULATION ANALYSIS *
                      *****************************

  NA   - Mulliken gross atomic population
  ZA   - Total nuclear charge
  QA   - Mulliken gross atomic charge
  VA   - Mayer's total valence
  BVA  - Mayer's bonded valence
  FA   - Mayer's free valence

  ATOM       NA         ZA         QA         VA         BVA        FA
  0 C      6.1429     6.0000    -0.1429     3.8302     3.8302     0.0000
  1 C      5.9886     6.0000     0.0114     3.7505     3.7505     0.0000
  2 C      6.1875     6.0000    -0.1875     3.8397     3.8397     0.0000
  3 O      8.4173     8.0000    -0.4173     1.8108     1.8108     0.0000
  4 O      8.4287     8.0000    -0.4287     1.8444     1.8444     0.0000
  5 O      8.4374     8.0000    -0.4374     1.8275     1.8275     0.0000
  6 H      0.8827     1.0000     0.1173     0.9584     0.9584     0.0000
  7 H      0.8612     1.0000     0.1388     0.9500     0.9500     0.0000
  8 H      0.8484     1.0000     0.1516     0.9604     0.9604    -0.0000
  9 H      0.8749     1.0000     0.1251     0.9558     0.9558     0.0000
 10 H      0.8381     1.0000     0.1619     0.9515     0.9515     0.0000
 11 H      0.6887     1.0000     0.3113     0.9069     0.9069     0.0000
 12 H      0.7032     1.0000     0.2968     0.9109     0.9109     0.0000
 13 H      0.7003     1.0000     0.2997     0.9110     0.9110    -0.0000

  Mayer bond orders larger than 0.100000
B(  0-C ,  1-C ) :   0.9738 B(  0-C ,  5-O ) :   0.9398 B(  0-C ,  6-H ) :   0.9540 
B(  0-C ,  7-H ) :   0.9582 B(  1-C ,  2-C ) :   0.9635 B(  1-C ,  4-O ) :   0.9500 
B(  1-C ,  8-H ) :   0.9359 B(  2-C ,  3-O ) :   0.9586 B(  2-C ,  9-H ) :   0.9708 
B(  2-C , 10-H ) :   0.9575 B(  3-O , 11-H ) :   0.8751 B(  4-O , 12-H ) :   0.8905 
B(  5-O , 13-H ) :   0.8965 

-------
TIMINGS
-------

Total SCF time: 0 days 0 hours 0 min 18 sec 

Total time                  ....      18.247 sec
Sum of individual times     ....      17.719 sec  ( 97.1%)

SCF preparation             ....       0.179 sec  (  1.0%)
Fock matrix formation       ....      16.611 sec  ( 91.0%)
  Startup                   ....       0.054 sec  (  0.3% of F)
  Split-RI-J                ....       2.621 sec  ( 15.8% of F)
  XC integration            ....      13.386 sec  ( 80.6% of F)
    Basis function eval.    ....       2.332 sec  ( 17.4% of XC)
    Density eval.           ....       3.804 sec  ( 28.4% of XC)
    XC-Functional eval.     ....       1.879 sec  ( 14.0% of XC)
    XC-Potential eval.      ....       4.478 sec  ( 33.5% of XC)
Diagonalization             ....       0.000 sec  (  0.0%)
Density matrix formation    ....       0.219 sec  (  1.2%)
Total Energy calculation    ....       0.037 sec  (  0.2%)
Population analysis         ....       0.094 sec  (  0.5%)
Orbital Transformation      ....       0.051 sec  (  0.3%)
Orbital Orthonormalization  ....       0.000 sec  (  0.0%)
DIIS solution               ....       0.476 sec  (  2.6%)
  MO trafo                  ....       0.000 sec  (  0.0 % of DIIS)
  Orb grad                  ....       0.000 sec  (  0.0 % of DIIS)
  Energy W gradient         ....       0.000 sec  (  0.0 % of DIIS)
  DIIS error                ....       0.007 sec  (  1.5 % of DIIS)
  DIIS work                 ....       0.424 sec  ( 89.0 % of DIIS)
  Form Q                    ....       0.000 sec  (  0.0 % of DIIS)
  Form QpQm                 ....       0.000 sec  (  0.0 % of DIIS)
  Exp/Cayley                ....       0.000 sec  (  0.0 % of DIIS)
  Orb update                ....       0.000 sec  (  0.0 % of DIIS)
  Wake-sleep                ....       0.020 sec  (  4.1 % of DIIS)
SOSCF solution              ....       0.052 sec  (  0.3%)
  MO trafo                  ....       0.039 sec  ( 76.4 % of SOSCF)
  Orb grad                  ....       0.002 sec  (  4.5 % of SOSCF)
  Rot update                ....       0.000 sec  (  0.0 % of SOSCF)
  Step                      ....       0.010 sec  ( 18.9 % of SOSCF)
Finished LeanSCF after  18.3 sec

Maximum memory used throughout the entire LEANSCF-calculation: 17.4 MB


-------------------------------------------------------------------------------
                          DFT DISPERSION CORRECTION                            
                                                                               
                                DFTD4 V3.4.0                                   
-------------------------------------------------------------------------------
The R2SCAN3C composite method is recognized
Using three-body term ABC
Active option DFTDOPT                   ...         5   

-------------------------   ----------------
Dispersion correction           -0.002998205
-------------------------   ----------------

------------------   -----------------
gCP correction             0.010391345
------------------   -----------------

-------------------------   --------------------
FINAL SINGLE POINT ENERGY      -344.722867506837
-------------------------   --------------------


------------------------------------------------------------------------------
                              ORCA PROPERTY CALCULATIONS
------------------------------------------------------------------------------

GBWName                                 ... sp_gas.gbw
Number of atoms                         ...     14
Number of basis functions               ...    169
Max core memory                         ...   1024 MB

Electric properties:
Dipole moment                           ... YES
Quadrupole moment                       ...  NO
Static polarizability (Dipole/Dipole)   ...  NO
Static polarizability (Dipole/Quad.)    ...  NO
Static polarizability (Quad./Quad.)     ...  NO
Static polarizability (Velocity)        ...  NO

Atomic electric properties:
Dipole moment                           ...  NO
Quadrupole moment                       ...  NO
Static polarizability                   ...  NO

Choice of electric origin               ... Center of mass
Position of electric origin             ...    -0.000012     0.000001    -0.000008

General magnetic properties:
Magnetizability                         ...  NO

EPR properties:
g-Tensor (aka g-matrix)                 ...  NO
Zero-Field splitting spin-orbit         ...  NO
Zero-field splitting spin-spin          ...  NO
Hyperfine couplings                     ...  NO (   0 nuclei)
Quadrupole couplings                    ...  NO (   0 nuclei)
Contact density                         ...  NO (   0 nuclei)

NMR properties:
Chemical shifts                         ...  NO (   0 nuclei)
Spin-rotation constants                 ...  NO (   0 nuclei)
Spin-spin couplings                     ...  NO (   0 nuclei,    0 pairs)

Choice of magnetic origin               ... GIAO
Position of magnetic origin             ...     0.000000     0.000000     0.000000

Properties with geometric perturbations:
SCF Hessian                             ...  NO
IR spectrum                             ...  NO
VCD spectrum                            ...  NO
X-ray spectroscopy properties:
SCF XES/XAS/RIXS spectra                ...  NO


-------------
DIPOLE MOMENT
-------------

Method             : SCF
Type of density    : Electron Density
Multiplicity       :   1
Irrep              :   0
Energy             :  -344.7302606466562906 Eh
Relativity type    : 
Basis              : AO
                                X                 Y                 Z
Electronic contribution:      1.153236528      -0.084756864       1.241269207
Nuclear contribution   :     -2.060878557       0.701092600      -2.053617108
                        -----------------------------------------
Total Dipole Moment    :     -0.907642029       0.616335736      -0.812347902
                        -----------------------------------------
Magnitude (a.u.)       :      1.365134757
Magnitude (Debye)      :      3.469896796



--------------------
Rotational spectrum 
--------------------
 
Rotational constants in cm-1:             0.176473             0.079923             0.059220 
Rotational constants in MHz :          5290.536068          2396.042781          1775.377628 

Dipole components along the rotational axes: 
x,y,z [a.u.] :    -0.918102    -0.607627    -0.807138 
x,y,z [Debye]:    -2.333629    -1.544466    -2.051581 

 

Dipole moment calculation done in   0.0 sec 

Maximum memory used throughout the entire PROP-calculation: 9.8 MB

--------------------------------
SUGGESTED CITATIONS FOR THIS RUN
--------------------------------

Below you find a list of papers that are relevant to this ORCA run
We neither can nor want to force you to cite these papers, but we appreciate if you do
You receive ORCA, which is the product of decades of hard work by many enthusiastic individuals, for free
The only thing we kindly ask in return is that you cite our papers,
We deeply appreciate it, if you show your appreciation for ORCA by not just citing the generic ORCA reference.

Please note that relegating all ORCA citations to the supporting information does *not* help us.
SI sections are not indexed - citations you put there will not count into any citation statistics
But we need these citations in order to attract the funding resources that allow us to do what we are doing

Therefore, if you are a happy ORCA user, please consider citing a few of the papers listed below in the main body of your paper

In addition to the list printed below, the program has created the file sp_gas.bibtex that contains the list in bibtex format
You can import this file easily into all common literature databanks and citation aid programs


List of essential papers. We consider these as the minimum necessary citations

  1. Neese,F.
     Software update: the ORCA program system, version 5.0
     WIRES Comput. Molec. Sci., 2022 12(1)e1606
     doi.org/10.1002/wcms.1606
  2. Grimme,S.; Hansen,A.; Ehlert,S.; Mewes,J.
     r2SCAN-3c: A 'Swiss army knife' composite electronic-structure method
     J. Chem. Phys., 2021 154 064103
     doi.org/10.1063/5.0040021

List of papers to cite with high priority. The work reported in these papers was absolutely
necessary for this run to complete.
Our perspective: the developers of density functionals and basis sets usually get cited in chemistry papers
Good! But without the algorithms to do something with them, the functionals or basis sets would not do anything.
Hence, in our opinion, the algorithm design and method developments papers are equally worthy of getting cited

  1. Neese,F.
     An improvement of the resolution of the identity approximation for the formation of the Coulomb matrix
     J. Comp. Chem., 2003 24(14)1740-1747
     doi.org/10.1002/jcc.10318
  2. Neese,F.
     The SHARK Integral Generation and Digestion System
     J. Comp. Chem., 2022  1-16
     doi.org/10.1002/jcc.26942
  3. Lehtola,S.; Steigemann,C.; Oliveira,M.; Marques,M.
     Recent developments in Libxc - A comprehensive library of functionals for density functional theory
     Software X, 2018 7 
     doi.org/10.1016/j.softx.2017.11.002
  4. Caldeweyher,E.; Bannwarth,C.; Grimme,S.
     Extension of the D3 dispersion coefficient model
     J. Chem. Phys., 2017 147 034112-XXXX
     doi.org/10.1063/1.4993215
  5. Caldeweyher,E.; Ehlert,S.; Hansen,A.; Neugebauer,H.; Spicher,S.; Bannwarth,C.; Grimme,S.
     A generally applicable atomic-charge dependent London dispersion correction
     J. Chem. Phys., 2019 150 154122-XXXX
     doi.org/10.1063/1.5090222
  6. Caldeweyher,E.; Mewes,J.; Ehlert,S.; Grimme,S.
     Extension and evaluation of the D4 London-dispersion model for periodic systems
     Phys. Chem. Chem. Phys., 2020 22(16)8499-8512
     doi.org/10.1039/D0CP00502A

List of suggested additional citations. These are papers that are important in the 'surrounding' of 
of this run, or papers that preceded the highly important papers. If you like your results we are grateful for a citation.

  1. Neese,F.
     The ORCA program system
     WIRES Comput. Molec. Sci., 2012 2(1)73-78
     doi.org/10.1002/wcms.81
  2. Neese,F.
     Software update: the ORCA program system, version 4.0
     WIRES Comput. Molec. Sci., 2018 8(1)1-6
     doi.org/10.1002/wcms.1327
  3. Neese,F.; Wennmohs,F.; Becker,U.; Riplinger,C.
     The ORCA quantum chemistry program package
     J. Chem. Phys., 2020 152 Art. No. L224108
     doi.org/10.1063/5.0004608

List of optional additional citations

  1. Neese,F.
     Approximate second-order SCF convergence for spin unrestricted wavefunctions
     Chem. Phys. Lett., 2000 325(1-3)93-98
     doi.org/10.1016/s0009-2614(00)00662-x

Timings for individual modules:

Sum of individual times          ...       19.696 sec (=   0.328 min)
Startup calculation              ...        0.946 sec (=   0.016 min)   4.8 %
SCF iterations                   ...       18.633 sec (=   0.311 min)  94.6 %
Property calculations            ...        0.116 sec (=   0.002 min)   0.6 %
                             ****ORCA TERMINATED NORMALLY****
TOTAL RUN TIME: 0 days 0 hours 0 minutes 20 seconds 498 msec
