
                                 *****************
                                 * O   R   C   A *
                                 *****************

                                            #,                                       
                                            ###                                      
                                            ####                                     
                                            #####                                    
                                            ######                                   
                                           ########,                                 
                                     ,,################,,,,,                         
                               ,,#################################,,                 
                          ,,##########################################,,             
                       ,#########################################, ''#####,          
                    ,#############################################,,   '####,        
                  ,##################################################,,,,####,       
                ,###########''''           ''''###############################       
              ,#####''   ,,,,##########,,,,          '''####'''          '####       
            ,##' ,,,,###########################,,,                        '##       
           ' ,,###''''                  '''############,,,                           
         ,,##''                                '''############,,,,        ,,,,,,###''
      ,#''                                            '''#######################'''  
     '                                                          ''''####''''         
             ,#######,   #######,   ,#######,      ##                                
            ,#'     '#,  ##    ##  ,#'     '#,    #''#        ,####,   ,####,        
            ##       ##  ##   ,#'  ##            #'  '#       #'       #'  '#        
            ##       ##  #######   ##           ,######,      #####,   #    #        
            '#,     ,#'  ##    ##  '#,     ,#' ,#      #,     #,   #   #,  ,#        
             '#######'   ##     ##  '#######'  #'      '#     '####' # '####'        



                #########################################################
                #                        -***-                          #
                #          Department of theory and spectroscopy        #
                #                                                       #
                #                      Frank Neese                      #
                #                                                       #
                #     Directorship, Architecture, Infrastructure        #
                #                    SHARK, DRIVERS                     #
                #        Core code/Algorithms in most modules           #
                #                                                       #
                #        Max Planck Institute fuer Kohlenforschung      #
                #                Kaiser Wilhelm Platz 1                 #
                #                 D-45470 Muelheim/Ruhr                 #
                #                      Germany                          #
                #                                                       #
                #                  All rights reserved                  #
                #                        -***-                          #
                #########################################################


                         Program Version 6.0.0  -   RELEASE  -


 With contributions from (in alphabetic order):
   Daniel Aravena         : Magnetic Suceptibility
   Michael Atanasov       : Ab Initio Ligand Field Theory (pilot matlab implementation)
   Alexander A. Auer      : GIAO ZORA, VPT2 properties, NMR spectrum
   Ute Becker             : All parallelization in ORCA, NUMFREQ, NUMCALC
   Giovanni Bistoni       : ED, misc. LED, open-shell LED, HFLD
   Martin Brehm           : Molecular dynamics
   Dmytro Bykov           : pre 5.0 version of the SCF Hessian
   Marcos Casanova-Páez   : Triplet and SCS-CIS(D). UHF-(DLPNO)-IP/EA/STEOM-CCSD. UHF-CVS-IP/STEOM-CCSD
   Vijay G. Chilkuri      : MRCI spin determinant printing, contributions to CSF-ICE
   Pauline Colinet        : FMM embedding
   Dipayan Datta          : RHF DLPNO-CCSD density
   Achintya Kumar Dutta   : EOM-CC, STEOM-CC
   Nicolas Foglia         : Exact transition moments, OPA infrastructure, MCD improvements
   Dmitry Ganyushin       : Spin-Orbit,Spin-Spin,Magnetic field MRCI
   Miquel Garcia          : C-PCM and meta-GGA Hessian, CCSD/C-PCM, Gaussian charge scheme
   Tiago L. C. Gouveia    : GS-ROHF, GS-ROCIS
   Yang Guo               : DLPNO-NEVPT2, F12-NEVPT2, CIM, IAO-localization
   Andreas Hansen         : Spin unrestricted coupled pair/coupled cluster methods
   Ingolf Harden          : AUTO-CI MPn and infrastructure 
   Benjamin Helmich-Paris : MC-RPA, TRAH-(SCF,CASSCF), AVAS, COSX integrals, SCF dyn. polar.
   Lee Huntington         : MR-EOM, pCC
   Robert Izsak           : Overlap fitted RIJCOSX, COSX-SCS-MP3, EOM
   Riya Kayal             : Wick's Theorem for AUTO-CI, AUTO-CI UHF-CCSDT
   Emily Kempfer          : AUTO-CI, RHF CISDT and CCSDT
   Christian Kollmar      : KDIIS, OOCD, Brueckner-CCSD(T), CCSD density, CASPT2, CASPT2-K, improved NEVPT2
   Axel Koslowski         : Symmetry handling
   Simone Kossmann        : Meta GGA functionals, TD-DFT gradient, OOMP2, (MP2 Hessian; deprecated post 5.0)
   Lucas Lang             : DCDCAS
   Marvin Lechner         : AUTO-CI (C++ implementation), FIC-MRCC
   Spencer Leger          : CASSCF response
   Dagmar Lenk            : GEPOL surface, SMD, ORCA-2-JSON
   Dimitrios Liakos       : Extrapolation schemes; Compound Job, initial MDCI parallelization
   Dimitrios Manganas     : Further ROCIS development; embedding schemes. LFT, Crystal Embedding
   Dimitrios Pantazis     : SARC Basis sets
   Anastasios Papadopoulos: AUTO-CI, single reference methods and gradients
   Taras Petrenko         : pre 6.0 DFT Hessian and TD-DFT gradient, (ASA, deprecated), ECA, 1-Electron XAS/XES, NRVS
   Peter Pinski           : DLPNO-MP2, DLPNO-MP2 Gradient
   Christoph Reimann      : Effective Core Potentials
   Marius Retegan         : Local ZFS, SOC
   Christoph Riplinger    : Optimizer, TS searches, QM/MM, DLPNO-CCSD(T), (RO)-DLPNO pert. Triples
   Michael Roemelt        : Original ROCIS implementation
   Masaaki Saitow         : Open-shell DLPNO-CCSD energy and density
   Barbara Sandhoefer     : DKH picture change effects
   Kantharuban Sivalingam : CASSCF convergence/infrastructure, NEVPT2 and variants, FIC-MRCI
   Bernardo de Souza      : ESD, SOC TD-DFT
   Georgi Stoychev        : AutoAux, RI-MP2 NMR, DLPNO-MP2 response, X2C
   Van Anh Tran           : RI-MP2 g-tensors
   Willem Van den Heuvel  : Paramagnetic NMR
   Zikuan Wang            : NOTCH, Electric field optimization 
   Frank Wennmohs         : Technical directorship and infrastructure
   Hang Xu                : AUTO-CI-Response properties 


 We gratefully acknowledge several colleagues who have allowed us to
 interface, adapt or use parts of their codes:
   Stefan Grimme, W. Hujo, H. Kruse, P. Pracht,  : VdW corrections, initial TS optimization,
                  C. Bannwarth, S. Ehlert,         DFT functionals, gCP, sTDA/sTD-DF
                  L. Wittmann, M. Mueller
   Ed Valeev, F. Pavosevic, A. Kumar             : LibInt (2-el integral package), F12 methods
   Garnet Chan, S. Sharma, J. Yang, R. Olivares  : DMRG
   Ulf Ekstrom                                   : XCFun DFT Library
   Mihaly Kallay                                 : mrcc  (arbitrary order and MRCC methods)
   Frank Weinhold                                : gennbo (NPA and NBO analysis)
   Simon Mueller                                 : openCOSMO-RS
   Christopher J. Cramer and Donald G. Truhlar   : smd solvation model
   Lars Goerigk                                  : TD-DFT with DH, B97 family of functionals
   V. Asgeirsson, H. Jonsson                     : NEB implementation
   FAccTs GmbH                                   : IRC, NEB, NEB-TS, DLPNO-Multilevel, CI-OPT
                                                   MM, QMMM, 2- and 3-layer-ONIOM, Crystal-QMMM,
                                                   LR-CPCM, SF, NACMEs, symmetry and pop. for TD-DFT,
                                                   nearIR, NL-DFT gradient (VV10), updates on ESD,
                                                   ML-optimized integration grids, MBIS, APM,
                                                   GOAT, DOCKER, SOLVATOR, interface openCOSMO-RS
   S Lehtola, MJT Oliveira, MAL Marques          : LibXC Library
   Liviu Ungur et al                             : ANISO software


 Your calculation uses the libint2 library for the computation of 2-el integrals
 For citations please refer to: http://libint.valeyev.net

 Your ORCA version has been built with support for libXC version: 6.2.2
 For citations please refer to: https://libxc.gitlab.io

 This ORCA versions uses:
   CBLAS   interface :  Fast vector & matrix operations
   LAPACKE interface :  Fast linear algebra routines
   SCALAPACK package :  Parallel linear algebra routines
   Shared memory     :  Shared parallel matrices
   BLAS/LAPACK       :  OpenBLAS 0.3.27  USE64BITINT DYNAMIC_ARCH NO_AFFINITY SkylakeX SINGLE_THREADED
        Core in use  :  SkylakeX
   Copyright (c) 2011-2014, The OpenBLAS Project


Your calculation utilizes the geometrical counterpoise correction gCP
Please cite in your paper:
H.Kruse, S. Grimme J.Chem.Phys., 136, (2012), 154101 
   

Your calculation utilizes the atom-pairwise dispersion correction
based on EEQ partial charges (D4)


Your calculation utilizes the SMD solvation module
Please cite in your paper:
A.V. Marenich, C.J. Cramer, D.G. Truhlar J. Phys. Chem. B, 113, (2009), 6378 

================================================================================

----- Orbital basis set information -----
Your calculation utilizes the basis: def2-mTZVPP
   Stefan Grimme, Andreas Hansen, Sebastian Ehlert, and Jan-Michael Mewes 
   J. Chem. Phys. 154, 064103 (2021). DOI: 10.1063/5.0040021

----- AuxJ basis set information -----
Your calculation utilizes the auxiliary basis: def2/J
   F. Weigend, Phys. Chem. Chem. Phys. 8, 1057 (2006).

================================================================================
                                        WARNINGS
                       Please study these warnings very carefully!
================================================================================

Using LibXC functional ID 497 : Re-regularized SCAN exchange by Furness et al
[ 1]  J. W. Furness, A. D. Kaplan, J. Ning, J. P. Perdew, and J. Sun.,  J. Phys. Chem. Lett. 11, 8208-8215 (2020)
[ 2]  J. W. Furness, A. D. Kaplan, J. Ning, J. P. Perdew, and J. Sun.,  J. Phys. Chem. Lett. 11, 9248-9248 (2020)
Using LibXC functional ID 498 : Re-regularized SCAN correlation by Furness et al
[ 1]  J. W. Furness, A. D. Kaplan, J. Ning, J. P. Perdew, and J. Sun.,  J. Phys. Chem. Lett. 11, 8208-8215 (2020)
[ 2]  J. W. Furness, A. D. Kaplan, J. Ning, J. P. Perdew, and J. Sun.,  J. Phys. Chem. Lett. 11, 9248-9248 (2020)
Using LibXC functional ID 497 : Re-regularized SCAN exchange by Furness et al
[ 1]  J. W. Furness, A. D. Kaplan, J. Ning, J. P. Perdew, and J. Sun.,  J. Phys. Chem. Lett. 11, 8208-8215 (2020)
[ 2]  J. W. Furness, A. D. Kaplan, J. Ning, J. P. Perdew, and J. Sun.,  J. Phys. Chem. Lett. 11, 9248-9248 (2020)
Using LibXC functional ID 498 : Re-regularized SCAN correlation by Furness et al
[ 1]  J. W. Furness, A. D. Kaplan, J. Ning, J. P. Perdew, and J. Sun.,  J. Phys. Chem. Lett. 11, 8208-8215 (2020)
[ 2]  J. W. Furness, A. D. Kaplan, J. Ning, J. P. Perdew, and J. Sun.,  J. Phys. Chem. Lett. 11, 9248-9248 (2020)

================================================================================
                                       INPUT FILE
================================================================================
NAME = sp_solv.inp
|  1> ! r2scan-3c def2/J RI DEFGRID2 scfconv6 printgap
|  2> %output
|  3>     printlevel normal
|  4> end
|  5> %cpcm
|  6>     smd true
|  7>     smdsolvent "water"
|  8> end
|  9> * xyz 0 1
| 10> C 2.6353728469 -0.8071135479 -0.1022486319
| 11> C 1.985723726 0.5714177531 -0.1491727103
| 12> C 0.55684748 0.5825757451 0.3961986599
| 13> C -0.4067563069 -0.2053032216 -0.4759301233
| 14> S -2.1151543592 -0.0109896784 0.1813983989
| 15> H 3.675558583 -0.7407313353 -0.4111345818
| 16> H 2.12942572 -1.50233902 -0.7668790261
| 17> H 2.6027890918 -1.2080450167 0.9083206115
| 18> H 1.9810115924 0.9384424044 -1.1777299599
| 19> H 2.5816425364 1.2647244392 0.4474941917
| 20> H 0.2053357991 1.6160900646 0.4569947356
| 21> H 0.5444657293 0.1699479332 1.4081039675
| 22> H -0.4044179013 0.1721008162 -1.4980456558
| 23> H -0.1779042522 -1.268997723 -0.4653140156
| 24> H -2.7042589699 -0.7786312938 -0.7264335959
| 25> *
| 26> 
| 27>                          ****END OF INPUT****
================================================================================

                       ****************************
                       * Single Point Calculation *
                       ****************************

---------------------------------
CARTESIAN COORDINATES (ANGSTROEM)
---------------------------------
  C      2.635373   -0.807114   -0.102249
  C      1.985724    0.571418   -0.149173
  C      0.556847    0.582576    0.396199
  C     -0.406756   -0.205303   -0.475930
  S     -2.115154   -0.010990    0.181398
  H      3.675559   -0.740731   -0.411135
  H      2.129426   -1.502339   -0.766879
  H      2.602789   -1.208045    0.908321
  H      1.981012    0.938442   -1.177730
  H      2.581643    1.264724    0.447494
  H      0.205336    1.616090    0.456995
  H      0.544466    0.169948    1.408104
  H     -0.404418    0.172101   -1.498046
  H     -0.177904   -1.268998   -0.465314
  H     -2.704259   -0.778631   -0.726434

----------------------------
CARTESIAN COORDINATES (A.U.)
----------------------------
  NO LB      ZA    FRAG     MASS         X           Y           Z
   0 C     6.0000    0    12.011    4.980133   -1.525224   -0.193222
   1 C     6.0000    0    12.011    3.752474    1.079823   -0.281896
   2 C     6.0000    0    12.011    1.052289    1.100909    0.748707
   3 C     6.0000    0    12.011   -0.768658   -0.387967   -0.899378
   4 S    16.0000    0    32.060   -3.997062   -0.020767    0.342793
   5 H     1.0000    0     1.008    6.945799   -1.399779   -0.776932
   6 H     1.0000    0     1.008    4.024031   -2.839009   -1.449191
   7 H     1.0000    0     1.008    4.918559   -2.282874    1.716477
   8 H     1.0000    0     1.008    3.743569    1.773399   -2.225587
   9 H     1.0000    0     1.008    4.878597    2.389983    0.845641
  10 H     1.0000    0     1.008    0.388028    3.053968    0.863595
  11 H     1.0000    0     1.008    1.028891    0.321155    2.660931
  12 H     1.0000    0     1.008   -0.764239    0.325223   -2.830896
  13 H     1.0000    0     1.008   -0.336190   -2.398058   -0.879316
  14 H     1.0000    0     1.008   -5.110309   -1.471400   -1.372761

--------------------------------
INTERNAL COORDINATES (ANGSTROEM)
--------------------------------
 C      0   0   0     0.000000000000     0.00000000     0.00000000
 C      1   0   0     1.524662060017     0.00000000     0.00000000
 C      2   1   0     1.529457995043   113.18457809     0.00000000
 C      3   2   1     1.519833589174   112.57710929   293.02930490
 S      4   3   2     1.840777673776   109.19535743   184.83709299
 H      1   2   3     1.087107857474   110.10534658   185.35822278
 H      1   2   3     1.086763319757   111.17486030    65.57768535
 H      1   2   3     1.087684669137   110.43294345   304.99651289
 H      2   1   3     1.092089426086   109.55364886   237.83713518
 H      2   1   3     1.091698118310   108.95304752   120.27530023
 H      3   2   1     1.093347370803   109.09172783   172.46758810
 H      3   2   1     1.092871159128   109.75451991    54.84752887
 H      4   3   2     1.089568463965   110.93961718   303.11916181
 H      4   3   2     1.088086373865   111.58173716    66.57365552
 H      5   4   3     1.326829613336    96.12309636   180.53872243

---------------------------
INTERNAL COORDINATES (A.U.)
---------------------------
 C      0   0   0     0.000000000000     0.00000000     0.00000000
 C      1   0   0     2.881193740213     0.00000000     0.00000000
 C      2   1   0     2.890256743968   113.18457809     0.00000000
 C      3   2   1     2.872069252674   112.57710929   293.02930490
 S      4   3   2     3.478565676873   109.19535743   184.83709299
 H      1   2   3     2.054336128659   110.10534658   185.35822278
 H      1   2   3     2.053685046732   111.17486030    65.57768535
 H      1   2   3     2.055426144734   110.43294345   304.99651289
 H      2   1   3     2.063749929054   109.55364886   237.83713518
 H      2   1   3     2.063010464523   108.95304752   120.27530023
 H      3   2   1     2.066127100060   109.09172783   172.46758810
 H      3   2   1     2.065227190412   109.75451991    54.84752887
 H      4   3   2     2.058986001050   110.93961718   303.11916181
 H      4   3   2     2.056185256657   111.58173716    66.57365552
 H      5   4   3     2.507344595581    96.12309636   180.53872243

---------------------
BASIS SET INFORMATION
---------------------
There are 3 groups of distinct atoms

 Group   1 Type C   : 11s6p1d contracted to 5s3p1d pattern {62111/411/1}
 Group   2 Type S   : 14s9p2d contracted to 5s4p2d pattern {73211/6111/11}
 Group   3 Type H   : 4s1p contracted to 2s1p pattern {31/1}

Atom   0C    basis set group =>   1
Atom   1C    basis set group =>   1
Atom   2C    basis set group =>   1
Atom   3C    basis set group =>   1
Atom   4S    basis set group =>   2
Atom   5H    basis set group =>   3
Atom   6H    basis set group =>   3
Atom   7H    basis set group =>   3
Atom   8H    basis set group =>   3
Atom   9H    basis set group =>   3
Atom  10H    basis set group =>   3
Atom  11H    basis set group =>   3
Atom  12H    basis set group =>   3
Atom  13H    basis set group =>   3
Atom  14H    basis set group =>   3
---------------------------------
AUXILIARY/J BASIS SET INFORMATION
---------------------------------
There are 3 groups of distinct atoms

 Group   1 Type C   : 12s5p4d2f1g contracted to 6s4p3d1f1g pattern {711111/2111/211/2/1}
 Group   2 Type S   : 14s5p5d2f1g contracted to 8s4p3d1f1g pattern {71111111/2111/311/2/1}
 Group   3 Type H   : 5s2p1d contracted to 3s1p1d pattern {311/2/1}

Atom   0C    basis set group =>   1
Atom   1C    basis set group =>   1
Atom   2C    basis set group =>   1
Atom   3C    basis set group =>   1
Atom   4S    basis set group =>   2
Atom   5H    basis set group =>   3
Atom   6H    basis set group =>   3
Atom   7H    basis set group =>   3
Atom   8H    basis set group =>   3
Atom   9H    basis set group =>   3
Atom  10H    basis set group =>   3
Atom  11H    basis set group =>   3
Atom  12H    basis set group =>   3
Atom  13H    basis set group =>   3
Atom  14H    basis set group =>   3

Checking for AutoStart:
The File: sp_solv.gbw exists
Trying to determine its content:
     ... Fine, the file contains calculation information
     ... Fine, the calculation information was read
     ... Fine, the file contains a basis set
     ... Fine, the basis set was read
     ... Fine, the file contains a geometry
     ... Fine, the geometry was read
     ... Fine, the file contains a set of orbitals
     ... Fine, the orbitals can be read
     => possible old guess file was deleted
     => GBW file was renamed to GES file
     => GES file is set as startup file
     => Guess is set to MORead
     ... now leaving AutoStart

------------------------------------------------------------------------------
                             ORCA STARTUP CALCULATIONS
                           -- RI-GTO INTEGRALS CHOSEN --
------------------------------------------------------------------------------
------------------------------------------------------------------------------
                   ___                                                        
                  /   \      - P O W E R E D   B Y -                         
                 /     \                                                     
                 |  |  |   _    _      __       _____    __    __             
                 |  |  |  | |  | |    /  \     |  _  \  |  |  /  |          
                  \  \/   | |  | |   /    \    | | | |  |  | /  /          
                 / \  \   | |__| |  /  /\  \   | |_| |  |  |/  /          
                |  |  |   |  __  | /  /__\  \  |    /   |      \           
                |  |  |   | |  | | |   __   |  |    \   |  |\   \          
                \     /   | |  | | |  |  |  |  | |\  \  |  | \   \       
                 \___/    |_|  |_| |__|  |__|  |_| \__\ |__|  \__/        
                                                                              
                      - O R C A' S   B I G   F R I E N D -                    
                                      &                                       
                       - I N T E G R A L  F E E D E R -                       
                                                                              
 v1 FN, 2020, v2 2021, v3 2022-2024                                           
------------------------------------------------------------------------------


----------------------
SHARK INTEGRAL PACKAGE
----------------------

Number of atoms                             ...     15
Number of basis functions                   ...    153
Number of shells                            ...     77
Maximum angular momentum                    ...      2
Integral batch strategy                     ... SHARK/LIBINT Hybrid
RI-J (if used) integral strategy            ... SPLIT-RIJ (Revised 2003 algorithm where possible)
Printlevel                                  ...      1
Contraction scheme used                     ... SEGMENTED contraction
Prescreening option                         ... SCHWARTZ
   Thresh                                   ... 1.000e-10
   Tcut                                     ... 1.000e-11
   Tpresel                                  ... 1.000e-11 
Coulomb Range Separation                    ... NOT USED
Exchange Range Separation                   ... NOT USED
Multipole approximations                    ... NOT USED
Finite Nucleus Model                        ... NOT USED
CABS basis                                  ... NOT available
Auxiliary Coulomb fitting basis             ... AVAILABLE
   # of basis functions in Aux-J            ...    357
   # of shells in Aux-J                     ...    127
   Maximum angular momentum in Aux-J        ...      4
Auxiliary J/K fitting basis                 ... NOT available
Auxiliary Correlation fitting basis         ... NOT available
Auxiliary 'external' fitting basis          ... NOT available

Checking pre-screening integrals            ... done (  0.0 sec) Dimension = 77
Check shell pair data                       ... done (  0.0 sec)
Shell pair information
Shell pair cut-off parameter TPreSel        ...   1.0e-11
Total number of shell pairs                 ...      3003
Shell pairs after pre-screening             ...      2793
Total number of primitive shell pairs       ...     11036
Primitive shell pairs kept                  ...      7605
          la=0 lb=0:    954 shell pairs
          la=1 lb=0:   1086 shell pairs
          la=1 lb=1:    327 shell pairs
          la=2 lb=0:    257 shell pairs
          la=2 lb=1:    148 shell pairs
          la=2 lb=2:     21 shell pairs

Calculating one electron integrals          ... done (  0.0 sec)
Calculating RI/J V-Matrix + Cholesky decomp.... done (  0.0 sec)
Calculating Nuclear repulsion               ... done (  0.0 sec) ENN=    226.834698382314 Eh

Diagonalization of the overlap matrix:
Smallest eigenvalue                        ... 3.255e-04
Time for diagonalization                   ...    0.002 sec
Threshold for overlap eigenvalues          ... 1.000e-07
Number of eigenvalues below threshold      ... 0
Time for construction of square roots      ...    0.013 sec
Total time needed                          ...    0.025 sec

-------------------
DFT GRID GENERATION
-------------------

General Integration Accuracy     IntAcc      ... 4.388
Radial Grid Type                 RadialGrid  ... OptM3 with GC (2021)
Angular Grid (max. ang.)         AngularGrid ... 4 (Lebedev-302)
Angular grid pruning method      GridPruning ... 4 (adaptive)
Weight generation scheme         WeightScheme... mBecke (2022)
Basis function cutoff            BFCut       ... 1.0000e-10
Integration weight cutoff        WCut        ... 1.0000e-14
Partially contracted basis set               ... off
Rotationally invariant grid construction     ... off
Angular grids for H and He will be reduced by one unit

Total number of grid points                  ...    63544
Total number of batches                      ...     1002
Average number of points per batch           ...       63
Average number of grid points per atom       ...     4236
Initializing property integral containers    ... done (  0.0 sec)

SHARK setup successfully completed in   0.7 seconds

Maximum memory used throughout the entire STARTUP-calculation: 27.5 MB
-------------------------------------------------------------------------------
                                 ORCA GUESS
                   Start orbitals & Density for SCF / CASSCF
-------------------------------------------------------------------------------

------------
SCF SETTINGS
------------
Hamiltonian:
 Density Functional     Method          .... DFT(GTOs)
  Functional kind                       .... Exchange
  Functional name                       .... Re-regularized SCAN exchange by Furness et al
  Functional family                     .... MGGA
  Functional refs                              
    [ 0] J. W. Furness, A. D. Kaplan, J. Ning, J. P. Perdew, and J. Sun.,  J. Phys. Chem. Lett. 11, 8208-8215 (2020), doi: 10.1021/acs.jpclett.0c02405
    [ 1] J. W. Furness, A. D. Kaplan, J. Ning, J. P. Perdew, and J. Sun.,  J. Phys. Chem. Lett. 11, 9248-9248 (2020), doi: 10.1021/acs.jpclett.0c03077
  Functional external parameters        .... 6
    Parameter  0 _c1        =  6.670000e-01 : c1 parameter        
    Parameter  1 _c2        =  8.000000e-01 : c2 parameter        
    Parameter  2 _d         =  1.240000e+00 : d parameter         
    Parameter  3 _k1        =  6.500000e-02 : k1 parameter        
    Parameter  4 _eta       =  1.000000e-03 : eta parameter       
    Parameter  5 _dp2       =  3.610000e-01 : dp2 parameter       
  Functional kind                       .... Correlation
  Functional name                       .... Re-regularized SCAN correlation by Furness et al
  Functional family                     .... MGGA
  Functional refs                              
    [ 0] J. W. Furness, A. D. Kaplan, J. Ning, J. P. Perdew, and J. Sun.,  J. Phys. Chem. Lett. 11, 8208-8215 (2020), doi: 10.1021/acs.jpclett.0c02405
    [ 1] J. W. Furness, A. D. Kaplan, J. Ning, J. P. Perdew, and J. Sun.,  J. Phys. Chem. Lett. 11, 9248-9248 (2020), doi: 10.1021/acs.jpclett.0c03077
  Functional external parameters        .... 1
    Parameter  0 _eta       =  1.000000e-03 : Regularization parameter
 Gradients option       PostSCFGGA      .... off
 RI-approximation to the Coulomb term is turned on
   Number of AuxJ basis functions       .... 357


General Settings:
 Integral files         IntName         .... sp_solv
 Hartree-Fock type      HFTyp           .... RHF
 Total Charge           Charge          ....    0
 Multiplicity           Mult            ....    1
 Number of Electrons    NEL             ....   50
 Basis Dimension        Dim             ....  153
 Nuclear Repulsion      ENuc            ....    226.8346983823 Eh

Convergence Acceleration:
 AO-DIIS                CNVDIIS         .... on
   Start iteration      DIISMaxIt       ....    12
   Startup error        DIISStart       ....  0.200000
   # of expansion vecs  DIISMaxEq       ....     5
   Bias factor          DIISBfac        ....   1.050
   Max. coefficient     DIISMaxC        ....  10.000
 MO-DIIS                CNVKDIIS        .... off
 Trust-Rad. Augm. Hess. CNVTRAH         .... auto
   Auto Start mean grad. ratio tolernc. ....  1.125000
   Auto Start start iteration           ....     1
   Auto Start num. interpolation iter.  ....    10
   Max. Number of Micro iterations      ....    24
   Max. Number of Macro iterations      .... Maxiter - #DIIS iter
   Number of Davidson start vectors     ....     2
   Converg. threshold    (grad. norm)   ....   3.330e-04
   Grad. Scal. Fac. for Micro threshold ....   0.100
   Minimum threshold for Micro iter.    ....   1.000e-02
   NR start threshold (gradient norm)   ....   1.000e-04
   Initial trust radius                 ....   0.400
   Minimum AH scaling param. (alpha)    ....   1.000
   Maximum AH scaling param. (alpha)    .... 1000.000
   Quad. conv. algorithm                .... NR
   White noise on init. David. guess    .... on
   Maximum white noise                  ....   0.010
   Pseudo random numbers                .... off
   Inactive MOs                         .... canonical
   Orbital update algorithm             .... Taylor
   Preconditioner                       .... Diag
   Full preconditioner red. dimension   ....   250
   COSX micro iterations for RIJONX calc.... off
 SOSCF                  CNVSOSCF        .... on
   Start iteration      SOSCFMaxIt      ....   150
   Startup grad/error   SOSCFStart      ....  0.003300
   Hessian update       SOSCFHessUp     .... L-BFGS
 Level Shifting         CNVShift        .... on
   Level shift para.    LevelShift      ....    0.2500
   Turn off err/grad.   ShiftErr        ....    0.0010
 Zerner damping         CNVZerner       .... off
 Static damping         CNVDamp         .... on
   Fraction old density DampFac         ....    0.7000
   Max. Damping (<1)    DampMax         ....    0.9800
   Min. Damping (>=0)   DampMin         ....    0.0000
   Turn off err/grad.   DampErr         ....    0.1000

SCF Procedure:
 Maximum # iterations   MaxIter         ....   125
 SCF integral mode      SCFMode         .... Direct
   Integral package                     .... SHARK and LIBINT hybrid scheme
 Reset frequency        DirectResetFreq ....    20
 Integral Threshold     Thresh          ....  1.000e-10 Eh
 Primitive CutOff       TCut            ....  1.000e-11 Eh

Convergence Tolerance:
 Convergence Check Mode ConvCheckMode   .... Total+1el-Energy
 Convergence forced     ConvForced      .... 0
 Energy Change          TolE            ....  1.000e-06 Eh
 1-El. energy change                    ....  1.000e-03 Eh
 Orbital Gradient       TolG            ....  3.330e-04
 Orbital Rotation angle TolX            ....  3.330e-04
 DIIS Error             TolErr          ....  1.000e-06

---------------------
INITIAL GUESS: MOREAD
---------------------
Guess MOs are being read from file: sp_solv.ges
Input Geometry matches current geometry (good)
Atom 0: N(Shells)= 9 and 6 - projection required
Input basis set needs projection
NBasis(read)= 94
NBasis(calc)= 153
Basis set overlap was calculated
Using GuessMode=FMatrix for the initial guess
C*T matrix was formed
Effective Fockian was calculated
Effective Fockian was diagonalized
Initial density was built
                      ------------------
                      INITIAL GUESS DONE (   0.0 sec)
                      ------------------
             **** ENERGY FILE WAS UPDATED (sp_solv.en.tmp) ****
Finished Guess after   0.3 sec
Maximum memory used throughout the entire GUESS-calculation: 10.5 MB

-------------------------------------------------------------------------------------------
                                      ORCA LEAN-SCF
                              memory conserving SCF solver
-------------------------------------------------------------------------------------------

--------------------
CPCM SOLVATION MODEL
--------------------
CPCM parameters:
  Epsilon                                         ...      78.3550
  Refrac                                          ...       1.3328
  Rsolv                                           ...       1.3000
  Surface type                                    ... GAUSSIAN VDW
  Discretization scheme                           ... Constant charge density
    Threshold for H atoms                         ...       5.0000 (charges/Ang^2)
    Threshold for non-H atoms                     ...       5.0000 (charges/Ang^2)
  Epsilon function type                           ...         CPCM
Solvent:                                          ... WATER
SMD-CDS solvent descriptors:
  Soln                                            ...       1.3328
  Soln25                                          ...       1.3323
  Sola                                            ...       0.0000
  Solb                                            ...       0.0000
  Solg                                            ...       0.0000
  Solc                                            ...       0.0000
  Solh                                            ...       0.0000
Radii:
  Scheme                                          ... Element-dependent radii
  Radius for C  used is    3.4960 Bohr (=   1.8500 Ang.)
  Radius for S  used is    4.7054 Bohr (=   2.4900 Ang.)
  Radius for H  used is    2.2677 Bohr (=   1.2000 Ang.)
Calculating surface                               ...        done! (  0.0s)
Cavity surface points                             ...         1284
Cavity Volume                                     ...     876.9327
Cavity Surface-area                               ...     536.0859
Calculating surface distance matrix               ...        done! (  0.0s)
Performing Cholesky decomposition & store         ...        done! (  0.1s)
Overall time for CPCM initialization              ...                 0.1s

----------------------------------------D-I-I-S--------------------------------------------
Iteration    Energy (Eh)           Delta-E    RMSDP     MaxDP     DIISErr   Damp  Time(sec)
-------------------------------------------------------------------------------------------
               ***  Starting incremental Fock matrix formation  ***
    1    -556.4541091972996583     0.00e+00  3.60e-03  9.50e-02  4.67e-01  0.700   1.7
    2    -556.4873676421556183    -3.33e-02  2.98e-03  7.52e-02  3.27e-01  0.700   1.6
    3    -556.5110470805853993    -2.37e-02  2.21e-03  5.52e-02  2.29e-01  0.700   1.5
                               ***Turning on AO-DIIS***
    4    -556.5277161801280954    -1.67e-02  1.64e-03  4.00e-02  1.60e-01  0.700   1.5
    5    -556.5394303384264276    -1.17e-02  1.18e-03  2.83e-02  1.12e-01  0.700   1.5
    6    -556.5476554044194017    -8.23e-03  8.40e-04  2.00e-02  7.85e-02  0.700   1.4
    7    -556.5534265459532435    -5.77e-03  1.98e-03  4.68e-02  5.49e-02  0.000   1.4
                              *** Initializing SOSCF ***
---------------------------------------S-O-S-C-F--------------------------------------
Iteration    Energy (Eh)           Delta-E    RMSDP     MaxDP     MaxGrad    Time(sec)
--------------------------------------------------------------------------------------
    8    -556.5669379233029304    -1.35e-02  2.19e-05  4.27e-04  1.85e-04     1.5
               *** Restarting incremental Fock matrix formation ***
    9    -556.5669381809826746    -2.58e-07  1.42e-05  4.67e-04  5.44e-05     1.6
                  *** Gradient check signals convergence ***

               *****************************************************
               *                     SUCCESS                       *
               *           SCF CONVERGED AFTER   9 CYCLES          *
               *****************************************************


SMD CDS free energy correction energy :                 2.48345     Kcal/mol
Total Energy after SMD CDS correction =              -556.562980548 Eh
             **** ENERGY FILE WAS UPDATED (sp_solv.en.tmp) ****

----------------
TOTAL SCF ENERGY
----------------

Total Energy       :       -556.56298054815954 Eh          -15144.84865 eV

Components:
Nuclear Repulsion  :        226.83469838231420 Eh            6172.48595 eV
Electronic Energy  :       -783.39494480245401 Eh          -21317.26020 eV
One Electron Energy:      -1211.84591232469393 Eh          -32976.00374 eV
Two Electron Energy:        428.45096752223992 Eh           11658.74355 eV
CPCM Dielectric    :         -0.00669176084287 Eh              -0.18209 eV
SMD CDS (Gcds)     :          0.00395763282312 Eh               0.10769 eV

Virial components:
Potential Energy   :      -1111.35115228773702 Eh          -30241.40230 eV
Kinetic Energy     :        554.78817173957759 Eh           15096.55365 eV
Virial Ratio       :          2.00319907470813

DFT components:
N(Alpha)           :       24.999999773611 electrons
N(Beta)            :       24.999999773611 electrons
N(Total)           :       49.999999547222 electrons
E(X)               :      -49.400914423032 Eh       
E(C)               :       -1.651803362537 Eh       
E(XC)              :      -51.052717785569 Eh       

CPCM Solvation Model Properties:
Surface-charge          :         -0.03135791007050
Corrected charge        :         -0.00000000000000
Outlying charge corr.   :          0.00007666310315 Eh               0.00209 eV
Free-energy (cav+disp)  :          0.00395763282312 Eh               0.10769 eV

---------------
SCF CONVERGENCE
---------------

  Last Energy change         ...    2.5768e-07  Tolerance :   1.0000e-06
  Last MAX-Density change    ...    4.6685e-04  Tolerance :   1.0000e-05
  Last RMS-Density change    ...    1.4242e-05  Tolerance :   1.0000e-06
  Last DIIS Error            ...    1.8451e-04  Tolerance :   1.0000e-06
  Last Orbital Gradient      ...    5.4385e-05  Tolerance :   3.3300e-04
  Last Orbital Rotation      ...    1.4165e-04  Tolerance :   3.3300e-04


----------------
ORBITAL ENERGIES
----------------

  NO   OCC          E(Eh)            E(eV) 
   0   2.0000     -88.547965     -2409.5126 
   1   2.0000     -10.053667      -273.5742 
   2   2.0000     -10.024958      -272.7930 
   3   2.0000     -10.020255      -272.6650 
   4   2.0000     -10.008420      -272.3430 
   5   2.0000      -7.843172      -213.4236 
   6   2.0000      -5.789997      -157.5538 
   7   2.0000      -5.786619      -157.4619 
   8   2.0000      -5.780633      -157.2990 
   9   2.0000      -0.774802       -21.0834 
  10   2.0000      -0.721047       -19.6207 
  11   2.0000      -0.651034       -17.7155 
  12   2.0000      -0.583451       -15.8765 
  13   2.0000      -0.530703       -14.4412 
  14   2.0000      -0.434359       -11.8195 
  15   2.0000      -0.418858       -11.3977 
  16   2.0000      -0.402560       -10.9542 
  17   2.0000      -0.372605       -10.1391 
  18   2.0000      -0.350258        -9.5310 
  19   2.0000      -0.336515        -9.1570 
  20   2.0000      -0.307251        -8.3607 
  21   2.0000      -0.294166        -8.0047 
  22   2.0000      -0.289912        -7.8889 
  23   2.0000      -0.286913        -7.8073 
  24   2.0000      -0.209064        -5.6889 
  25   0.0000       0.012422         0.3380 
  26   0.0000       0.061416         1.6712 
  27   0.0000       0.107614         2.9283 
  28   0.0000       0.126005         3.4288 
  29   0.0000       0.127662         3.4739 
  30   0.0000       0.147608         4.0166 
  31   0.0000       0.150354         4.0913 
  32   0.0000       0.160181         4.3587 
  33   0.0000       0.170357         4.6357 
  34   0.0000       0.184208         5.0126 
  35   0.0000       0.193316         5.2604 
*Only the first 10 virtual orbitals were printed.

                    ********************************
                    * MULLIKEN POPULATION ANALYSIS *
                    ********************************

-----------------------
MULLIKEN ATOMIC CHARGES
-----------------------
   0 C :   -0.517846
   1 C :   -0.244770
   2 C :   -0.268658
   3 C :   -0.240748
   4 S :   -0.346327
   5 H :    0.156042
   6 H :    0.159805
   7 H :    0.154975
   8 H :    0.145623
   9 H :    0.154384
  10 H :    0.157581
  11 H :    0.156963
  12 H :    0.177559
  13 H :    0.182328
  14 H :    0.173088
Sum of atomic charges:   -0.0000000

--------------------------------
MULLIKEN REDUCED ORBITAL CHARGES
--------------------------------
  0 C s       :     3.335435  s :     3.335435
      pz      :     1.092847  p :     3.155400
      px      :     1.095513
      py      :     0.967040
      dz2     :     0.005180  d :     0.027011
      dxz     :     0.002582
      dyz     :     0.007006
      dx2y2   :     0.007021
      dxy     :     0.005221

  1 C s       :     3.215408  s :     3.215408
      pz      :     1.075757  p :     2.992363
      px      :     0.948055
      py      :     0.968551
      dz2     :     0.007192  d :     0.036998
      dxz     :     0.005633
      dyz     :     0.006842
      dx2y2   :     0.008345
      dxy     :     0.008987

  2 C s       :     3.218750  s :     3.218750
      pz      :     1.008436  p :     3.012898
      px      :     0.939121
      py      :     1.065341
      dz2     :     0.008808  d :     0.037010
      dxz     :     0.007385
      dyz     :     0.004648
      dx2y2   :     0.008678
      dxy     :     0.007491

  3 C s       :     3.250890  s :     3.250890
      pz      :     1.024762  p :     2.954292
      px      :     0.850618
      py      :     1.078912
      dz2     :     0.009126  d :     0.035565
      dxz     :     0.006525
      dyz     :     0.004356
      dx2y2   :     0.009531
      dxy     :     0.006027

  4 S s       :     5.861737  s :     5.861737
      pz      :     3.570409  p :    10.390548
      px      :     3.092191
      py      :     3.727947
      dz2     :     0.011266  d :     0.094043
      dxz     :     0.028155
      dyz     :     0.018907
      dx2y2   :     0.015546
      dxy     :     0.020169

  5 H s       :     0.825581  s :     0.825581
      pz      :     0.004307  p :     0.018377
      px      :     0.010426
      py      :     0.003644

  6 H s       :     0.821771  s :     0.821771
      pz      :     0.006379  p :     0.018423
      px      :     0.005349
      py      :     0.006694

  7 H s       :     0.826768  s :     0.826768
      pz      :     0.009962  p :     0.018257
      px      :     0.003642
      py      :     0.004653

  8 H s       :     0.836460  s :     0.836460
      pz      :     0.010238  p :     0.017917
      px      :     0.003373
      py      :     0.004307

  9 H s       :     0.827689  s :     0.827689
      pz      :     0.005674  p :     0.017927
      px      :     0.005716
      py      :     0.006537

 10 H s       :     0.824544  s :     0.824544
      pz      :     0.003490  p :     0.017875
      px      :     0.004140
      py      :     0.010245

 11 H s       :     0.825204  s :     0.825204
      pz      :     0.010069  p :     0.017833
      px      :     0.003285
      py      :     0.004479

 12 H s       :     0.804216  s :     0.804216
      pz      :     0.010617  p :     0.018225
      px      :     0.003346
      py      :     0.004262

 13 H s       :     0.799251  s :     0.799251
      pz      :     0.003320  p :     0.018421
      px      :     0.003893
      py      :     0.011208

 14 H s       :     0.806140  s :     0.806140
      pz      :     0.008265  p :     0.020772
      px      :     0.004548
      py      :     0.007959


------------------------
MULLIKEN OVERLAP CHARGES
------------------------
B(  0-C ,  1-C ) :   0.4565 B(  0-C ,  2-C ) :  -0.2189 B(  0-C ,  5-H ) :   0.7915 
B(  0-C ,  6-H ) :   0.8552 B(  0-C ,  7-H ) :   0.8429 B(  0-C ,  8-H ) :  -0.0756 
B(  0-C ,  9-H ) :  -0.0561 B(  1-C ,  2-C ) :   0.4944 B(  1-C ,  3-C ) :  -0.1540 
B(  1-C ,  5-H ) :  -0.0671 B(  1-C ,  6-H ) :  -0.0910 B(  1-C ,  7-H ) :  -0.0962 
B(  1-C ,  8-H ) :   0.8613 B(  1-C ,  9-H ) :   0.8350 B(  1-C , 10-H ) :  -0.0717 
B(  1-C , 11-H ) :  -0.0675 B(  2-C ,  3-C ) :   0.3572 B(  2-C ,  4-S ) :  -0.0632 
B(  2-C ,  8-H ) :  -0.0914 B(  2-C ,  9-H ) :  -0.1006 B(  2-C , 10-H ) :   0.8228 
B(  2-C , 11-H ) :   0.8469 B(  2-C , 12-H ) :  -0.0939 B(  2-C , 13-H ) :  -0.0853 
B(  3-C ,  4-S ) :   0.4052 B(  3-C , 10-H ) :  -0.0639 B(  3-C , 11-H ) :  -0.0789 
B(  3-C , 12-H ) :   0.8651 B(  3-C , 13-H ) :   0.8705 B(  3-C , 14-H ) :  -0.0623 
B(  4-S , 12-H ) :  -0.0928 B(  4-S , 13-H ) :  -0.0900 B(  4-S , 14-H ) :   0.6660 
B( 12-H , 13-H ) :  -0.0577 


                     *******************************
                     * LOEWDIN POPULATION ANALYSIS *
                     *******************************

----------------------
LOEWDIN ATOMIC CHARGES
----------------------
   0 C :   -0.434042
   1 C :   -0.315566
   2 C :   -0.322246
   3 C :   -0.347535
   4 S :   -0.147756
   5 H :    0.153698
   6 H :    0.152395
   7 H :    0.153653
   8 H :    0.156191
   9 H :    0.157176
  10 H :    0.161167
  11 H :    0.160686
  12 H :    0.166390
  13 H :    0.166977
  14 H :    0.138813

-------------------------------
LOEWDIN REDUCED ORBITAL CHARGES
-------------------------------
  0 C s       :     2.973430  s :     2.973430
      pz      :     1.159716  p :     3.397678
      px      :     1.141619
      py      :     1.096344
      dz2     :     0.013010  d :     0.062933
      dxz     :     0.006161
      dyz     :     0.015794
      dx2y2   :     0.016124
      dxy     :     0.011846

  1 C s       :     2.938722  s :     2.938722
      pz      :     1.138805  p :     3.297117
      px      :     1.065483
      py      :     1.092829
      dz2     :     0.016753  d :     0.079727
      dxz     :     0.011952
      dyz     :     0.014420
      dx2y2   :     0.017655
      dxy     :     0.018948

  2 C s       :     2.941307  s :     2.941307
      pz      :     1.112159  p :     3.300773
      px      :     1.065457
      py      :     1.123157
      dz2     :     0.019341  d :     0.080166
      dxz     :     0.015597
      dyz     :     0.010538
      dx2y2   :     0.019365
      dxy     :     0.015324

  3 C s       :     2.975374  s :     2.975374
      pz      :     1.125730  p :     3.292752
      px      :     1.020271
      py      :     1.146750
      dz2     :     0.020744  d :     0.079409
      dxz     :     0.014750
      dyz     :     0.009283
      dx2y2   :     0.021548
      dxy     :     0.013084

  4 S s       :     5.505286  s :     5.505286
      pz      :     3.582998  p :    10.413013
      px      :     3.116305
      py      :     3.713711
      dz2     :     0.026535  d :     0.229457
      dxz     :     0.070749
      dyz     :     0.031529
      dx2y2   :     0.046501
      dxy     :     0.054142

  5 H s       :     0.802404  s :     0.802404
      pz      :     0.009759  p :     0.043898
      px      :     0.025818
      py      :     0.008321

  6 H s       :     0.803286  s :     0.803286
      pz      :     0.015440  p :     0.044318
      px      :     0.012748
      py      :     0.016130

  7 H s       :     0.802621  s :     0.802621
      pz      :     0.024870  p :     0.043727
      px      :     0.008090
      py      :     0.010767

  8 H s       :     0.800451  s :     0.800451
      pz      :     0.025296  p :     0.043358
      px      :     0.007844
      py      :     0.010217

  9 H s       :     0.799416  s :     0.799416
      pz      :     0.013833  p :     0.043408
      px      :     0.013805
      py      :     0.015770

 10 H s       :     0.795319  s :     0.795319
      pz      :     0.008011  p :     0.043514
      px      :     0.009930
      py      :     0.025573

 11 H s       :     0.795669  s :     0.795669
      pz      :     0.025055  p :     0.043645
      px      :     0.007847
      py      :     0.010744

 12 H s       :     0.788802  s :     0.788802
      pz      :     0.026724  p :     0.044808
      px      :     0.007480
      py      :     0.010604

 13 H s       :     0.787624  s :     0.787624
      pz      :     0.007922  p :     0.045398
      px      :     0.008976
      py      :     0.028500

 14 H s       :     0.803991  s :     0.803991
      pz      :     0.023985  p :     0.057197
      px      :     0.011404
      py      :     0.021808


---------------------------------
LOEWDIN BOND ORDERS (THRESH 0.050000)
---------------------------------
B(  0-C ,  1-C ) :   1.1424 B(  0-C ,  2-C ) :   0.0642 B(  0-C ,  5-H ) :   0.9294 
B(  0-C ,  6-H ) :   0.9275 B(  0-C ,  7-H ) :   0.9293 B(  1-C ,  2-C ) :   1.1060 
B(  1-C ,  3-C ) :   0.0685 B(  1-C ,  8-H ) :   0.8942 B(  1-C ,  9-H ) :   0.8926 
B(  2-C ,  3-C ) :   1.1001 B(  2-C ,  4-S ) :   0.1387 B(  2-C , 10-H ) :   0.8881 
B(  2-C , 11-H ) :   0.8895 B(  3-C ,  4-S ) :   1.3556 B(  3-C , 12-H ) :   0.8797 
B(  3-C , 13-H ) :   0.8784 B(  4-S , 12-H ) :   0.0627 B(  4-S , 13-H ) :   0.0622 
B(  4-S , 14-H ) :   0.9959 

------------------------------------------
LOEWDIN REDUCED ORBITAL POPULATIONS PER MO
-------------------------------------------
THRESHOLD FOR PRINTING IS 0.1%%
                      0         1         2         3         4         5   
                 -88.54796 -10.05367 -10.02496 -10.02025 -10.00842  -7.84317
                   2.00000   2.00000   2.00000   2.00000   2.00000   2.00000
                  --------  --------  --------  --------  --------  --------
 0 C  s               0.0       0.0       0.0       0.0      99.7       0.0
 1 C  s               0.0       0.0       0.0      99.7       0.0       0.0
 2 C  s               0.0       0.0      99.7       0.0       0.0       0.0
 3 C  s               0.0      99.7       0.0       0.0       0.0       0.0
 3 C  px              0.0       0.0       0.0       0.0       0.0       0.1
 4 S  s             100.0       0.0       0.0       0.0       0.0      99.7

                      6         7         8         9        10        11   
                  -5.79000  -5.78662  -5.78063  -0.77480  -0.72105  -0.65103
                   2.00000   2.00000   2.00000   2.00000   2.00000   2.00000
                  --------  --------  --------  --------  --------  --------
 0 C  s               0.0       0.0       0.0       4.8      14.4      17.4
 0 C  px              0.0       0.0       0.0       0.7       0.2       0.2
 0 C  py              0.0       0.0       0.0       1.1       1.3       0.1
 1 C  s               0.0       0.0       0.0      12.8      15.9       0.4
 1 C  pz              0.0       0.0       0.0       0.2       0.0       0.3
 1 C  px              0.0       0.0       0.0       1.7       0.4       6.7
 1 C  py              0.0       0.0       0.0       0.4       0.9       3.0
 1 C  dx2y2           0.0       0.0       0.0       0.0       0.0       0.2
 2 C  s               0.0       0.0       0.0      21.2       0.8      13.0
 2 C  pz              0.0       0.0       0.0       1.3       0.0       0.0
 2 C  px              0.0       0.0       0.0       0.0       7.7       0.4
 2 C  py              0.0       0.0       0.0       0.7       0.2       0.1
 3 C  s               0.0       0.0       0.0      21.3       8.3       1.1
 3 C  pz              0.0       0.0       0.0       1.2       0.1       0.2
 3 C  px              0.0       0.0       0.0       0.0       6.2       7.9
 3 C  py              0.0       0.0       0.0       0.6       0.0       0.8
 3 C  dxz             0.0       0.0       0.0       0.0       0.0       0.1
 4 S  s               0.0       0.0       0.0       9.6      21.0      19.5
 4 S  pz              2.0      63.4      34.5       0.3       0.6       0.4
 4 S  px             91.0       7.2       1.7       1.8       0.5       1.1
 4 S  py              6.9      29.4      63.7       0.0       0.2       0.3
 4 S  dxz             0.0       0.0       0.0       0.2       0.1       0.0
 4 S  dx2y2           0.0       0.0       0.0       0.5       0.2       0.2
 5 H  s               0.0       0.0       0.0       0.6       2.3       4.3
 5 H  px              0.0       0.0       0.0       0.0       0.2       0.3
 6 H  s               0.0       0.0       0.0       0.6       2.1       3.8
 6 H  pz              0.0       0.0       0.0       0.0       0.1       0.1
 6 H  py              0.0       0.0       0.0       0.0       0.1       0.1
 7 H  s               0.0       0.0       0.0       0.6       2.2       3.7
 7 H  pz              0.0       0.0       0.0       0.0       0.2       0.3
 8 H  s               0.0       0.0       0.0       1.6       2.4       0.1
 8 H  pz              0.0       0.0       0.0       0.1       0.2       0.0
 9 H  s               0.0       0.0       0.0       1.6       2.6       0.1
 9 H  py              0.0       0.0       0.0       0.1       0.1       0.0
10 H  s               0.0       0.0       0.0       2.7       0.1       3.1
10 H  py              0.0       0.0       0.0       0.2       0.0       0.3
11 H  s               0.0       0.0       0.0       2.6       0.1       2.7
11 H  pz              0.0       0.0       0.0       0.2       0.0       0.2
12 H  s               0.0       0.0       0.0       2.7       1.3       0.2
12 H  pz              0.0       0.0       0.0       0.2       0.1       0.0
13 H  s               0.0       0.0       0.0       2.8       1.3       0.1
13 H  py              0.0       0.0       0.0       0.2       0.1       0.0
14 H  s               0.0       0.0       0.0       1.6       4.3       5.8
14 H  pz              0.0       0.0       0.0       0.1       0.2       0.2
14 H  px              0.0       0.0       0.0       0.0       0.1       0.1
14 H  py              0.0       0.0       0.0       0.0       0.1       0.2

                     12        13        14        15        16        17   
                  -0.58345  -0.53070  -0.43436  -0.41886  -0.40256  -0.37260
                   2.00000   2.00000   2.00000   2.00000   2.00000   2.00000
                  --------  --------  --------  --------  --------  --------
 0 C  s               7.5       3.4       0.4       0.0       0.0       0.1
 0 C  pz              0.0       0.5       2.8       3.6      12.1      10.8
 0 C  px              0.3       0.4       4.3       7.3       0.7      12.4
 0 C  py              3.7       5.1       0.5       3.6       0.7       0.5
 1 C  s               8.1       8.1       0.2       0.2       0.2       0.5
 1 C  pz              0.2       3.3       6.0       6.0      14.7       1.7
 1 C  px              0.4       1.5       0.1      14.9       0.2       0.9
 1 C  py              5.3       2.3       2.2       3.1       1.2       6.2
 2 C  s               1.0       8.6       0.0       0.5       0.1       0.5
 2 C  pz              0.8       8.3       5.2       6.4       0.1       3.3
 2 C  px              5.1       1.9       5.2       2.2       3.5       0.5
 2 C  py              3.2       0.4      15.4       0.2       4.8       3.2
 2 C  dxz             0.1       0.0       0.0       0.1       0.0       0.0
 2 C  dx2y2           0.0       0.1       0.0       0.0       0.0       0.2
 3 C  s              11.5       4.8       0.0       0.5       0.1       0.0
 3 C  pz              1.3       7.7       2.2       3.0      20.2       0.0
 3 C  px              1.6       0.1       0.9       7.2       0.1       0.5
 3 C  py              0.9       2.1      22.0       0.1       0.2      12.7
 3 C  dx2y2           0.1       0.0       0.0       0.0       0.0       0.2
 4 S  s              11.3       1.4       0.1       0.0       1.3       1.9
 4 S  pz              0.1       0.6       0.0       1.5       7.5       2.4
 4 S  px              4.1       0.6       0.6      13.3       3.2       2.3
 4 S  py              0.1       0.1       3.4       1.4       1.1       8.0
 4 S  dz2             0.1       0.0       0.0       0.2       0.3       0.0
 4 S  dxz             0.6       0.5       0.1       0.3       0.1       0.2
 4 S  dyz             0.0       0.0       0.1       0.1       0.1       0.5
 4 S  dx2y2           0.4       0.0       0.0       0.3       0.1       0.0
 4 S  dxy             0.2       0.2       0.5       0.2       0.1       0.0
 5 H  s               2.6       1.3       2.7       1.5       0.0       8.5
 5 H  px              0.2       0.1       0.1       0.0       0.0       0.2
 6 H  s               3.3       1.6       0.3       4.5       1.1       0.4
 6 H  px              0.1       0.0       0.1       0.0       0.0       0.1
 7 H  s               2.6       2.7       0.1       0.3       5.1       3.5
 7 H  pz              0.2       0.2       0.0       0.0       0.1       0.0
 8 H  s               2.5       6.1       1.9       0.6       4.7       0.9
 8 H  pz              0.2       0.4       0.0       0.0       0.1       0.0
 8 H  py              0.0       0.0       0.0       0.0       0.1       0.0
 9 H  s               3.6       3.5       0.1       8.2       1.7       0.3
 9 H  pz              0.1       0.1       0.0       0.1       0.0       0.0
 9 H  px              0.1       0.0       0.0       0.0       0.1       0.0
 9 H  py              0.1       0.1       0.0       0.2       0.0       0.0
10 H  s               0.7       4.7       6.2       0.0       1.2       3.1
10 H  py              0.0       0.3       0.2       0.0       0.0       0.1
11 H  s               0.3       7.0       3.7       0.7       0.0       1.2
11 H  pz              0.0       0.3       0.2       0.0       0.0       0.0
11 H  py              0.0       0.1       0.0       0.0       0.0       0.1
12 H  s               4.0       4.5       2.8       0.3       8.6       0.5
12 H  pz              0.3       0.2       0.1       0.0       0.2       0.0
13 H  s               4.9       3.1       7.8       0.0       0.0       6.5
13 H  pz              0.0       0.0       0.0       0.0       0.1       0.0
13 H  py              0.4       0.2       0.2       0.0       0.0       0.1
14 H  s               4.5       0.3       0.7       6.1       3.3       4.1
14 H  pz              0.2       0.0       0.0       0.1       0.0       0.0
14 H  py              0.1       0.0       0.0       0.1       0.0       0.0

                     18        19        20        21        22        23   
                  -0.35026  -0.33651  -0.30725  -0.29417  -0.28991  -0.28691
                   2.00000   2.00000   2.00000   2.00000   2.00000   2.00000
                  --------  --------  --------  --------  --------  --------
 0 C  s               0.1       0.1       0.1       0.6       0.1       0.0
 0 C  pz              0.2      14.1       6.1       2.6       1.5       3.7
 0 C  px              9.7       5.3       4.8       1.6       6.3       2.6
 0 C  py             17.5       3.1       0.7      10.1       3.6       3.1
 0 C  dz2             0.1       0.1       0.1       0.1       0.0       0.0
 0 C  dyz             0.1       0.1       0.1       0.1       0.2       0.1
 0 C  dx2y2           0.0       0.0       0.1       0.0       0.2       0.1
 0 C  dxy             0.1       0.0       0.0       0.0       0.2       0.0
 1 C  s               0.1       0.0       0.0       0.3       0.2       0.2
 1 C  pz              0.1       0.2       5.9       9.3       3.2       5.7
 1 C  px              2.4       1.5       2.1       0.3      14.6       5.5
 1 C  py              6.0       6.2       1.1       9.7       5.3       1.8
 1 C  dz2             0.0       0.0       0.0       0.5       0.0       0.0
 1 C  dxz             0.0       0.1       0.0       0.0       0.3       0.0
 1 C  dyz             0.0       0.0       0.1       0.2       0.2       0.1
 1 C  dx2y2           0.0       0.1       0.1       0.0       0.1       0.2
 1 C  dxy             0.0       0.0       0.0       0.2       0.4       0.1
 2 C  s               0.5       0.1       0.0       0.1       0.1       0.7
 2 C  pz              0.4      17.0       0.0       7.7       0.1       4.8
 2 C  px              2.5       0.3       7.0       0.2      11.5       5.0
 2 C  py              9.9       0.0       1.0      10.2       1.9       4.9
 2 C  dz2             0.1       0.1       0.0       0.6       0.0       0.0
 2 C  dxz             0.1       0.0       0.0       0.0       0.3       0.0
 2 C  dyz             0.0       0.1       0.0       0.2       0.0       0.0
 2 C  dx2y2           0.0       0.0       0.0       0.0       0.0       0.5
 2 C  dxy             0.0       0.1       0.0       0.1       0.1       0.2
 3 C  s               0.1       0.1       0.2       0.0       0.3       0.6
 3 C  pz              0.1       7.8       4.1       1.2       0.9       5.4
 3 C  px              7.1       6.9       2.9       0.1       6.8       2.7
 3 C  py              6.0       1.2       0.2       1.5       3.3       3.8
 3 C  dz2             0.1       0.2       0.0       0.2       0.1       0.1
 3 C  dxz             0.2       0.0       0.0       0.0       0.1       0.0
 3 C  dx2y2           0.0       0.0       0.0       0.1       0.0       0.5
 4 S  s               0.2       0.6       6.9       0.0       0.1       1.8
 4 S  pz              1.0       3.9      18.5       0.1       0.0      11.8
 4 S  px              7.1       1.5       3.5       0.0       5.6       8.9
 4 S  py              0.2       0.3      10.6       0.5       0.1       2.9
 4 S  dz2             0.0       0.3       0.0       0.1       0.1       0.0
 4 S  dxz             0.3       0.2       0.2       0.0       0.4       0.0
 4 S  dyz             0.0       0.0       0.4       0.0       0.0       0.0
 4 S  dx2y2           0.1       0.0       0.1       0.0       0.1       0.1
 4 S  dxy             0.5       0.0       0.2       0.0       0.5       0.0
 5 H  s               4.8       0.5       4.6       0.0       3.9       2.4
 5 H  pz              0.0       0.2       0.0       0.0       0.1       0.0
 5 H  py              0.1       0.0       0.0       0.1       0.0       0.1
 6 H  s              10.3       2.6       0.6       0.0       7.7       1.0
 6 H  pz              0.2       0.0       0.0       0.0       0.0       0.0
 6 H  px              0.0       0.0       0.1       0.0       0.0       0.1
 6 H  py              0.0       0.2       0.0       0.1       0.0       0.0
 7 H  s               0.9       8.2       3.6       4.5       0.2       1.7
 7 H  pz              0.1       0.1       0.0       0.0       0.0       0.0
 8 H  s               0.3       0.6       2.9      12.3       1.0       2.2
 8 H  pz              0.0       0.0       0.0       0.1       0.0       0.0
 8 H  px              0.0       0.0       0.0       0.0       0.1       0.1
 9 H  s               0.6       0.2       1.0       0.0      15.3       1.0
 9 H  px              0.1       0.0       0.1       0.0       0.0       0.1
 9 H  py              0.0       0.0       0.0       0.1       0.1       0.0
10 H  s               2.3       0.0       1.9       7.5       0.2       5.9
10 H  pz              0.0       0.1       0.0       0.1       0.0       0.1
10 H  px              0.1       0.0       0.0       0.0       0.1       0.0
11 H  s               0.6       7.9       0.0      11.7       0.0       0.9
11 H  px              0.0       0.0       0.1       0.0       0.1       0.1
12 H  s               0.5       4.8       2.1       2.3       0.0       1.6
13 H  s               2.2       1.8       0.3       1.8       0.2       3.6
13 H  px              0.1       0.0       0.0       0.0       0.1       0.0
14 H  s               3.1       0.0       4.5       0.0       1.4       0.6
14 H  px              0.0       0.0       0.1       0.0       0.0       0.1

                     24        25        26        27        28        29   
                  -0.20906   0.01242   0.06142   0.10761   0.12600   0.12766
                   2.00000   0.00000   0.00000   0.00000   0.00000   0.00000
                  --------  --------  --------  --------  --------  --------
 0 C  s               0.0       0.7       0.9       9.0       0.6      25.7
 0 C  pz              0.0       0.1       0.0       0.6       1.0       1.0
 0 C  px              0.1       0.2       0.1       1.7       2.0       7.1
 0 C  py              0.0       0.0       0.5       1.6       4.7       7.5
 0 C  dz2             0.0       0.0       0.0       0.0       0.4       0.0
 0 C  dxz             0.0       0.0       0.0       0.1       0.0       0.1
 0 C  dx2y2           0.0       0.0       0.0       0.6       0.2       0.2
 0 C  dxy             0.0       0.0       0.1       0.2       0.0       0.0
 1 C  s               0.0       0.4       3.6       7.3       6.8       0.9
 1 C  pz              0.1       0.1       0.3       0.3       0.3       0.1
 1 C  px              0.0       0.0       1.4       0.9       2.7       4.3
 1 C  py              0.0       0.1       0.1       3.4       1.4      10.5
 1 C  dz2             0.0       0.0       0.0       0.0       0.5       0.4
 1 C  dyz             0.0       0.0       0.0       0.0       0.1       0.0
 1 C  dx2y2           0.0       0.0       0.0       0.1       0.2       0.7
 1 C  dxy             0.0       0.1       0.0       0.0       0.0       0.2
 2 C  s               0.0       1.3       0.2       9.3       4.1       3.6
 2 C  pz              0.0       0.4       0.2       1.0       9.2       0.1
 2 C  px              0.0       1.3       4.4       0.7       3.0       0.2
 2 C  py              0.0       0.2       0.0       0.3       4.9       1.3
 2 C  dz2             0.0       0.0       0.2       0.0       0.0       0.0
 2 C  dxz             0.0       0.1       0.1       0.1       0.2       0.0
 2 C  dyz             0.0       0.0       0.0       0.3       0.9       0.1
 2 C  dx2y2           0.0       0.1       0.8       0.1       0.0       0.3
 2 C  dxy             0.0       0.1       0.0       0.1       0.2       0.1
 3 C  s               0.0       6.3       1.0      11.3      10.9       0.1
 3 C  pz              1.0       2.3       0.8       3.4       0.8       4.1
 3 C  px              0.0      11.4      11.5       1.9       7.5       1.6
 3 C  py              2.0       0.4       0.3       2.1       3.2       4.1
 3 C  dz2             0.3       0.0       0.3       0.0       0.0       0.1
 3 C  dxz             0.1       0.3       0.1       0.0       0.7       0.0
 3 C  dyz             0.1       0.0       0.0       0.6       0.0       0.5
 3 C  dx2y2           0.0       0.1       0.7       0.4       0.4       0.0
 3 C  dxy             0.3       0.1       0.0       0.1       0.1       0.0
 4 S  s               0.0       0.3      14.2       2.5       0.1       0.1
 4 S  pz             30.5       0.2      10.2       0.0       0.6       0.2
 4 S  px              1.6      29.9       3.5       3.1       0.5       0.0
 4 S  py             56.6       1.3       5.0       0.1       0.4       0.0
 4 S  dz2             0.0       3.6       0.2       0.4       0.5       0.1
 4 S  dxz             0.1      11.5       0.7       0.2       0.6       1.0
 4 S  dyz             0.0       3.0       9.2       4.6       2.9       0.7
 4 S  dx2y2           0.0      10.7       1.1       0.1       5.3       0.2
 4 S  dxy             0.2       2.8       1.4       0.0       0.6       0.7
 5 H  s               0.0       0.1       0.0       3.7       0.0       1.1
 5 H  pz              0.0       0.0       0.0       0.1       0.0       0.0
 5 H  px              0.0       0.0       0.0       0.7       0.0       1.2
 5 H  py              0.0       0.0       0.1       0.3       0.0       0.0
 6 H  s               0.0       0.3       0.2       0.7       0.1       5.4
 6 H  pz              0.0       0.0       0.0       0.1       0.2       1.3
 6 H  px              0.0       0.1       0.1       0.5       0.0       0.4
 6 H  py              0.0       0.0       0.0       0.0       0.2       1.5
 7 H  s               0.0       0.0       0.1       1.2       0.9       2.0
 7 H  pz              0.0       0.0       0.1       0.5       0.2       1.3
 7 H  px              0.0       0.0       0.0       0.2       0.0       0.1
 7 H  py              0.0       0.0       0.0       0.0       0.1       0.2
 8 H  s               0.0       0.1       0.1       1.4       2.1       0.6
 8 H  pz              0.0       0.0       0.2       0.7       1.1       0.1
 8 H  px              0.0       0.0       0.0       0.0       0.1       0.1
 8 H  py              0.0       0.0       0.0       0.2       0.0       0.4
 9 H  s               0.0       0.6       0.4       0.6       2.4       0.1
 9 H  pz              0.0       0.0       0.0       0.3       1.3       0.1
 9 H  px              0.0       0.0       0.2       0.1       0.0       0.2
 9 H  py              0.0       0.0       0.1       0.3       0.4       0.5
10 H  s               0.1       0.3       0.5       2.4       0.1       0.5
10 H  pz              0.0       0.0       0.0       0.3       0.6       0.0
10 H  px              0.0       0.1       0.1       0.0       0.1       0.0
10 H  py              0.0       0.1       0.0       1.1       0.4       0.7
11 H  s               0.1       0.2       0.2       2.2       0.6       0.6
11 H  pz              0.0       0.1       0.0       0.5       0.3       0.2
11 H  px              0.0       0.0       0.1       0.1       0.1       0.0
11 H  py              0.0       0.0       0.0       0.8       0.3       0.2
12 H  s               3.0       0.3       0.1       2.7       0.4       1.5
12 H  pz              0.0       0.2       0.0       0.3       0.3       0.1
12 H  px              0.0       0.4       0.4       0.1       0.4       0.0
12 H  py              0.0       0.0       0.0       1.2       0.1       0.2
13 H  s               2.9       0.3       0.1       5.1       4.1       0.6
13 H  pz              0.0       0.1       0.0       0.6       0.0       0.4
13 H  px              0.0       0.5       0.4       0.1       0.0       0.0
13 H  py              0.0       0.1       0.0       1.2       2.2       0.3
14 H  s               0.0       5.5      18.7       0.7       1.7       0.0
14 H  pz              0.2       0.6       1.7       0.0       0.0       0.0
14 H  px              0.0       0.1       1.3       0.2       0.3       0.0
14 H  py              0.4       0.3       1.3       0.1       0.0       0.0

                     30        31        32        33        34        35   
                   0.14761   0.15035   0.16018   0.17036   0.18421   0.19332
                   0.00000   0.00000   0.00000   0.00000   0.00000   0.00000
                  --------  --------  --------  --------  --------  --------
 0 C  s               0.6       0.3       1.4       0.2       1.4       0.4
 0 C  pz              8.7       0.4       0.3       2.6       8.1       1.1
 0 C  px              0.2       4.7       5.8       2.7       0.1       8.4
 0 C  py              2.8       2.6      18.3       4.9       0.8       0.3
 0 C  dz2             0.0       0.0       0.7       0.4       1.5       0.4
 0 C  dxz             0.0       0.3       0.1       0.7       0.1       0.1
 0 C  dyz             0.4       0.4       0.2       0.0       0.7       0.0
 0 C  dx2y2           0.0       0.2       0.1       0.0       0.4       1.4
 0 C  dxy             0.0       0.1       1.5       0.0       0.0       0.0
 1 C  s               2.1       4.2       4.7       0.2       0.2       1.5
 1 C  pz             10.4       2.2       0.1       5.8       1.7       0.5
 1 C  px              0.1      14.1       0.7       5.1       2.5       3.1
 1 C  py              1.0       6.9       4.4       0.8       2.7       2.4
 1 C  dz2             0.2       0.7       0.0       0.2       0.0       0.5
 1 C  dxz             0.0       0.3       0.1       1.1       0.8       0.2
 1 C  dyz             0.4       0.0       0.1       0.9       0.2       0.0
 1 C  dx2y2           0.0       0.1       0.1       0.0       0.1       0.8
 1 C  dxy             0.0       0.5       1.1       0.0       0.4       0.0
 2 C  s               4.3       5.5       1.8       0.2       0.6       0.4
 2 C  pz             11.1       1.9       0.8       6.8       0.6       0.0
 2 C  px              0.5       0.5       1.5       5.0       3.9       2.9
 2 C  py              0.9       4.5       6.5       0.2      10.6      12.7
 2 C  dz2             1.0       0.0       0.8       0.5       0.0       0.0
 2 C  dxz             0.0       0.0       0.4       0.7       0.3       1.0
 2 C  dyz             0.0       0.0       0.3       0.1       0.0       0.1
 2 C  dx2y2           0.0       0.9       0.2       0.0       0.1       0.2
 2 C  dxy             0.0       0.4       0.4       0.0       0.6       0.0
 3 C  s               3.0       1.1       0.1       4.9       0.2       1.8
 3 C  pz             18.3       2.1       0.8       8.8       3.1       0.3
 3 C  px              0.2       2.8       0.7       1.7       3.5       6.9
 3 C  py              1.9       2.1       6.9       3.3       2.4       1.1
 3 C  dz2             1.0       0.0       0.7       0.0       0.4       0.6
 3 C  dxz             0.0       0.9       0.1       0.1       0.1       0.1
 3 C  dyz             0.0       0.3       0.3       0.2       0.6       0.0
 3 C  dx2y2           0.0       0.5       0.3       0.1       0.0       0.0
 3 C  dxy             0.0       0.4       0.0       1.0       0.0       0.1
 4 S  s               0.1       0.1       0.2       0.6       0.3       1.2
 4 S  pz              1.1       0.7       0.4       1.0       1.0       0.2
 4 S  px              0.0       0.0       0.1       0.5       1.0       3.8
 4 S  py              0.1       0.4       2.5       0.2       0.5       0.2
 4 S  dz2             0.0       4.0       0.0       1.3       1.1       0.3
 4 S  dxz             0.6       3.7       0.4       0.1       4.3       6.4
 4 S  dyz             0.1       5.6       0.8       0.4       1.6       0.3
 4 S  dx2y2           0.2       0.5       0.1       0.0       0.1      11.1
 4 S  dxy             0.8       0.8       1.4       8.4       3.0       0.0
 5 H  s               0.1       2.4       0.8       2.4       1.6      10.7
 5 H  pz              0.0       0.4       0.0       0.2       0.8       0.1
 5 H  px              0.0       0.3       0.5       0.2       0.3       2.7
 5 H  py              0.0       0.3       0.9       0.0       0.0       0.0
 6 H  s               0.6       1.9       3.7       0.6       1.7       0.1
 6 H  pz              0.1       0.2       0.4       0.3       0.2       0.2
 6 H  px              0.0       0.0       0.5       0.0       0.4       0.4
 6 H  py              0.0       0.2       0.0       0.3       0.3       0.1
 7 H  s               1.3       1.0       0.3       0.6      14.0       0.7
 7 H  pz              0.6       0.1       0.0       0.3       2.6       0.0
 7 H  px              0.0       0.5       0.0       0.4       0.0       0.3
 7 H  py              0.4       0.1       0.8       0.1       0.5       0.0
 8 H  s               4.4       1.0       0.2       1.7       0.5       2.6
 8 H  pz              1.8       0.0       0.1       0.3       0.0       0.8
 8 H  px              0.0       0.6       0.0       0.6       0.5       0.2
 8 H  py              0.4       0.1       0.4       0.5       0.1       0.1
 9 H  s               0.1       0.8       1.7       6.6       2.1       0.1
 9 H  pz              0.0       0.1       0.0       0.6       0.3       0.2
 9 H  px              0.0       1.1       0.0       0.3       0.3       0.0
 9 H  py              0.0       0.9       0.0       0.5       0.2       0.2
10 H  s               0.1       2.5       7.1       1.3       1.3       1.2
10 H  pz              0.0       0.1       0.3       0.0       0.0       0.0
10 H  px              0.0       0.0       0.7       0.0       0.8       0.0
10 H  py              0.1       0.1       1.7       0.4       0.5       0.7
11 H  s               5.1       0.1       1.9       2.3       0.4       0.2
11 H  pz              2.6       0.6       0.3       0.8       0.0       0.1
11 H  px              0.0       0.1       0.1       0.5       0.1       0.8
11 H  py              0.2       0.2       0.0       0.0       0.0       0.1
12 H  s               5.8       1.6       3.5       1.4       4.1       2.1
12 H  pz              3.1       0.2       0.7       0.8       0.5       0.4
12 H  px              0.0       0.4       0.0       0.0       0.0       0.0
12 H  py              0.0       0.7       0.0       0.1       0.2       0.0
13 H  s               0.7       2.5       3.3       1.5       1.6       0.1
13 H  pz              0.0       0.2       0.3       0.1       0.6       0.0
13 H  px              0.0       0.2       0.1       0.5       0.0       0.2
13 H  py              0.0       0.5       0.9       0.0       0.6       0.0
14 H  s               0.2       0.2       0.5       1.8       0.7       0.9
14 H  pz              0.0       0.2       0.0       0.0       0.3       0.0
14 H  px              0.0       0.1       0.0       0.3       0.1       0.1
14 H  py              0.0       0.1       0.1       0.1       0.0       0.4

                     36        37        38        39        40        41   
                   0.21300   0.21481   0.21935   0.22969   0.23355   0.25490
                   0.00000   0.00000   0.00000   0.00000   0.00000   0.00000
                  --------  --------  --------  --------  --------  --------
 0 C  s               0.2       1.1       0.3       1.8       0.8       1.6
 0 C  pz             18.0       3.1      12.8       4.0       5.4      16.8
 0 C  px             13.8       3.9       8.4       0.5       0.8       2.4
 0 C  py              4.3       2.3       7.1      12.9       7.3       4.9
 0 C  dz2             0.2       0.0       0.0       0.8       0.1       0.7
 0 C  dxz             0.6       0.2       0.6       0.0       0.3       0.0
 0 C  dyz             0.2       1.8       0.0       0.0       0.2       0.0
 0 C  dx2y2           0.0       0.4       0.3       0.4       0.1       0.0
 0 C  dxy             0.0       0.2       0.2       0.2       1.1       0.0
 1 C  s               1.1       0.0       0.1       3.3       0.7       0.3
 1 C  pz              1.6       4.1       5.3       2.0       1.9       1.1
 1 C  px              2.6       2.8       0.6       1.8       3.4       6.1
 1 C  py              2.1       1.2       4.1      16.9       6.8       3.4
 1 C  dz2             0.1       0.0       0.8       0.1       0.1       0.5
 1 C  dxz             0.0       0.0       0.1       0.0       0.1       0.3
 1 C  dyz             0.0       1.2       0.1       0.0       0.0       0.1
 1 C  dx2y2           0.1       0.1       0.2       0.0       0.6       0.6
 1 C  dxy             0.1       0.6       0.1       0.1       0.1       0.2
 2 C  s               2.2       1.7       0.8       0.8       0.0       1.6
 2 C  pz              8.2       6.6       3.2       5.3       2.1      16.4
 2 C  px              0.3       0.4       2.7       0.6       7.6       0.8
 2 C  py              2.9       0.2       3.2       2.8       0.4       0.4
 2 C  dz2             0.2       0.2       0.1       0.5       0.1       0.2
 2 C  dxz             0.0       0.0       0.0       0.1       0.1       0.2
 2 C  dyz             0.1       1.0       0.0       0.2       0.3       0.6
 2 C  dx2y2           0.0       0.2       0.4       0.0       0.2       0.1
 2 C  dxy             0.0       0.0       0.1       0.3       0.0       0.0
 3 C  s               0.0       2.1       0.0       1.1       1.6       0.1
 3 C  pz              4.0       0.1       1.7       1.3       3.8       5.8
 3 C  px              0.2       0.3       4.6       0.9       0.9       0.0
[...]
13 H  s               0.7       1.9       1.9       0.4       0.1       3.4
13 H  pz              0.0       0.1       0.3       0.0       0.1       0.1
13 H  px              0.0       0.2       0.5       0.1       0.0       0.3
13 H  py              5.9      10.7       5.8       0.9       0.0       7.9
14 H  px              0.1       0.1       0.0       0.0       0.0       0.0

                    144       145       146       147       148       149   
                   3.59456   3.61009   3.62554   3.66275  18.85938  21.89426
                   0.00000   0.00000   0.00000   0.00000   0.00000   0.00000
                  --------  --------  --------  --------  --------  --------
 0 C  s               0.5       0.1       0.3       0.0       0.0      18.0
 0 C  pz              3.6       0.1       1.6       0.8       0.0       0.0
 0 C  px              0.2       4.2       0.4       0.1       0.0       0.0
 0 C  py              2.3       2.8       0.5       0.0       0.0       0.0
 0 C  dz2             8.7       2.6       0.5       1.1       0.0       0.0
 0 C  dxz             0.1       4.5       0.2       0.4       0.0       0.0
 0 C  dyz             2.8       2.0       2.6       1.4       0.0       0.0
 0 C  dx2y2           0.3       3.4       0.4       0.0       0.0       0.0
 0 C  dxy             0.2       2.0       1.6       0.2       0.0       0.0
 1 C  s               0.1       1.9       0.2       0.2       0.1       3.5
 1 C  pz              0.1       0.6       1.4       6.3       0.0       0.0
 1 C  px              1.6       2.8       0.1       0.1       0.0       0.0
 1 C  py              1.1       1.9       1.1       0.1       0.0       0.0
 1 C  dz2             1.1       3.5       0.2       7.2       0.0       0.0
 1 C  dxz             0.3       4.6       1.2       0.4       0.0       0.0
 1 C  dyz             0.0       0.1       2.1       7.1       0.0       0.0
 1 C  dx2y2           1.1       1.9       0.6       0.1       0.0       0.0
 1 C  dxy             0.3       1.8       2.0       1.4       0.0       0.0
 2 C  s               1.9       0.6       0.3       0.5       0.1      13.4
 2 C  pz              5.8       0.9       0.2       2.8       0.0       0.0
 2 C  px              0.0       3.1       0.1       0.0       0.0       0.0
 2 C  py              0.3       0.5       5.0       1.5       0.0       0.0
 2 C  dz2             1.8       0.6       5.3       7.1       0.0       0.0
 2 C  dxz             0.5       0.9       0.0       0.0       0.0       0.0
 2 C  dyz             3.2       0.0       0.3       4.2       0.0       0.0
 2 C  dx2y2           3.2       4.7       2.4       0.0       0.0       0.0
 2 C  dxy             2.6       0.3       4.0       0.1       0.0       0.0
 3 C  s               0.6       0.0       0.2       0.0       0.3      64.6
 3 C  pz              1.0       0.0       0.3       0.3       0.0       0.0
 3 C  px              0.3       0.0       0.2       0.3       0.1       0.0
 3 C  py              2.6       0.1       3.1       0.1       0.0       0.0
 3 C  dz2             0.0       0.1       4.4       1.0       0.0       0.0
 3 C  dxz             0.8       0.0       0.2       0.1       0.0       0.0
 3 C  dyz             1.3       0.0       0.2       0.5       0.0       0.0
 3 C  dx2y2           2.1       0.3       2.8       0.0       0.0       0.0
 3 C  dxy             2.4       0.0       1.6       0.0       0.0       0.0
 4 S  s               0.0       0.0       0.0       0.0      99.1       0.0
 4 S  px              0.1       0.1       0.0       0.0       0.1       0.0
 5 H  s               1.2       3.8       0.3       0.0       0.0       0.0
 5 H  pz              0.0       1.0       0.0       0.0       0.0       0.0
 5 H  px              2.6       8.0       0.6       0.0       0.0       0.0
 6 H  s               0.0       4.3       1.0       0.6       0.0       0.0
 6 H  pz              0.0       5.1       0.6       0.7       0.0       0.0
 6 H  px              0.0       1.7       1.1       0.1       0.0       0.0
 6 H  py              0.3       4.4       0.8       1.0       0.0       0.0
 7 H  s               4.6       0.2       1.1       0.7       0.0       0.0
 7 H  pz             11.1       0.6       1.9       1.3       0.0       0.0
 7 H  px              0.0       0.1       0.1       0.0       0.0       0.0
 7 H  py              1.0       0.0       0.7       0.5       0.0       0.0
 8 H  s               0.3       1.1       0.6       5.2       0.0       0.0
 8 H  pz              0.8       3.5       0.8      10.7       0.0       0.0
 8 H  py              0.1       0.2       0.4       2.6       0.0       0.0
 9 H  s               0.0       1.7       2.1       3.0       0.0       0.0
 9 H  pz              0.0       2.4       1.2       1.4       0.0       0.0
 9 H  px              0.5       0.9       1.6       2.5       0.0       0.0
 9 H  py              0.1       2.2       2.7       2.7       0.0       0.0
10 H  s               0.5       0.9       4.5       1.2       0.0       0.0
10 H  pz              0.3       0.1       0.2       0.1       0.0       0.0
10 H  px              0.2       0.0       1.0       0.5       0.0       0.0
10 H  py              2.2       2.4      10.6       2.0       0.0       0.0
11 H  s               2.9       0.2       1.5       4.1       0.0       0.0
11 H  pz              6.9       0.4       3.1      10.0       0.0       0.0
11 H  px              0.0       0.1       0.0       0.0       0.0       0.0
11 H  py              1.7       0.6       0.1       1.0       0.0       0.0
12 H  s               0.1       0.0       1.4       0.4       0.0       0.0
12 H  pz              0.4       0.0       3.2       1.0       0.0       0.0
12 H  py              0.4       0.0       0.1       0.1       0.0       0.0
13 H  s               1.6       0.2       2.7       0.2       0.0       0.0
13 H  px              0.4       0.0       0.4       0.1       0.0       0.0
13 H  py              4.3       0.6       6.1       0.7       0.0       0.0

                    150       151       152   
                  21.94540  22.01384  22.01930
                   0.00000   0.00000   0.00000
                  --------  --------  --------
 0 C  s              71.3       5.6       4.8
 1 C  s               0.8      45.3      50.0
 2 C  s               2.7      38.7      44.9
 3 C  s              24.9      10.1       0.1


                      *****************************
                      * MAYER POPULATION ANALYSIS *
                      *****************************

  NA   - Mulliken gross atomic population
  ZA   - Total nuclear charge
  QA   - Mulliken gross atomic charge
  VA   - Mayer's total valence
  BVA  - Mayer's bonded valence
  FA   - Mayer's free valence

  ATOM       NA         ZA         QA         VA         BVA        FA
  0 C      6.5178     6.0000    -0.5178     3.7968     3.7968     0.0000
  1 C      6.2448     6.0000    -0.2448     3.6359     3.6359    -0.0000
  2 C      6.2687     6.0000    -0.2687     3.6259     3.6259     0.0000
  3 C      6.2407     6.0000    -0.2407     3.7900     3.7900    -0.0000
  4 S     16.3463    16.0000    -0.3463     1.9521     1.9521     0.0000
  5 H      0.8440     1.0000     0.1560     0.9590     0.9590     0.0000
  6 H      0.8402     1.0000     0.1598     0.9591     0.9591     0.0000
  7 H      0.8450     1.0000     0.1550     0.9606     0.9606     0.0000
  8 H      0.8544     1.0000     0.1456     0.9619     0.9619    -0.0000
  9 H      0.8456     1.0000     0.1544     0.9575     0.9575    -0.0000
 10 H      0.8424     1.0000     0.1576     0.9587     0.9587     0.0000
 11 H      0.8430     1.0000     0.1570     0.9614     0.9614    -0.0000
 12 H      0.8224     1.0000     0.1776     0.9480     0.9480     0.0000
 13 H      0.8177     1.0000     0.1823     0.9461     0.9461     0.0000
 14 H      0.8269     1.0000     0.1731     0.9595     0.9595     0.0000

  Mayer bond orders larger than 0.100000
B(  0-C ,  1-C ) :   0.8964 B(  0-C ,  5-H ) :   0.9666 B(  0-C ,  6-H ) :   0.9789 
B(  0-C ,  7-H ) :   0.9776 B(  1-C ,  2-C ) :   0.8967 B(  1-C ,  8-H ) :   0.9779 
B(  1-C ,  9-H ) :   0.9672 B(  2-C ,  3-C ) :   0.9252 B(  2-C , 10-H ) :   0.9622 
B(  2-C , 11-H ) :   0.9709 B(  3-C ,  4-S ) :   0.9695 B(  3-C , 12-H ) :   0.9568 
B(  3-C , 13-H ) :   0.9582 B(  4-S , 14-H ) :   0.9544 

-------
TIMINGS
-------

Total SCF time: 0 days 0 hours 0 min 14 sec 

Total time                  ....      14.241 sec
Sum of individual times     ....      13.843 sec  ( 97.2%)

SCF preparation             ....       0.303 sec  (  2.1%)
Fock matrix formation       ....      12.797 sec  ( 89.9%)
  Startup                   ....       0.060 sec  (  0.5% of F)
  Split-RI-J                ....       1.437 sec  ( 11.2% of F)
  XC integration            ....       8.604 sec  ( 67.2% of F)
    XC Preparation          ....       0.000 sec  (  0.0% of XC)
    Basis function eval.    ....       1.480 sec  ( 17.2% of XC)
    Density eval.           ....       2.639 sec  ( 30.7% of XC)
    XC-Functional eval.     ....       1.394 sec  ( 16.2% of XC)
    XC-Potential eval.      ....       2.443 sec  ( 28.4% of XC)
  CPCM terms                ....       2.244 sec  ( 17.5% of F)
Diagonalization             ....       0.000 sec  (  0.0%)
Density matrix formation    ....       0.190 sec  (  1.3%)
Total Energy calculation    ....       0.037 sec  (  0.3%)
Population analysis         ....       0.068 sec  (  0.5%)
Orbital Transformation      ....       0.051 sec  (  0.4%)
Orbital Orthonormalization  ....       0.000 sec  (  0.0%)
DIIS solution               ....       0.355 sec  (  2.5%)
  MO trafo                  ....       0.000 sec  (  0.0 % of DIIS)
  Orb grad                  ....       0.000 sec  (  0.0 % of DIIS)
  Energy W gradient         ....       0.000 sec  (  0.0 % of DIIS)
  DIIS error                ....       0.005 sec  (  1.3 % of DIIS)
  DIIS work                 ....       0.302 sec  ( 85.1 % of DIIS)
  Form Q                    ....       0.000 sec  (  0.0 % of DIIS)
  Form QpQm                 ....       0.000 sec  (  0.0 % of DIIS)
  Exp/Cayley                ....       0.000 sec  (  0.0 % of DIIS)
  Orb update                ....       0.000 sec  (  0.0 % of DIIS)
  Wake-sleep                ....       0.021 sec  (  6.0 % of DIIS)
SOSCF solution              ....       0.041 sec  (  0.3%)
  MO trafo                  ....       0.032 sec  ( 76.8 % of SOSCF)
  Orb grad                  ....       0.001 sec  (  1.3 % of SOSCF)
  Rot update                ....       0.000 sec  (  0.0 % of SOSCF)
  Step                      ....       0.009 sec  ( 21.7 % of SOSCF)
Finished LeanSCF after  14.3 sec

Maximum memory used throughout the entire LEANSCF-calculation: 21.3 MB


-------------------------------------------------------------------------------
                          DFT DISPERSION CORRECTION                            
                                                                               
                                DFTD4 V3.4.0                                   
-------------------------------------------------------------------------------
The R2SCAN3C composite method is recognized
Using three-body term ABC
Active option DFTDOPT                   ...         5   

-------------------------   ----------------
Dispersion correction           -0.003594783
-------------------------   ----------------

------------------   -----------------
gCP correction             0.010276855
------------------   -----------------

-------------------------   --------------------
FINAL SINGLE POINT ENERGY      -556.556298475671
-------------------------   --------------------


------------------------------------------------------------------------------
                              ORCA PROPERTY CALCULATIONS
------------------------------------------------------------------------------

GBWName                                 ... sp_solv.gbw
Number of atoms                         ...     15
Number of basis functions               ...    153
Max core memory                         ...   1024 MB

Electric properties:
Dipole moment                           ... YES
Quadrupole moment                       ...  NO
Static polarizability (Dipole/Dipole)   ...  NO
Static polarizability (Dipole/Quad.)    ...  NO
Static polarizability (Quad./Quad.)     ...  NO
Static polarizability (Velocity)        ...  NO

Atomic electric properties:
Dipole moment                           ...  NO
Quadrupole moment                       ...  NO
Static polarizability                   ...  NO

Choice of electric origin               ... Center of mass
Position of electric origin             ...     0.000252     0.000000    -0.000022

General magnetic properties:
Magnetizability                         ...  NO

EPR properties:
g-Tensor (aka g-matrix)                 ...  NO
Zero-Field splitting spin-orbit         ...  NO
Zero-field splitting spin-spin          ...  NO
Hyperfine couplings                     ...  NO (   0 nuclei)
Quadrupole couplings                    ...  NO (   0 nuclei)
Contact density                         ...  NO (   0 nuclei)

NMR properties:
Chemical shifts                         ...  NO (   0 nuclei)
Spin-rotation constants                 ...  NO (   0 nuclei)
Spin-spin couplings                     ...  NO (   0 nuclei,    0 pairs)

Choice of magnetic origin               ... GIAO
Position of magnetic origin             ...     0.000000     0.000000     0.000000

Properties with geometric perturbations:
SCF Hessian                             ...  NO
IR spectrum                             ...  NO
VCD spectrum                            ...  NO
X-ray spectroscopy properties:
SCF XES/XAS/RIXS spectra                ...  NO


-------------
DIPOLE MOMENT
-------------

Method             : SCF
Type of density    : Electron Density
Multiplicity       :   1
Irrep              :   0
Energy             :  -556.5629805481595440 Eh
Relativity type    : 
Basis              : AO
                                X                 Y                 Z
Electronic contribution:     -9.123033896       0.989212774       1.158726332
Nuclear contribution   :      9.848589633      -1.254436448      -1.716959581
                        -----------------------------------------
Total Dipole Moment    :      0.725555737      -0.265223675      -0.558233249
                        -----------------------------------------
Magnitude (a.u.)       :      0.953099725
Magnitude (Debye)      :      2.422586976



--------------------
Rotational spectrum 
--------------------
 
Rotational constants in cm-1:             0.403141             0.050106             0.047641 
Rotational constants in MHz :         12085.875493          1502.145510          1428.229712 

Dipole components along the rotational axes: 
x,y,z [a.u.] :    -0.754502    -0.400653    -0.422614 
x,y,z [Debye]:    -1.917792    -1.018380    -1.074199 

 

Dipole moment calculation done in   0.0 sec 

Maximum memory used throughout the entire PROP-calculation: 8.8 MB

--------------------------------
SUGGESTED CITATIONS FOR THIS RUN
--------------------------------

Below you find a list of papers that are relevant to this ORCA run
We neither can nor want to force you to cite these papers, but we appreciate if you do
You receive ORCA, which is the product of decades of hard work by many enthusiastic individuals, for free
The only thing we kindly ask in return is that you cite our papers,
We deeply appreciate it, if you show your appreciation for ORCA by not just citing the generic ORCA reference.

Please note that relegating all ORCA citations to the supporting information does *not* help us.
SI sections are not indexed - citations you put there will not count into any citation statistics
But we need these citations in order to attract the funding resources that allow us to do what we are doing

Therefore, if you are a happy ORCA user, please consider citing a few of the papers listed below in the main body of your paper

In addition to the list printed below, the program has created the file sp_solv.bibtex that contains the list in bibtex format
You can import this file easily into all common literature databanks and citation aid programs


List of essential papers. We consider these as the minimum necessary citations

  1. Neese,F.
     Software update: the ORCA program system, version 5.0
     WIRES Comput. Molec. Sci., 2022 12(1)e1606
     doi.org/10.1002/wcms.1606
  2. Grimme,S.; Hansen,A.; Ehlert,S.; Mewes,J.
     r2SCAN-3c: A 'Swiss army knife' composite electronic-structure method
     J. Chem. Phys., 2021 154 064103
     doi.org/10.1063/5.0040021

List of papers to cite with high priority. The work reported in these papers was absolutely
necessary for this run to complete.
Our perspective: the developers of density functionals and basis sets usually get cited in chemistry papers
Good! But without the algorithms to do something with them, the functionals or basis sets would not do anything.
Hence, in our opinion, the algorithm design and method developments papers are equally worthy of getting cited

  1. Neese,F.
     An improvement of the resolution of the identity approximation for the formation of the Coulomb matrix
     J. Comp. Chem., 2003 24(14)1740-1747
     doi.org/10.1002/jcc.10318
  2. Garcia-Rates,M.; Neese,F.
     Effect of the Solute Cavity on the Solvation Energy and its Derivatives within the Framework of the Gaussian Charge Scheme
     J. Comput. Chem., 2020 41 922-939
     doi.org/10.1002/jcc.26139
  3. Neese,F.
     The SHARK Integral Generation and Digestion System
     J. Comp. Chem., 2022  1-16
     doi.org/10.1002/jcc.26942
  4. Lehtola,S.; Steigemann,C.; Oliveira,M.; Marques,M.
     Recent developments in Libxc - A comprehensive library of functionals for density functional theory
     Software X, 2018 7 
     doi.org/10.1016/j.softx.2017.11.002
  5. Caldeweyher,E.; Bannwarth,C.; Grimme,S.
     Extension of the D3 dispersion coefficient model
     J. Chem. Phys., 2017 147 034112-XXXX
     doi.org/10.1063/1.4993215
  6. Caldeweyher,E.; Ehlert,S.; Hansen,A.; Neugebauer,H.; Spicher,S.; Bannwarth,C.; Grimme,S.
     A generally applicable atomic-charge dependent London dispersion correction
     J. Chem. Phys., 2019 150 154122-XXXX
     doi.org/10.1063/1.5090222
  7. Caldeweyher,E.; Mewes,J.; Ehlert,S.; Grimme,S.
     Extension and evaluation of the D4 London-dispersion model for periodic systems
     Phys. Chem. Chem. Phys., 2020 22(16)8499-8512
     doi.org/10.1039/D0CP00502A

List of suggested additional citations. These are papers that are important in the 'surrounding' of 
of this run, or papers that preceded the highly important papers. If you like your results we are grateful for a citation.

  1. Neese,F.
     The ORCA program system
     WIRES Comput. Molec. Sci., 2012 2(1)73-78
     doi.org/10.1002/wcms.81
  2. Neese,F.
     Software update: the ORCA program system, version 4.0
     WIRES Comput. Molec. Sci., 2018 8(1)1-6
     doi.org/10.1002/wcms.1327
  3. Neese,F.; Wennmohs,F.; Becker,U.; Riplinger,C.
     The ORCA quantum chemistry program package
     J. Chem. Phys., 2020 152 Art. No. L224108
     doi.org/10.1063/5.0004608

List of optional additional citations

  1. Neese,F.
     Approximate second-order SCF convergence for spin unrestricted wavefunctions
     Chem. Phys. Lett., 2000 325(1-3)93-98
     doi.org/10.1016/s0009-2614(00)00662-x

Timings for individual modules:

Sum of individual times          ...       15.544 sec (=   0.259 min)
Startup calculation              ...        0.764 sec (=   0.013 min)   4.9 %
SCF iterations                   ...       14.693 sec (=   0.245 min)  94.5 %
Property calculations            ...        0.087 sec (=   0.001 min)   0.6 %
                             ****ORCA TERMINATED NORMALLY****
TOTAL RUN TIME: 0 days 0 hours 0 minutes 16 seconds 205 msec
