
                                 *****************
                                 * O   R   C   A *
                                 *****************

                                            #,                                       
                                            ###                                      
                                            ####                                     
                                            #####                                    
                                            ######                                   
                                           ########,                                 
                                     ,,################,,,,,                         
                               ,,#################################,,                 
                          ,,##########################################,,             
                       ,#########################################, ''#####,          
                    ,#############################################,,   '####,        
                  ,##################################################,,,,####,       
                ,###########''''           ''''###############################       
              ,#####''   ,,,,##########,,,,          '''####'''          '####       
            ,##' ,,,,###########################,,,                        '##       
           ' ,,###''''                  '''############,,,                           
         ,,##''                                '''############,,,,        ,,,,,,###''
      ,#''                                            '''#######################'''  
     '                                                          ''''####''''         
             ,#######,   #######,   ,#######,      ##                                
            ,#'     '#,  ##    ##  ,#'     '#,    #''#        ,####,   ,####,        
            ##       ##  ##   ,#'  ##            #'  '#       #'       #'  '#        
            ##       ##  #######   ##           ,######,      #####,   #    #        
            '#,     ,#'  ##    ##  '#,     ,#' ,#      #,     #,   #   #,  ,#        
             '#######'   ##     ##  '#######'  #'      '#     '####' # '####'        



                #########################################################
                #                        -***-                          #
                #          Department of theory and spectroscopy        #
                #                                                       #
                #                      Frank Neese                      #
                #                                                       #
                #     Directorship, Architecture, Infrastructure        #
                #                    SHARK, DRIVERS                     #
                #        Core code/Algorithms in most modules           #
                #                                                       #
                #        Max Planck Institute fuer Kohlenforschung      #
                #                Kaiser Wilhelm Platz 1                 #
                #                 D-45470 Muelheim/Ruhr                 #
                #                      Germany                          #
                #                                                       #
                #                  All rights reserved                  #
                #                        -***-                          #
                #########################################################


                         Program Version 6.0.0  -   RELEASE  -


 With contributions from (in alphabetic order):
   Daniel Aravena         : Magnetic Suceptibility
   Michael Atanasov       : Ab Initio Ligand Field Theory (pilot matlab implementation)
   Alexander A. Auer      : GIAO ZORA, VPT2 properties, NMR spectrum
   Ute Becker             : All parallelization in ORCA, NUMFREQ, NUMCALC
   Giovanni Bistoni       : ED, misc. LED, open-shell LED, HFLD
   Martin Brehm           : Molecular dynamics
   Dmytro Bykov           : pre 5.0 version of the SCF Hessian
   Marcos Casanova-Páez   : Triplet and SCS-CIS(D). UHF-(DLPNO)-IP/EA/STEOM-CCSD. UHF-CVS-IP/STEOM-CCSD
   Vijay G. Chilkuri      : MRCI spin determinant printing, contributions to CSF-ICE
   Pauline Colinet        : FMM embedding
   Dipayan Datta          : RHF DLPNO-CCSD density
   Achintya Kumar Dutta   : EOM-CC, STEOM-CC
   Nicolas Foglia         : Exact transition moments, OPA infrastructure, MCD improvements
   Dmitry Ganyushin       : Spin-Orbit,Spin-Spin,Magnetic field MRCI
   Miquel Garcia          : C-PCM and meta-GGA Hessian, CCSD/C-PCM, Gaussian charge scheme
   Tiago L. C. Gouveia    : GS-ROHF, GS-ROCIS
   Yang Guo               : DLPNO-NEVPT2, F12-NEVPT2, CIM, IAO-localization
   Andreas Hansen         : Spin unrestricted coupled pair/coupled cluster methods
   Ingolf Harden          : AUTO-CI MPn and infrastructure 
   Benjamin Helmich-Paris : MC-RPA, TRAH-(SCF,CASSCF), AVAS, COSX integrals, SCF dyn. polar.
   Lee Huntington         : MR-EOM, pCC
   Robert Izsak           : Overlap fitted RIJCOSX, COSX-SCS-MP3, EOM
   Riya Kayal             : Wick's Theorem for AUTO-CI, AUTO-CI UHF-CCSDT
   Emily Kempfer          : AUTO-CI, RHF CISDT and CCSDT
   Christian Kollmar      : KDIIS, OOCD, Brueckner-CCSD(T), CCSD density, CASPT2, CASPT2-K, improved NEVPT2
   Axel Koslowski         : Symmetry handling
   Simone Kossmann        : Meta GGA functionals, TD-DFT gradient, OOMP2, (MP2 Hessian; deprecated post 5.0)
   Lucas Lang             : DCDCAS
   Marvin Lechner         : AUTO-CI (C++ implementation), FIC-MRCC
   Spencer Leger          : CASSCF response
   Dagmar Lenk            : GEPOL surface, SMD, ORCA-2-JSON
   Dimitrios Liakos       : Extrapolation schemes; Compound Job, initial MDCI parallelization
   Dimitrios Manganas     : Further ROCIS development; embedding schemes. LFT, Crystal Embedding
   Dimitrios Pantazis     : SARC Basis sets
   Anastasios Papadopoulos: AUTO-CI, single reference methods and gradients
   Taras Petrenko         : pre 6.0 DFT Hessian and TD-DFT gradient, (ASA, deprecated), ECA, 1-Electron XAS/XES, NRVS
   Peter Pinski           : DLPNO-MP2, DLPNO-MP2 Gradient
   Christoph Reimann      : Effective Core Potentials
   Marius Retegan         : Local ZFS, SOC
   Christoph Riplinger    : Optimizer, TS searches, QM/MM, DLPNO-CCSD(T), (RO)-DLPNO pert. Triples
   Michael Roemelt        : Original ROCIS implementation
   Masaaki Saitow         : Open-shell DLPNO-CCSD energy and density
   Barbara Sandhoefer     : DKH picture change effects
   Kantharuban Sivalingam : CASSCF convergence/infrastructure, NEVPT2 and variants, FIC-MRCI
   Bernardo de Souza      : ESD, SOC TD-DFT
   Georgi Stoychev        : AutoAux, RI-MP2 NMR, DLPNO-MP2 response, X2C
   Van Anh Tran           : RI-MP2 g-tensors
   Willem Van den Heuvel  : Paramagnetic NMR
   Zikuan Wang            : NOTCH, Electric field optimization 
   Frank Wennmohs         : Technical directorship and infrastructure
   Hang Xu                : AUTO-CI-Response properties 


 We gratefully acknowledge several colleagues who have allowed us to
 interface, adapt or use parts of their codes:
   Stefan Grimme, W. Hujo, H. Kruse, P. Pracht,  : VdW corrections, initial TS optimization,
                  C. Bannwarth, S. Ehlert,         DFT functionals, gCP, sTDA/sTD-DF
                  L. Wittmann, M. Mueller
   Ed Valeev, F. Pavosevic, A. Kumar             : LibInt (2-el integral package), F12 methods
   Garnet Chan, S. Sharma, J. Yang, R. Olivares  : DMRG
   Ulf Ekstrom                                   : XCFun DFT Library
   Mihaly Kallay                                 : mrcc  (arbitrary order and MRCC methods)
   Frank Weinhold                                : gennbo (NPA and NBO analysis)
   Simon Mueller                                 : openCOSMO-RS
   Christopher J. Cramer and Donald G. Truhlar   : smd solvation model
   Lars Goerigk                                  : TD-DFT with DH, B97 family of functionals
   V. Asgeirsson, H. Jonsson                     : NEB implementation
   FAccTs GmbH                                   : IRC, NEB, NEB-TS, DLPNO-Multilevel, CI-OPT
                                                   MM, QMMM, 2- and 3-layer-ONIOM, Crystal-QMMM,
                                                   LR-CPCM, SF, NACMEs, symmetry and pop. for TD-DFT,
                                                   nearIR, NL-DFT gradient (VV10), updates on ESD,
                                                   ML-optimized integration grids, MBIS, APM,
                                                   GOAT, DOCKER, SOLVATOR, interface openCOSMO-RS
   S Lehtola, MJT Oliveira, MAL Marques          : LibXC Library
   Liviu Ungur et al                             : ANISO software


 Your calculation uses the libint2 library for the computation of 2-el integrals
 For citations please refer to: http://libint.valeyev.net

 Your ORCA version has been built with support for libXC version: 6.2.2
 For citations please refer to: https://libxc.gitlab.io

 This ORCA versions uses:
   CBLAS   interface :  Fast vector & matrix operations
   LAPACKE interface :  Fast linear algebra routines
   SCALAPACK package :  Parallel linear algebra routines
   Shared memory     :  Shared parallel matrices
   BLAS/LAPACK       :  OpenBLAS 0.3.27  USE64BITINT DYNAMIC_ARCH NO_AFFINITY SkylakeX SINGLE_THREADED
        Core in use  :  SkylakeX
   Copyright (c) 2011-2014, The OpenBLAS Project


Your calculation utilizes the geometrical counterpoise correction gCP
Please cite in your paper:
H.Kruse, S. Grimme J.Chem.Phys., 136, (2012), 154101 
   

Your calculation utilizes the atom-pairwise dispersion correction
based on EEQ partial charges (D4)


Your calculation utilizes the SMD solvation module
Please cite in your paper:
A.V. Marenich, C.J. Cramer, D.G. Truhlar J. Phys. Chem. B, 113, (2009), 6378 

================================================================================

----- Orbital basis set information -----
Your calculation utilizes the basis: def2-mTZVPP
   Stefan Grimme, Andreas Hansen, Sebastian Ehlert, and Jan-Michael Mewes 
   J. Chem. Phys. 154, 064103 (2021). DOI: 10.1063/5.0040021

----- AuxJ basis set information -----
Your calculation utilizes the auxiliary basis: def2/J
   F. Weigend, Phys. Chem. Chem. Phys. 8, 1057 (2006).

================================================================================
                                        WARNINGS
                       Please study these warnings very carefully!
================================================================================

Using LibXC functional ID 497 : Re-regularized SCAN exchange by Furness et al
[ 1]  J. W. Furness, A. D. Kaplan, J. Ning, J. P. Perdew, and J. Sun.,  J. Phys. Chem. Lett. 11, 8208-8215 (2020)
[ 2]  J. W. Furness, A. D. Kaplan, J. Ning, J. P. Perdew, and J. Sun.,  J. Phys. Chem. Lett. 11, 9248-9248 (2020)
Using LibXC functional ID 498 : Re-regularized SCAN correlation by Furness et al
[ 1]  J. W. Furness, A. D. Kaplan, J. Ning, J. P. Perdew, and J. Sun.,  J. Phys. Chem. Lett. 11, 8208-8215 (2020)
[ 2]  J. W. Furness, A. D. Kaplan, J. Ning, J. P. Perdew, and J. Sun.,  J. Phys. Chem. Lett. 11, 9248-9248 (2020)
Using LibXC functional ID 497 : Re-regularized SCAN exchange by Furness et al
[ 1]  J. W. Furness, A. D. Kaplan, J. Ning, J. P. Perdew, and J. Sun.,  J. Phys. Chem. Lett. 11, 8208-8215 (2020)
[ 2]  J. W. Furness, A. D. Kaplan, J. Ning, J. P. Perdew, and J. Sun.,  J. Phys. Chem. Lett. 11, 9248-9248 (2020)
Using LibXC functional ID 498 : Re-regularized SCAN correlation by Furness et al
[ 1]  J. W. Furness, A. D. Kaplan, J. Ning, J. P. Perdew, and J. Sun.,  J. Phys. Chem. Lett. 11, 8208-8215 (2020)
[ 2]  J. W. Furness, A. D. Kaplan, J. Ning, J. P. Perdew, and J. Sun.,  J. Phys. Chem. Lett. 11, 9248-9248 (2020)

================================================================================
                                       INPUT FILE
================================================================================
NAME = sp_solv.inp
|  1> ! r2scan-3c def2/J RI DEFGRID2 scfconv6 printgap
|  2> %output
|  3>     printlevel normal
|  4> end
|  5> %cpcm
|  6>     smd true
|  7>     smdsolvent "water"
|  8> end
|  9> * xyz 0 1
| 10> C -1.6254265611 1.0485900355 -0.5394581756
| 11> C -1.0879227931 0.4846729745 0.7748381925
| 12> C -0.0492941455 -0.6438203459 0.6346584934
| 13> H -0.0405971925 -1.1961120495 1.5816452313
| 14> C -0.3904604958 -1.6219604007 -0.487048879
| 15> C 1.3860812632 -0.1116088154 0.4682275531
| 16> O 1.6042000264 0.6843214508 -0.6766478651
| 17> H -2.2158870227 1.940390433 -0.3405366784
| 18> H -0.8256001294 1.3100893125 -1.2255594927
| 19> H -2.2670602034 0.3237507334 -1.0329838062
| 20> H -1.9347691329 0.10078313 1.3482853264
| 21> H -0.6432737943 1.2909479295 1.364308461
| 22> H -0.2426427881 -1.1534848446 -1.456198034
| 23> H -1.4219409937 -1.9541261227 -0.4044715211
| 24> H 0.2581748314 -2.4930328283 -0.4299412804
| 25> H 2.0678395876 -0.9600408674 0.3605615705
| 26> H 1.6736258633 0.4434777855 1.3713529316
| 27> H 1.1844239948 1.5437770691 -0.5391909033
| 28> *
| 29> 
| 30>                          ****END OF INPUT****
================================================================================

                       ****************************
                       * Single Point Calculation *
                       ****************************

---------------------------------
CARTESIAN COORDINATES (ANGSTROEM)
---------------------------------
  C     -1.625427    1.048590   -0.539458
  C     -1.087923    0.484673    0.774838
  C     -0.049294   -0.643820    0.634658
  H     -0.040597   -1.196112    1.581645
  C     -0.390460   -1.621960   -0.487049
  C      1.386081   -0.111609    0.468228
  O      1.604200    0.684321   -0.676648
  H     -2.215887    1.940390   -0.340537
  H     -0.825600    1.310089   -1.225559
  H     -2.267060    0.323751   -1.032984
  H     -1.934769    0.100783    1.348285
  H     -0.643274    1.290948    1.364308
  H     -0.242643   -1.153485   -1.456198
  H     -1.421941   -1.954126   -0.404472
  H      0.258175   -2.493033   -0.429941
  H      2.067840   -0.960041    0.360562
  H      1.673626    0.443478    1.371353
  H      1.184424    1.543777   -0.539191

----------------------------
CARTESIAN COORDINATES (A.U.)
----------------------------
  NO LB      ZA    FRAG     MASS         X           Y           Z
   0 C     6.0000    0    12.011   -3.071611    1.981548   -1.019428
   1 C     6.0000    0    12.011   -2.055876    0.915899    1.464232
   2 C     6.0000    0    12.011   -0.093152   -1.216644    1.199331
   3 H     1.0000    0     1.008   -0.076718   -2.260324    2.988876
   4 C     6.0000    0    12.011   -0.737863   -3.065061   -0.920389
   5 C     6.0000    0    12.011    2.619314   -0.210910    0.884822
   6 O     8.0000    0    15.999    3.031499    1.293180   -1.278679
   7 H     1.0000    0     1.008   -4.187420    3.666807   -0.643521
   8 H     1.0000    0     1.008   -1.560158    2.475710   -2.315972
   9 H     1.0000    0     1.008   -4.284123    0.611800   -1.952056
  10 H     1.0000    0     1.008   -3.656184    0.190453    2.547890
  11 H     1.0000    0     1.008   -1.215611    2.439538    2.578169
  12 H     1.0000    0     1.008   -0.458528   -2.179770   -2.751815
  13 H     1.0000    0     1.008   -2.687079   -3.692763   -0.764340
  14 H     1.0000    0     1.008    0.487880   -4.711149   -0.812471
  15 H     1.0000    0     1.008    3.907651   -1.814214    0.681363
  16 H     1.0000    0     1.008    3.162695    0.838052    2.591481
  17 H     1.0000    0     1.008    2.238237    2.917316   -1.018923

--------------------------------
INTERNAL COORDINATES (ANGSTROEM)
--------------------------------
 C      0   0   0     0.000000000000     0.00000000     0.00000000
 C      1   0   0     1.527837588064     0.00000000     0.00000000
 C      2   1   0     1.540096422255   115.43003308     0.00000000
 H      3   2   1     1.096305452242   107.20937316   201.11579194
 C      3   2   1     1.526885678326   112.67998645   320.14651537
 C      3   2   1     1.539886663033   112.65680684    86.00784633
 O      6   3   2     1.411318711954   115.25521349   298.59994582
 H      1   2   3     1.087897636610   109.64647647   189.46344953
 H      1   2   3     1.085743620770   111.92113221   309.96531773
 H      1   2   3     1.086578709924   110.62479079    70.42642114
 H      2   1   3     1.092410980960   107.97187840   238.75611348
 H      2   1   3     1.093282777985   109.55422133   122.63139139
 H      5   3   2     1.086540153888   110.40544289    71.28756082
 H      5   3   2     1.086786595638   110.61245943   310.31777555
 H      5   3   2     1.087545971274   109.95358973   190.50430606
 H      6   3   2     1.093719947500   108.87876826   180.78301516
 H      6   3   2     1.098379934647   109.25780674    62.99018198
 H      7   6   3     0.966317904667   108.60636010    73.10994415

---------------------------
INTERNAL COORDINATES (A.U.)
---------------------------
 C      0   0   0     0.000000000000     0.00000000     0.00000000
 C      1   0   0     2.887194618552     0.00000000     0.00000000
 C      2   1   0     2.910360457894   115.43003308     0.00000000
 H      3   2   1     2.071717063862   107.20937316   201.11579194
 C      3   2   1     2.885395769843   112.67998645   320.14651537
 C      3   2   1     2.909964070410   112.65680684    86.00784633
 O      6   3   2     2.667005853272   115.25521349   298.59994582
 H      1   2   3     2.055828594934   109.64647647   189.46344953
 H      1   2   3     2.051758094908   111.92113221   309.96531773
 H      1   2   3     2.053336184705   110.62479079    70.42642114
 H      2   1   3     2.064357579702   107.97187840   238.75611348
 H      2   1   3     2.066005037325   109.55422133   122.63139139
 H      5   3   2     2.053263324356   110.40544289    71.28756082
 H      5   3   2     2.053729031772   110.61245943   310.31777555
 H      5   3   2     2.055164043758   109.95358973   190.50430606
 H      6   3   2     2.066831167981   108.87876826   180.78301516
 H      6   3   2     2.075637267478   109.25780674    62.99018198
 H      7   6   3     1.826076198126   108.60636010    73.10994415

---------------------
BASIS SET INFORMATION
---------------------
There are 3 groups of distinct atoms

 Group   1 Type C   : 11s6p1d contracted to 5s3p1d pattern {62111/411/1}
 Group   2 Type H   : 4s1p contracted to 2s1p pattern {31/1}
 Group   3 Type O   : 11s6p2d contracted to 5s3p2d pattern {62111/411/11}

Atom   0C    basis set group =>   1
Atom   1C    basis set group =>   1
Atom   2C    basis set group =>   1
Atom   3H    basis set group =>   2
Atom   4C    basis set group =>   1
Atom   5C    basis set group =>   1
Atom   6O    basis set group =>   3
Atom   7H    basis set group =>   2
Atom   8H    basis set group =>   2
Atom   9H    basis set group =>   2
Atom  10H    basis set group =>   2
Atom  11H    basis set group =>   2
Atom  12H    basis set group =>   2
Atom  13H    basis set group =>   2
Atom  14H    basis set group =>   2
Atom  15H    basis set group =>   2
Atom  16H    basis set group =>   2
Atom  17H    basis set group =>   2
---------------------------------
AUXILIARY/J BASIS SET INFORMATION
---------------------------------
There are 3 groups of distinct atoms

 Group   1 Type C   : 12s5p4d2f1g contracted to 6s4p3d1f1g pattern {711111/2111/211/2/1}
 Group   2 Type H   : 5s2p1d contracted to 3s1p1d pattern {311/2/1}
 Group   3 Type O   : 12s5p4d2f1g contracted to 6s4p3d1f1g pattern {711111/2111/211/2/1}

Atom   0C    basis set group =>   1
Atom   1C    basis set group =>   1
Atom   2C    basis set group =>   1
Atom   3H    basis set group =>   2
Atom   4C    basis set group =>   1
Atom   5C    basis set group =>   1
Atom   6O    basis set group =>   3
Atom   7H    basis set group =>   2
Atom   8H    basis set group =>   2
Atom   9H    basis set group =>   2
Atom  10H    basis set group =>   2
Atom  11H    basis set group =>   2
Atom  12H    basis set group =>   2
Atom  13H    basis set group =>   2
Atom  14H    basis set group =>   2
Atom  15H    basis set group =>   2
Atom  16H    basis set group =>   2
Atom  17H    basis set group =>   2

Checking for AutoStart:
The File: sp_solv.gbw exists
Trying to determine its content:
     ... Fine, the file contains calculation information
     ... Fine, the calculation information was read
     ... Fine, the file contains a basis set
     ... Fine, the basis set was read
     ... Fine, the file contains a geometry
     ... Fine, the geometry was read
     ... Fine, the file contains a set of orbitals
     ... Fine, the orbitals can be read
     => possible old guess file was deleted
     => GBW file was renamed to GES file
     => GES file is set as startup file
     => Guess is set to MORead
     ... now leaving AutoStart

------------------------------------------------------------------------------
                             ORCA STARTUP CALCULATIONS
                           -- RI-GTO INTEGRALS CHOSEN --
------------------------------------------------------------------------------
------------------------------------------------------------------------------
                   ___                                                        
                  /   \      - P O W E R E D   B Y -                         
                 /     \                                                     
                 |  |  |   _    _      __       _____    __    __             
                 |  |  |  | |  | |    /  \     |  _  \  |  |  /  |          
                  \  \/   | |  | |   /    \    | | | |  |  | /  /          
                 / \  \   | |__| |  /  /\  \   | |_| |  |  |/  /          
                |  |  |   |  __  | /  /__\  \  |    /   |      \           
                |  |  |   | |  | | |   __   |  |    \   |  |\   \          
                \     /   | |  | | |  |  |  |  | |\  \  |  | \   \       
                 \___/    |_|  |_| |__|  |__|  |_| \__\ |__|  \__/        
                                                                              
                      - O R C A' S   B I G   F R I E N D -                    
                                      &                                       
                       - I N T E G R A L  F E E D E R -                       
                                                                              
 v1 FN, 2020, v2 2021, v3 2022-2024                                           
------------------------------------------------------------------------------


----------------------
SHARK INTEGRAL PACKAGE
----------------------

Number of atoms                             ...     18
Number of basis functions                   ...    179
Number of shells                            ...     91
Maximum angular momentum                    ...      2
Integral batch strategy                     ... SHARK/LIBINT Hybrid
RI-J (if used) integral strategy            ... SPLIT-RIJ (Revised 2003 algorithm where possible)
Printlevel                                  ...      1
Contraction scheme used                     ... SEGMENTED contraction
Prescreening option                         ... SCHWARTZ
   Thresh                                   ... 1.000e-10
   Tcut                                     ... 1.000e-11
   Tpresel                                  ... 1.000e-11 
Coulomb Range Separation                    ... NOT USED
Exchange Range Separation                   ... NOT USED
Multipole approximations                    ... NOT USED
Finite Nucleus Model                        ... NOT USED
CABS basis                                  ... NOT available
Auxiliary Coulomb fitting basis             ... AVAILABLE
   # of basis functions in Aux-J            ...    426
   # of shells in Aux-J                     ...    150
   Maximum angular momentum in Aux-J        ...      4
Auxiliary J/K fitting basis                 ... NOT available
Auxiliary Correlation fitting basis         ... NOT available
Auxiliary 'external' fitting basis          ... NOT available

Checking pre-screening integrals            ... done (  0.0 sec) Dimension = 91
Check shell pair data                       ... done (  0.0 sec)
Shell pair information
Shell pair cut-off parameter TPreSel        ...   1.0e-11
Total number of shell pairs                 ...      4186
Shell pairs after pre-screening             ...      3991
Total number of primitive shell pairs       ...     14533
Primitive shell pairs kept                  ...     10222
          la=0 lb=0:   1398 shell pairs
          la=1 lb=0:   1538 shell pairs
          la=1 lb=1:    449 shell pairs
          la=2 lb=0:    371 shell pairs
          la=2 lb=1:    207 shell pairs
          la=2 lb=2:     28 shell pairs

Calculating one electron integrals          ... done (  0.0 sec)
Calculating RI/J V-Matrix + Cholesky decomp.... done (  0.1 sec)
Calculating Nuclear repulsion               ... done (  0.0 sec) ENN=    264.801238369311 Eh

Diagonalization of the overlap matrix:
Smallest eigenvalue                        ... 1.828e-04
Time for diagonalization                   ...    0.003 sec
Threshold for overlap eigenvalues          ... 1.000e-07
Number of eigenvalues below threshold      ... 0
Time for construction of square roots      ...    0.014 sec
Total time needed                          ...    0.028 sec

-------------------
DFT GRID GENERATION
-------------------

General Integration Accuracy     IntAcc      ... 4.388
Radial Grid Type                 RadialGrid  ... OptM3 with GC (2021)
Angular Grid (max. ang.)         AngularGrid ... 4 (Lebedev-302)
Angular grid pruning method      GridPruning ... 4 (adaptive)
Weight generation scheme         WeightScheme... mBecke (2022)
Basis function cutoff            BFCut       ... 1.0000e-10
Integration weight cutoff        WCut        ... 1.0000e-14
Partially contracted basis set               ... off
Rotationally invariant grid construction     ... off
Angular grids for H and He will be reduced by one unit
Diffuse basis detected: some atoms will have their outermost
                        angular grid increased by 1.

Total number of grid points                  ...    74756
Total number of batches                      ...     1177
Average number of points per batch           ...       63
Average number of grid points per atom       ...     4153
Initializing property integral containers    ... done (  0.0 sec)

SHARK setup successfully completed in   1.1 seconds

Maximum memory used throughout the entire STARTUP-calculation: 32.6 MB
-------------------------------------------------------------------------------
                                 ORCA GUESS
                   Start orbitals & Density for SCF / CASSCF
-------------------------------------------------------------------------------

------------
SCF SETTINGS
------------
Hamiltonian:
 Density Functional     Method          .... DFT(GTOs)
  Functional kind                       .... Exchange
  Functional name                       .... Re-regularized SCAN exchange by Furness et al
  Functional family                     .... MGGA
  Functional refs                              
    [ 0] J. W. Furness, A. D. Kaplan, J. Ning, J. P. Perdew, and J. Sun.,  J. Phys. Chem. Lett. 11, 8208-8215 (2020), doi: 10.1021/acs.jpclett.0c02405
    [ 1] J. W. Furness, A. D. Kaplan, J. Ning, J. P. Perdew, and J. Sun.,  J. Phys. Chem. Lett. 11, 9248-9248 (2020), doi: 10.1021/acs.jpclett.0c03077
  Functional external parameters        .... 6
    Parameter  0 _c1        =  6.670000e-01 : c1 parameter        
    Parameter  1 _c2        =  8.000000e-01 : c2 parameter        
    Parameter  2 _d         =  1.240000e+00 : d parameter         
    Parameter  3 _k1        =  6.500000e-02 : k1 parameter        
    Parameter  4 _eta       =  1.000000e-03 : eta parameter       
    Parameter  5 _dp2       =  3.610000e-01 : dp2 parameter       
  Functional kind                       .... Correlation
  Functional name                       .... Re-regularized SCAN correlation by Furness et al
  Functional family                     .... MGGA
  Functional refs                              
    [ 0] J. W. Furness, A. D. Kaplan, J. Ning, J. P. Perdew, and J. Sun.,  J. Phys. Chem. Lett. 11, 8208-8215 (2020), doi: 10.1021/acs.jpclett.0c02405
    [ 1] J. W. Furness, A. D. Kaplan, J. Ning, J. P. Perdew, and J. Sun.,  J. Phys. Chem. Lett. 11, 9248-9248 (2020), doi: 10.1021/acs.jpclett.0c03077
  Functional external parameters        .... 1
    Parameter  0 _eta       =  1.000000e-03 : Regularization parameter
 Gradients option       PostSCFGGA      .... off
 RI-approximation to the Coulomb term is turned on
   Number of AuxJ basis functions       .... 426


General Settings:
 Integral files         IntName         .... sp_solv
 Hartree-Fock type      HFTyp           .... RHF
 Total Charge           Charge          ....    0
 Multiplicity           Mult            ....    1
 Number of Electrons    NEL             ....   50
 Basis Dimension        Dim             ....  179
 Nuclear Repulsion      ENuc            ....    264.8012383693 Eh

Convergence Acceleration:
 AO-DIIS                CNVDIIS         .... on
   Start iteration      DIISMaxIt       ....    12
   Startup error        DIISStart       ....  0.200000
   # of expansion vecs  DIISMaxEq       ....     5
   Bias factor          DIISBfac        ....   1.050
   Max. coefficient     DIISMaxC        ....  10.000
 MO-DIIS                CNVKDIIS        .... off
 Trust-Rad. Augm. Hess. CNVTRAH         .... auto
   Auto Start mean grad. ratio tolernc. ....  1.125000
   Auto Start start iteration           ....     1
   Auto Start num. interpolation iter.  ....    10
   Max. Number of Micro iterations      ....    24
   Max. Number of Macro iterations      .... Maxiter - #DIIS iter
   Number of Davidson start vectors     ....     2
   Converg. threshold    (grad. norm)   ....   3.330e-04
   Grad. Scal. Fac. for Micro threshold ....   0.100
   Minimum threshold for Micro iter.    ....   1.000e-02
   NR start threshold (gradient norm)   ....   1.000e-04
   Initial trust radius                 ....   0.400
   Minimum AH scaling param. (alpha)    ....   1.000
   Maximum AH scaling param. (alpha)    .... 1000.000
   Quad. conv. algorithm                .... NR
   White noise on init. David. guess    .... on
   Maximum white noise                  ....   0.010
   Pseudo random numbers                .... off
   Inactive MOs                         .... canonical
   Orbital update algorithm             .... Taylor
   Preconditioner                       .... Diag
   Full preconditioner red. dimension   ....   250
   COSX micro iterations for RIJONX calc.... off
 SOSCF                  CNVSOSCF        .... on
   Start iteration      SOSCFMaxIt      ....   150
   Startup grad/error   SOSCFStart      ....  0.003300
   Hessian update       SOSCFHessUp     .... L-BFGS
 Level Shifting         CNVShift        .... on
   Level shift para.    LevelShift      ....    0.2500
   Turn off err/grad.   ShiftErr        ....    0.0010
 Zerner damping         CNVZerner       .... off
 Static damping         CNVDamp         .... on
   Fraction old density DampFac         ....    0.7000
   Max. Damping (<1)    DampMax         ....    0.9800
   Min. Damping (>=0)   DampMin         ....    0.0000
   Turn off err/grad.   DampErr         ....    0.1000

SCF Procedure:
 Maximum # iterations   MaxIter         ....   125
 SCF integral mode      SCFMode         .... Direct
   Integral package                     .... SHARK and LIBINT hybrid scheme
 Reset frequency        DirectResetFreq ....    20
 Integral Threshold     Thresh          ....  1.000e-10 Eh
 Primitive CutOff       TCut            ....  1.000e-11 Eh

Convergence Tolerance:
 Convergence Check Mode ConvCheckMode   .... Total+1el-Energy
 Convergence forced     ConvForced      .... 0
 Energy Change          TolE            ....  1.000e-06 Eh
 1-El. energy change                    ....  1.000e-03 Eh
 Orbital Gradient       TolG            ....  3.330e-04
 Orbital Rotation angle TolX            ....  3.330e-04
 DIIS Error             TolErr          ....  1.000e-06

---------------------
INITIAL GUESS: MOREAD
---------------------
Guess MOs are being read from file: sp_solv.ges
Input Geometry matches current geometry (good)
Atom 0: N(Shells)= 9 and 6 - projection required
Input basis set needs projection
NBasis(read)= 108
NBasis(calc)= 179
Basis set overlap was calculated
Using GuessMode=FMatrix for the initial guess
C*T matrix was formed
Effective Fockian was calculated
Effective Fockian was diagonalized
Initial density was built
                      ------------------
                      INITIAL GUESS DONE (   0.0 sec)
                      ------------------
             **** ENERGY FILE WAS UPDATED (sp_solv.en.tmp) ****
Finished Guess after   0.3 sec
Maximum memory used throughout the entire GUESS-calculation: 12.4 MB

-------------------------------------------------------------------------------------------
                                      ORCA LEAN-SCF
                              memory conserving SCF solver
-------------------------------------------------------------------------------------------

--------------------
CPCM SOLVATION MODEL
--------------------
CPCM parameters:
  Epsilon                                         ...      78.3550
  Refrac                                          ...       1.3328
  Rsolv                                           ...       1.3000
  Surface type                                    ... GAUSSIAN VDW
  Discretization scheme                           ... Constant charge density
    Threshold for H atoms                         ...       5.0000 (charges/Ang^2)
    Threshold for non-H atoms                     ...       5.0000 (charges/Ang^2)
  Epsilon function type                           ...         CPCM
Solvent:                                          ... WATER
SMD-CDS solvent descriptors:
  Soln                                            ...       1.3328
  Soln25                                          ...       1.3323
  Sola                                            ...       0.0000
  Solb                                            ...       0.0000
  Solg                                            ...       0.0000
  Solc                                            ...       0.0000
  Solh                                            ...       0.0000
Radii:
  Scheme                                          ... Element-dependent radii
  Radius for C  used is    3.4960 Bohr (=   1.8500 Ang.)
  Radius for H  used is    2.2677 Bohr (=   1.2000 Ang.)
  Radius for O  used is    2.8724 Bohr (=   1.5200 Ang.)
Calculating surface                               ...        done! (  0.0s)
Cavity surface points                             ...         1326
Cavity Volume                                     ...     733.1228
Cavity Surface-area                               ...     485.2118
Calculating surface distance matrix               ...        done! (  0.0s)
Performing Cholesky decomposition & store         ...        done! (  0.1s)
Overall time for CPCM initialization              ...                 0.1s

----------------------------------------D-I-I-S--------------------------------------------
Iteration    Energy (Eh)           Delta-E    RMSDP     MaxDP     DIISErr   Damp  Time(sec)
-------------------------------------------------------------------------------------------
               ***  Starting incremental Fock matrix formation  ***
    1    -272.7538321213205563     0.00e+00  4.38e-03  1.53e-01  6.27e-01  0.700   2.6
    2    -272.8003140359867302    -4.65e-02  3.52e-03  9.76e-02  4.41e-01  0.700   2.5
    3    -272.8333034388718943    -3.30e-02  2.58e-03  6.93e-02  3.09e-01  0.700   2.5
    4    -272.8565105812643878    -2.32e-02  1.85e-03  4.93e-02  2.17e-01  0.700   2.3
                               ***Turning on AO-DIIS***
    5    -272.8728140133363240    -1.63e-02  1.34e-03  3.52e-02  1.52e-01  0.700   2.4
    6    -272.8842550301908432    -1.14e-02  9.54e-04  2.48e-02  1.06e-01  0.700   2.3
    7    -272.8922848603281182    -8.03e-03  6.74e-04  1.74e-02  7.42e-02  0.700   2.4
    8    -272.8979151323803762    -5.63e-03  1.58e-03  4.06e-02  5.20e-02  0.000   2.5
                              *** Initializing SOSCF ***
---------------------------------------S-O-S-C-F--------------------------------------
Iteration    Energy (Eh)           Delta-E    RMSDP     MaxDP     MaxGrad    Time(sec)
--------------------------------------------------------------------------------------
    9    -272.9110857671590793    -1.32e-02  1.38e-05  2.89e-04  1.73e-04     2.5
               *** Restarting incremental Fock matrix formation ***
   10    -272.9110859517975314    -1.85e-07  8.56e-06  2.37e-04  3.34e-05     2.5
                  *** Gradient check signals convergence ***

               *****************************************************
               *                     SUCCESS                       *
               *           SCF CONVERGED AFTER  10 CYCLES          *
               *****************************************************


SMD CDS free energy correction energy :                 3.15968     Kcal/mol
Total Energy after SMD CDS correction =              -272.906050685 Eh
             **** ENERGY FILE WAS UPDATED (sp_solv.en.tmp) ****

----------------
TOTAL SCF ENERGY
----------------

Total Energy       :       -272.90605068479164 Eh           -7426.15118 eV

Components:
Nuclear Repulsion  :        264.80123836931148 Eh            7205.60802 eV
Electronic Energy  :       -537.69897553892929 Eh          -14631.53298 eV
One Electron Energy:       -893.41565297834416 Eh          -24311.07587 eV
Two Electron Energy:        355.71667743941492 Eh            9679.54289 eV
CPCM Dielectric    :         -0.01334878217984 Eh              -0.36324 eV
SMD CDS (Gcds)     :          0.00503526700591 Eh               0.13702 eV

Virial components:
Potential Energy   :       -544.58581930993410 Eh          -14818.93352 eV
Kinetic Energy     :        271.67976862514251 Eh            7392.78235 eV
Virial Ratio       :          2.00451370400474

DFT components:
N(Alpha)           :       25.000081625899 electrons
N(Beta)            :       25.000081625899 electrons
N(Total)           :       50.000163251798 electrons
E(X)               :      -38.585300460908 Eh       
E(C)               :       -1.563869419081 Eh       
E(XC)              :      -40.149169879989 Eh       

CPCM Solvation Model Properties:
Surface-charge          :         -0.04611374068337
Corrected charge        :         -0.00000000000000
Outlying charge corr.   :          0.00017884764068 Eh               0.00487 eV
Free-energy (cav+disp)  :          0.00503526700591 Eh               0.13702 eV

---------------
SCF CONVERGENCE
---------------

  Last Energy change         ...    1.8464e-07  Tolerance :   1.0000e-06
  Last MAX-Density change    ...    2.3669e-04  Tolerance :   1.0000e-05
  Last RMS-Density change    ...    8.5582e-06  Tolerance :   1.0000e-06
  Last DIIS Error            ...    1.7344e-04  Tolerance :   1.0000e-06
  Last Orbital Gradient      ...    3.3449e-05  Tolerance :   3.3300e-04
  Last Orbital Rotation      ...    6.2018e-05  Tolerance :   3.3300e-04


----------------
ORBITAL ENERGIES
----------------

  NO   OCC          E(Eh)            E(eV) 
   0   2.0000     -18.950159      -515.6600 
   1   2.0000     -10.064303      -273.8636 
   2   2.0000     -10.023795      -272.7613 
   3   2.0000     -10.016720      -272.5688 
   4   2.0000     -10.006996      -272.3042 
   5   2.0000     -10.006122      -272.2804 
   6   2.0000      -0.986279       -26.8380 
   7   2.0000      -0.763720       -20.7819 
   8   2.0000      -0.689931       -18.7740 
   9   2.0000      -0.636439       -17.3184 
  10   2.0000      -0.592075       -16.1112 
  11   2.0000      -0.515341       -14.0232 
  12   2.0000      -0.461677       -12.5629 
  13   2.0000      -0.437012       -11.8917 
  14   2.0000      -0.416528       -11.3343 
  15   2.0000      -0.390314       -10.6210 
  16   2.0000      -0.372279       -10.1302 
  17   2.0000      -0.352371        -9.5885 
  18   2.0000      -0.339925        -9.2498 
  19   2.0000      -0.326688        -8.8896 
  20   2.0000      -0.317125        -8.6294 
  21   2.0000      -0.294163        -8.0046 
  22   2.0000      -0.282120        -7.6769 
  23   2.0000      -0.272986        -7.4283 
  24   2.0000      -0.232002        -6.3131 
  25   0.0000       0.062653         1.7049 
  26   0.0000       0.110598         3.0095 
  27   0.0000       0.120848         3.2884 
  28   0.0000       0.131122         3.5680 
  29   0.0000       0.140402         3.8205 
  30   0.0000       0.146719         3.9924 
  31   0.0000       0.152443         4.1482 
  32   0.0000       0.161870         4.4047 
  33   0.0000       0.170375         4.6361 
  34   0.0000       0.179968         4.8972 
  35   0.0000       0.186332         5.0704 
*Only the first 10 virtual orbitals were printed.

                    ********************************
                    * MULLIKEN POPULATION ANALYSIS *
                    ********************************

-----------------------
MULLIKEN ATOMIC CHARGES
-----------------------
   0 C :   -0.524589
   1 C :   -0.326631
   2 C :    0.055330
   3 H :    0.162375
   4 C :   -0.566700
   5 C :   -0.226388
   6 O :   -0.517699
   7 H :    0.156874
   8 H :    0.165140
   9 H :    0.159235
  10 H :    0.158249
  11 H :    0.155680
  12 H :    0.165865
  13 H :    0.167398
  14 H :    0.157914
  15 H :    0.148787
  16 H :    0.151350
  17 H :    0.357810
Sum of atomic charges:    0.0000000

--------------------------------
MULLIKEN REDUCED ORBITAL CHARGES
--------------------------------
  0 C s       :     3.342727  s :     3.342727
      pz      :     0.971251  p :     3.154688
      px      :     1.096334
      py      :     1.087103
      dz2     :     0.005022  d :     0.027174
      dxz     :     0.008042
      dyz     :     0.005535
      dx2y2   :     0.001764
      dxy     :     0.006810

  1 C s       :     3.261249  s :     3.261249
      pz      :     0.972610  p :     3.028884
      px      :     1.045246
      py      :     1.011028
      dz2     :     0.005622  d :     0.036497
      dxz     :     0.008548
      dyz     :     0.008735
      dx2y2   :     0.004925
      dxy     :     0.008667

  2 C s       :     3.024318  s :     3.024318
      pz      :     1.029936  p :     2.875562
      px      :     0.897793
      py      :     0.947834
      dz2     :     0.009190  d :     0.044790
      dxz     :     0.004938
      dyz     :     0.010507
      dx2y2   :     0.009193
      dxy     :     0.010962

  3 H s       :     0.820154  s :     0.820154
      pz      :     0.008962  p :     0.017471
      px      :     0.003228
      py      :     0.005281

  4 C s       :     3.359458  s :     3.359458
      pz      :     1.017495  p :     3.180187
      px      :     1.113456
      py      :     1.049236
      dz2     :     0.008164  d :     0.027055
      dxz     :     0.001903
      dyz     :     0.006285
      dx2y2   :     0.004186
      dxy     :     0.006518

  5 C s       :     3.330271  s :     3.330271
      pz      :     0.852823  p :     2.837231
      px      :     1.008026
      py      :     0.976382
      dz2     :     0.015179  d :     0.058886
      dxz     :     0.009679
      dyz     :     0.014111
      dx2y2   :     0.006967
      dxy     :     0.012950

  6 O s       :     3.756554  s :     3.756554
      pz      :     1.557041  p :     4.739485
      px      :     1.826042
      py      :     1.356402
      dz2     :     0.005509  d :     0.021660
      dxz     :     0.003554
      dyz     :     0.002071
      dx2y2   :     0.002832
      dxy     :     0.007693

  7 H s       :     0.824814  s :     0.824814
      pz      :     0.003833  p :     0.018313
      px      :     0.005872
      py      :     0.008608

  8 H s       :     0.816264  s :     0.816264
      pz      :     0.006696  p :     0.018596
      px      :     0.007795
      py      :     0.004106

  9 H s       :     0.822395  s :     0.822395
      pz      :     0.005164  p :     0.018370
      px      :     0.006189
      py      :     0.007017

 10 H s       :     0.823875  s :     0.823875
      pz      :     0.005568  p :     0.017876
      px      :     0.007935
      py      :     0.004373

 11 H s       :     0.826460  s :     0.826460
      pz      :     0.005662  p :     0.017861
      px      :     0.004662
      py      :     0.007537

 12 H s       :     0.815691  s :     0.815691
      pz      :     0.009487  p :     0.018445
      px      :     0.003800
      py      :     0.005157

 13 H s       :     0.814297  s :     0.814297
      pz      :     0.003715  p :     0.018305
      px      :     0.010281
      py      :     0.004310

 14 H s       :     0.823802  s :     0.823802
      pz      :     0.003693  p :     0.018284
      px      :     0.006217
      py      :     0.008374

 15 H s       :     0.833953  s :     0.833953
      pz      :     0.002576  p :     0.017259
      px      :     0.006555
      py      :     0.008128

 16 H s       :     0.831534  s :     0.831534
      pz      :     0.008511  p :     0.017117
      px      :     0.003945
      py      :     0.004661

 17 H s       :     0.599223  s :     0.599223
      pz      :     0.008918  p :     0.042966
      px      :     0.013799
      py      :     0.020249


------------------------
MULLIKEN OVERLAP CHARGES
------------------------
B(  0-C ,  1-C ) :   0.3197 B(  0-C ,  2-C ) :  -0.1500 B(  0-C ,  7-H ) :   0.7951 
B(  0-C ,  8-H ) :   0.8953 B(  0-C ,  9-H ) :   0.8129 B(  0-C , 11-H ) :  -0.0794 
B(  1-C ,  2-C ) :   0.2917 B(  1-C ,  3-H ) :  -0.0908 B(  1-C ,  4-C ) :  -0.1319 
B(  1-C ,  5-C ) :  -0.1336 B(  1-C ,  7-H ) :  -0.0727 B(  1-C ,  8-H ) :  -0.1486 
B(  1-C , 10-H ) :   0.7912 B(  1-C , 11-H ) :   0.8924 B(  2-C ,  3-H ) :   0.8399 
B(  2-C ,  4-C ) :   0.3106 B(  2-C ,  5-C ) :   0.4309 B(  2-C ,  6-O ) :  -0.2502 
B(  2-C , 11-H ) :  -0.1541 B(  2-C , 12-H ) :  -0.0756 B(  2-C , 13-H ) :  -0.1155 
B(  2-C , 14-H ) :  -0.0644 B(  2-C , 15-H ) :  -0.1201 B(  2-C , 16-H ) :  -0.1227 
B(  3-H ,  4-C ) :  -0.0591 B(  3-H ,  5-C ) :  -0.0615 B(  4-C ,  5-C ) :  -0.1719 
B(  4-C , 12-H ) :   0.8398 B(  4-C , 13-H ) :   0.8322 B(  4-C , 14-H ) :   0.8014 
B(  5-C ,  6-O ) :   0.4220 B(  5-C , 15-H ) :   0.8597 B(  5-C , 16-H ) :   0.8797 
B(  5-C , 17-H ) :  -0.0623 B(  6-O , 15-H ) :  -0.1039 B(  6-O , 16-H ) :  -0.0868 
B(  6-O , 17-H ) :   0.6361 B( 15-H , 16-H ) :  -0.0501 


                     *******************************
                     * LOEWDIN POPULATION ANALYSIS *
                     *******************************

----------------------
LOEWDIN ATOMIC CHARGES
----------------------
   0 C :   -0.431702
   1 C :   -0.313035
   2 C :   -0.231723
   3 H :    0.167441
   4 C :   -0.420872
   5 C :    0.001722
   6 O :   -0.656127
   7 H :    0.153610
   8 H :    0.154684
   9 H :    0.153697
  10 H :    0.158690
  11 H :    0.159602
  12 H :    0.158981
  13 H :    0.158073
  14 H :    0.157261
  15 H :    0.180272
  16 H :    0.166526
  17 H :    0.282901

-------------------------------
LOEWDIN REDUCED ORBITAL CHARGES
-------------------------------
  0 C s       :     2.970425  s :     2.970425
      pz      :     1.103423  p :     3.398187
      px      :     1.147334
      py      :     1.147431
      dz2     :     0.011126  d :     0.063091
      dxz     :     0.018942
      dyz     :     0.012365
      dx2y2   :     0.004013
      dxy     :     0.016645

  1 C s       :     2.935200  s :     2.935200
      pz      :     1.092524  p :     3.299362
      px      :     1.105988
      py      :     1.100850
      dz2     :     0.011727  d :     0.078474
      dxz     :     0.018481
      dyz     :     0.018659
      dx2y2   :     0.009471
      dxy     :     0.020136

  2 C s       :     2.911741  s :     2.911741
      pz      :     1.096775  p :     3.228416
      px      :     1.060505
      py      :     1.071136
      dz2     :     0.019505  d :     0.091566
      dxz     :     0.008537
      dyz     :     0.022960
      dx2y2   :     0.017787
      dxy     :     0.022777

  3 H s       :     0.788619  s :     0.788619
      pz      :     0.022220  p :     0.043939
      px      :     0.008500
      py      :     0.013220

  4 C s       :     2.965540  s :     2.965540
      pz      :     1.119676  p :     3.392040
      px      :     1.153751
      py      :     1.118613
      dz2     :     0.018902  d :     0.063291
      dxz     :     0.003938
      dyz     :     0.015132
      dx2y2   :     0.009938
      dxy     :     0.015381

  5 C s       :     2.871656  s :     2.871656
      pz      :     0.935658  p :     2.994415
      px      :     1.051405
      py      :     1.007352
      dz2     :     0.036217  d :     0.132208
      dxz     :     0.019493
      dyz     :     0.032589
      dx2y2   :     0.014368
      dxy     :     0.029540

  6 O s       :     3.514846  s :     3.514846
      pz      :     1.633518  p :     4.859906
      px      :     1.796169
      py      :     1.430219
      dz2     :     0.085807  d :     0.281375
      dxz     :     0.045588
      dyz     :     0.064641
      dx2y2   :     0.037162
      dxy     :     0.048177

  7 H s       :     0.802523  s :     0.802523
      pz      :     0.008896  p :     0.043866
      px      :     0.013920
      py      :     0.021051

  8 H s       :     0.800311  s :     0.800311
      pz      :     0.016081  p :     0.045005
      px      :     0.019573
      py      :     0.009351

  9 H s       :     0.802140  s :     0.802140
      pz      :     0.012158  p :     0.044163
      px      :     0.014913
      py      :     0.017092

 10 H s       :     0.797773  s :     0.797773
      pz      :     0.013328  p :     0.043538
      px      :     0.019652
      py      :     0.010558

 11 H s       :     0.796883  s :     0.796883
      pz      :     0.013685  p :     0.043515
      px      :     0.011186
      py      :     0.018644

 12 H s       :     0.796310  s :     0.796310
      pz      :     0.023808  p :     0.044709
      px      :     0.008598
      py      :     0.012303

 13 H s       :     0.797850  s :     0.797850
      pz      :     0.008560  p :     0.044077
      px      :     0.025645
      py      :     0.009871

 14 H s       :     0.798769  s :     0.798769
      pz      :     0.008473  p :     0.043970
      px      :     0.015021
      py      :     0.020476

 15 H s       :     0.780034  s :     0.780034
      pz      :     0.005910  p :     0.039695
      px      :     0.015897
      py      :     0.017887

 16 H s       :     0.792821  s :     0.792821
      pz      :     0.019430  p :     0.040653
      px      :     0.009411
      py      :     0.011812

 17 H s       :     0.593385  s :     0.593385
      pz      :     0.024738  p :     0.123714
      px      :     0.039181
      py      :     0.059796


---------------------------------
LOEWDIN BOND ORDERS (THRESH 0.050000)
---------------------------------
B(  0-C ,  1-C ) :   1.1349 B(  0-C ,  2-C ) :   0.0565 B(  0-C ,  7-H ) :   0.9277 
B(  0-C ,  8-H ) :   0.9199 B(  0-C ,  9-H ) :   0.9253 B(  1-C ,  2-C ) :   1.0750 
B(  1-C ,  4-C ) :   0.0614 B(  1-C ,  5-C ) :   0.0635 B(  1-C , 10-H ) :   0.8924 
B(  1-C , 11-H ) :   0.8883 B(  2-C ,  3-H ) :   0.8495 B(  2-C ,  4-C ) :   1.1043 
B(  2-C ,  5-C ) :   1.0183 B(  2-C ,  6-O ) :   0.1578 B(  4-C ,  5-C ) :   0.0668 
B(  4-C , 12-H ) :   0.9153 B(  4-C , 13-H ) :   0.9206 B(  4-C , 14-H ) :   0.9226 
B(  5-C ,  6-O ) :   1.4486 B(  5-C , 15-H ) :   0.8216 B(  5-C , 16-H ) :   0.8300 
B(  6-O , 15-H ) :   0.1016 B(  6-O , 16-H ) :   0.1042 B(  6-O , 17-H ) :   0.9615 


------------------------------------------
LOEWDIN REDUCED ORBITAL POPULATIONS PER MO
-------------------------------------------
THRESHOLD FOR PRINTING IS 0.1%%
                      0         1         2         3         4         5   
                 -18.95016 -10.06430 -10.02380 -10.01672 -10.00700 -10.00612
                   2.00000   2.00000   2.00000   2.00000   2.00000   2.00000
                  --------  --------  --------  --------  --------  --------
 0 C  s               0.0       0.0       0.0       0.0      99.7       0.0
 1 C  s               0.0       0.0       0.0      99.7       0.0       0.0
 2 C  s               0.0       0.0      99.6       0.0       0.0       0.0
 4 C  s               0.0       0.0       0.0       0.0       0.0      99.7
 5 C  s               0.0      99.4       0.0       0.0       0.0       0.0
 6 O  s              99.9       0.0       0.0       0.0       0.0       0.0
 6 O  dyz             0.0       0.2       0.0       0.0       0.0       0.0

                      6         7         8         9        10        11   
                  -0.98628  -0.76372  -0.68993  -0.63644  -0.59208  -0.51534
                   2.00000   2.00000   2.00000   2.00000   2.00000   2.00000
                  --------  --------  --------  --------  --------  --------
 0 C  s               0.0       7.3      23.4       0.1      14.2       2.3
 0 C  pz              0.0       1.3       0.7       0.2       3.5       5.8
 0 C  px              0.1       0.4       0.0       0.0       0.7       0.0
 0 C  py              0.0       0.6       0.0       0.1       0.5       0.6
 1 C  s               0.1      17.8      10.9       0.6       8.3       7.1
 1 C  pz              0.0       0.6       1.7       0.5       5.8       2.3
 1 C  px              0.2       0.6       2.3       0.4       1.3       2.4
 1 C  py              0.0       0.9       2.8       0.1       1.8       1.3
 1 C  dz2             0.0       0.0       0.1       0.0       0.1       0.0
 1 C  dxy             0.0       0.1       0.0       0.0       0.0       0.1
 2 C  s               0.7      24.2       4.4       0.2       3.3       8.1
 2 C  pz              0.2       0.3       0.5       3.8       2.8       1.5
 2 C  px              0.9       0.4       3.2       4.8       4.1       1.9
 2 C  py              0.3       0.2       3.5       5.3       1.4       0.8
 2 C  dyz             0.0       0.0       0.0       0.1       0.0       0.1
 2 C  dx2y2           0.0       0.0       0.0       0.1       0.0       0.0
 2 C  dxy             0.0       0.0       0.1       0.0       0.1       0.0
 3 H  s               0.0       3.3       1.0       0.1       1.4       5.3
 3 H  pz              0.0       0.2       0.1       0.0       0.1       0.3
 4 C  s               0.1      10.7       7.9      22.7       2.1       2.4
 4 C  pz              0.0       1.4       0.2       0.4       1.1       3.5
 4 C  px              0.1       0.1       0.4       0.4       0.1       0.5
 4 C  py              0.1       1.5       0.1       0.4       0.3       1.4
 5 C  s               9.4       4.4       5.2      14.8       4.9       0.4
 5 C  pz              5.5       0.5       0.1       1.5       0.1       2.7
 5 C  px              0.1       3.6       0.2       0.2       2.4       7.0
 5 C  py              3.1       1.1       1.2       0.2       0.4       0.6
 5 C  dz2             0.2       0.0       0.0       0.0       0.0       0.1
 5 C  dyz             0.6       0.0       0.0       0.0       0.0       0.0
 6 O  s              61.2       1.7       0.6       1.9       0.5       0.0
 6 O  pz              1.8       0.4       0.7       3.7       1.7       2.2
 6 O  px              0.5       0.0       0.0       0.1       0.2       2.1
 6 O  py              0.0       0.7       1.6       5.3       5.4      12.0
 6 O  dz2             0.0       0.0       0.1       0.6       0.1       0.1
 6 O  dyz             0.1       0.3       0.3       0.9       0.4       0.1
 6 O  dxy             0.0       0.1       0.1       0.0       0.0       0.0
 7 H  s               0.0       0.9       4.6       0.0       4.8       0.9
 7 H  px              0.0       0.0       0.1       0.0       0.1       0.0
 7 H  py              0.0       0.0       0.3       0.0       0.2       0.0
 8 H  s               0.0       0.9       4.2       0.1       4.5       2.8
 8 H  pz              0.0       0.0       0.2       0.0       0.1       0.0
 8 H  px              0.0       0.0       0.2       0.0       0.2       0.1
 9 H  s               0.0       1.0       4.1       0.1       4.9       1.3
 9 H  px              0.0       0.0       0.1       0.0       0.1       0.0
 9 H  py              0.0       0.0       0.2       0.0       0.2       0.1
10 H  s               0.0       2.3       2.1       0.1       3.0       4.7
10 H  px              0.0       0.1       0.1       0.0       0.2       0.2
11 H  s               0.0       2.3       2.0       0.4       2.8       3.8
11 H  py              0.0       0.1       0.1       0.0       0.2       0.1
12 H  s               0.0       1.4       1.3       5.4       1.1       1.7
12 H  pz              0.0       0.1       0.1       0.3       0.0       0.1
13 H  s               0.0       1.4       1.2       6.0       0.5       1.7
13 H  px              0.0       0.1       0.1       0.5       0.0       0.1
14 H  s               0.0       1.4       1.7       5.3       0.9       1.2
14 H  px              0.0       0.0       0.1       0.2       0.0       0.0
14 H  py              0.0       0.1       0.1       0.3       0.0       0.0
15 H  s               0.7       0.6       1.3       4.0       2.9       0.9
15 H  px              0.0       0.0       0.1       0.1       0.1       0.0
15 H  py              0.0       0.0       0.1       0.2       0.2       0.1
16 H  s               0.7       0.6       0.9       4.4       1.2       0.1
16 H  pz              0.0       0.0       0.0       0.2       0.1       0.0
16 H  py              0.0       0.0       0.0       0.1       0.0       0.0
17 H  s              10.4       0.5       0.6       1.9       1.6       3.7
17 H  px              0.4       0.0       0.0       0.1       0.1       0.0
17 H  py              1.9       0.1       0.1       0.2       0.1       0.1

                     12        13        14        15        16        17   
                  -0.46168  -0.43701  -0.41653  -0.39031  -0.37228  -0.35237
                   2.00000   2.00000   2.00000   2.00000   2.00000   2.00000
                  --------  --------  --------  --------  --------  --------
 0 C  s               0.1       0.2       0.0       0.1       0.0       0.2
 0 C  pz              0.4       0.2       2.5       0.8       3.2      11.9
 0 C  px              0.2       7.9       0.3       0.1      21.3       5.1
 0 C  py              0.6       0.1       9.0      12.7       0.2       0.5
 0 C  dyz             0.0       0.0       0.0       0.0       0.0       0.1
 1 C  s               0.2       0.1       0.2       0.4       0.1       0.2
 1 C  pz              0.7       3.0       1.9       2.4       0.4      12.3
 1 C  px              0.2       9.3       0.1       5.4       8.6       1.1
 1 C  py              4.1       1.3      13.2       1.8       0.2       1.1
 1 C  dx2y2           0.0       0.0       0.0       0.0       0.1       0.0
 2 C  s               2.5       0.1       0.0       0.2       0.1       0.1
 2 C  pz              0.4      10.0       0.0       6.0       1.0       8.4
 2 C  px              2.0       0.6       8.4       0.6       2.9       0.8
 2 C  py              0.8      11.6       1.0       0.2       0.1       4.2
 2 C  dx2y2           0.0       0.0       0.0       0.2       0.0       0.0
 3 H  s               0.7       6.4       0.0       3.0       0.2       1.1
 3 H  pz              0.1       0.2       0.0       0.1       0.0       0.0
 3 H  py              0.0       0.0       0.0       0.0       0.0       0.2
 4 C  s               1.4       0.0       0.0       0.1       0.0       0.2
 4 C  pz              2.8       4.9       0.0       2.0       0.0      21.5
 4 C  px              0.1       0.3      14.0       1.1       4.0       0.1
 4 C  py              3.9       4.2       1.5       7.6       0.0       0.1
 4 C  dyz             0.1       0.0       0.0       0.0       0.0       0.3
 5 C  s               2.1       0.1       0.1       0.7       0.4       0.1
 5 C  pz             19.7       1.5       1.9       1.3       0.8       0.3
 5 C  px              0.2       8.5       1.3       1.0       8.5       1.3
 5 C  py              2.2       2.2      11.1      12.3       2.9       0.0
 5 C  dz2             0.1       0.0       0.0       0.2       0.0       0.1
 5 C  dyz             0.2       0.0       0.0       0.2       0.1       0.0
 6 O  s               2.0       1.1       0.4       0.1       1.1       0.9
 6 O  pz              1.3       1.3       8.0       8.3       8.4       5.7
 6 O  px              1.2       7.2       0.2       0.0       9.3       0.3
 6 O  py             24.1       0.7       0.2       5.2       0.0       2.1
 6 O  dz2             0.5       0.0       0.6       0.2       0.0       0.0
 6 O  dxz             0.0       0.4       0.0       0.1       0.4       0.0
 6 O  dyz             0.0       0.0       0.0       0.3       0.1       0.0
 6 O  dx2y2           0.0       0.2       0.1       0.4       0.0       0.0
 6 O  dxy             0.2       0.2       0.0       0.0       0.3       0.1
 7 H  s               0.0       1.5       2.0       3.4       2.6       0.0
 7 H  py              0.0       0.1       0.0       0.0       0.2       0.0
 8 H  s               0.0       1.0       0.0       1.2       8.8       0.1
 8 H  pz              0.0       0.0       0.0       0.0       0.1       0.1
 9 H  s               0.3       1.0       3.3       1.2       1.9       5.5
 9 H  pz              0.0       0.0       0.0       0.1       0.1       0.0
 9 H  py              0.0       0.0       0.0       0.0       0.1       0.1
10 H  s               0.0       3.9       0.0       1.7       2.6       0.7
10 H  pz              0.0       0.0       0.0       0.1       0.0       0.0
11 H  s               2.1       0.4       4.8       1.9       0.9       0.8
11 H  py              0.0       0.0       0.0       0.0       0.0       0.1
12 H  s               0.9       2.8       0.0       1.9       0.0       9.6
13 H  s               1.2       0.6       3.3       1.8       1.5       0.2
13 H  pz              0.0       0.0       0.0       0.0       0.0       0.2
14 H  s               1.9       0.6       3.5       1.3       0.5       0.0
14 H  pz              0.0       0.0       0.0       0.0       0.0       0.2
14 H  py              0.0       0.0       0.1       0.0       0.0       0.0
15 H  s               0.1       2.7       1.3       7.0       4.1       0.5
15 H  pz              0.1       0.0       0.0       0.0       0.0       0.0
15 H  px              0.0       0.0       0.1       0.1       0.0       0.0
16 H  s              11.3       0.4       3.9       0.0       0.1       0.0
16 H  pz              0.2       0.0       0.2       0.0       0.0       0.0
16 H  py              0.1       0.0       0.0       0.1       0.0       0.0
17 H  s               5.6       0.0       0.0       1.4       0.2       0.6
17 H  pz              0.0       0.0       0.1       0.2       0.1       0.1
17 H  px              0.1       0.1       0.0       0.0       0.0       0.0

                     18        19        20        21        22        23   
                  -0.33993  -0.32669  -0.31713  -0.29416  -0.28212  -0.27299
                   2.00000   2.00000   2.00000   2.00000   2.00000   2.00000
                  --------  --------  --------  --------  --------  --------
 0 C  s               0.1       0.0       0.3       0.2       0.1       0.1
 0 C  pz              4.7       0.0       7.7       7.2       2.0       2.8
 0 C  px              5.6       0.6       3.6       7.4       1.8       1.0
 0 C  py             14.4       3.6       5.4       1.5       7.2       0.2
 0 C  dz2             0.1       0.0       0.0       0.0       0.1       0.1
 0 C  dxz             0.0       0.0       0.4       0.1       0.0       0.1
 0 C  dyz             0.0       0.0       0.0       0.3       0.0       0.0
 0 C  dxy             0.3       0.0       0.0       0.1       0.1       0.1
 1 C  s               0.4       0.0       0.2       0.1       0.2       0.3
 1 C  pz              0.1       0.0      10.7       6.8       0.6       4.5
 1 C  px              0.2       0.1       4.4       9.5       1.6       5.4
 1 C  py              0.7       1.1       2.0       3.6      16.3       2.7
 1 C  dz2             0.1       0.0       0.0       0.0       0.2       0.0
 1 C  dxz             0.0       0.0       0.3       0.0       0.2       0.1
 1 C  dyz             0.0       0.0       0.0       0.6       0.0       0.1
 1 C  dxy             0.1       0.0       0.1       0.1       0.1       0.3
 2 C  s               0.4       0.4       0.4       0.1       0.2       0.1
 2 C  pz              1.0       0.3       0.0       5.4       6.0       6.7
 2 C  px              0.1       4.4       0.4       0.9       2.9       2.5
 2 C  py              0.1       1.8       1.4       0.4      13.5       4.9
 2 C  dz2             0.0       0.2       0.0       0.0       0.4       0.0
 2 C  dyz             0.0       0.0       0.0       0.3       0.3       0.2
 2 C  dx2y2           0.0       0.1       0.1       0.1       0.0       0.0
 2 C  dxy             0.1       0.1       0.0       0.0       0.1       0.4
 3 H  s               0.1       0.4       0.0       2.2      11.9       1.6
 3 H  pz              0.0       0.0       0.0       0.0       0.1       0.0
 3 H  py              0.0       0.0       0.0       0.0       0.0       0.1
 4 C  s               0.1       0.2       0.0       0.2       0.0       0.4
 4 C  pz              0.6       1.3       0.0       5.2       2.2       8.2
 4 C  px             13.5      19.4       1.0       0.2       1.1       0.1
 4 C  py             14.1       9.2       1.7       2.0       4.5       2.9
 4 C  dz2             0.1       0.3       0.0       0.0       0.3       0.0
 4 C  dx2y2           0.0       0.2       0.0       0.0       0.0       0.0
 4 C  dxy             0.3       0.1       0.0       0.0       0.1       0.1
 5 C  s               0.1       0.6       0.3       0.1       0.2       0.1
 5 C  pz              0.3       0.7       2.7       1.3       0.7       4.3
 5 C  px              0.0       5.0       0.5       2.0       0.1       2.4
 5 C  py              0.4       4.6       1.9       0.7       0.1       4.2
 5 C  dz2             0.0       0.0       0.0       0.2       0.0       0.3
 5 C  dyz             0.0       0.0       0.0       0.0       0.2       0.2
 5 C  dx2y2           0.0       0.0       0.1       0.0       0.1       0.0
 5 C  dxy             0.0       0.1       0.2       0.0       0.1       0.3
 6 O  s               0.2       0.0       2.2       0.5       0.1       1.1
 6 O  pz              1.8       3.6       5.7       4.6       4.9      10.2
 6 O  px              0.6      10.9      15.4       1.8       0.1       0.3
 6 O  py              0.1       0.9       0.6       3.5       0.0       3.2
 6 O  dz2             0.0       0.1       0.4       0.2       0.0       0.8
 6 O  dxz             0.0       0.3       0.2       0.0       0.0       0.0
 6 O  dyz             0.0       0.2       0.1       0.0       0.1       0.1
 6 O  dx2y2           0.0       0.0       0.2       0.2       0.0       0.4
 6 O  dxy             0.1       0.0       0.2       0.1       0.0       0.3
 7 H  s              12.2       0.9       0.0       0.1       4.4       1.6
 7 H  py              0.1       0.0       0.0       0.0       0.0       0.0
 8 H  s               3.1       0.5       8.7       0.9       0.1       2.1
 8 H  pz              0.0       0.0       0.0       0.1       0.0       0.0
 8 H  py              0.2       0.0       0.0       0.0       0.1       0.0
 9 H  s               2.4       2.0       1.6       8.7       0.6       0.1
 9 H  pz              0.0       0.0       0.2       0.0       0.0       0.0
 9 H  px              0.2       0.0       0.0       0.0       0.0       0.0
 9 H  py              0.0       0.0       0.0       0.1       0.1       0.0
10 H  s               0.6       0.2       9.4       2.1       1.1       3.2
10 H  pz              0.0       0.0       0.0       0.2       0.0       0.0
10 H  px              0.0       0.0       0.1       0.0       0.1       0.0
10 H  py              0.0       0.0       0.0       0.0       0.1       0.1
11 H  s               0.1       0.4       0.1      12.7       2.4       1.4
11 H  pz              0.0       0.0       0.1       0.0       0.1       0.0
11 H  py              0.0       0.0       0.0       0.1       0.0       0.0
12 H  s               1.8       5.4       0.3       1.1       3.9       1.1
12 H  pz              0.1       0.2       0.0       0.0       0.0       0.0
12 H  px              0.1       0.1       0.0       0.0       0.0       0.0
12 H  py              0.0       0.0       0.0       0.0       0.0       0.1
13 H  s               3.3      15.4       0.2       0.1       0.0       0.0
13 H  px              0.0       0.2       0.0       0.0       0.0       0.0
13 H  py              0.2       0.0       0.0       0.0       0.0       0.0
14 H  s              14.2       0.1       1.8       0.1       4.6       0.7
14 H  pz              0.0       0.0       0.0       0.1       0.0       0.1
14 H  px              0.0       0.1       0.0       0.0       0.0       0.0
14 H  py              0.1       0.1       0.0       0.0       0.0       0.0
15 H  s               0.1       0.7       2.8       1.9       0.3       6.4
15 H  px              0.0       0.1       0.0       0.0       0.0       0.0
16 H  s               0.1       1.9       1.5       1.0       0.5       7.0
17 H  s               0.0       0.1       1.5       0.4       0.0       1.1
17 H  pz              0.0       0.1       0.1       0.1       0.1       0.1
17 H  px              0.0       0.1       0.1       0.1       0.0       0.0

                     24        25        26        27        28        29   
                  -0.23200   0.06265   0.11060   0.12085   0.13112   0.14040
                   2.00000   0.00000   0.00000   0.00000   0.00000   0.00000
                  --------  --------  --------  --------  --------  --------
 0 C  s               0.0       6.0       0.4      14.4       7.2       3.0
 0 C  pz              0.3       1.1       0.5      11.9       0.3       1.3
 0 C  px              1.2       0.6       1.6       2.7       1.2       1.8
 0 C  py              0.1       0.7       2.4       0.5       7.6       2.3
 0 C  dz2             0.0       0.1       0.3       0.2       0.3       0.0
 0 C  dxz             0.1       0.0       0.0       0.2       0.0       0.4
 0 C  dyz             0.0       0.0       0.1       0.0       0.0       0.1
 0 C  dx2y2           0.0       0.0       0.1       0.0       0.2       0.2
 0 C  dxy             0.0       0.1       0.2       0.1       0.0       0.0
 1 C  s               0.0       4.9       3.8       2.8       1.6       2.9
 1 C  pz              0.2       0.8       3.4       5.6       1.6       4.9
 1 C  px              2.2       0.1       1.0       2.4       0.1       5.5
 1 C  py              0.1       0.2       0.7       2.0       5.7       7.5
 1 C  dz2             0.0       0.1       0.2       0.4       0.0       0.0
 1 C  dxz             0.1       0.0       0.1       0.5       0.0       0.5
 1 C  dyz             0.0       0.0       0.0       0.3       0.3       0.0
 1 C  dx2y2           0.1       0.0       0.0       0.0       0.2       0.4
 1 C  dxy             0.0       0.1       0.3       0.0       0.4       1.0
 2 C  s               0.6       0.6       7.0       1.6       0.7       5.2
 2 C  pz              0.3       0.1       7.3       1.8       0.1       1.4
 2 C  px             11.2       0.4       0.4       0.1       0.3       0.8
 2 C  py              1.9       0.2       3.4       2.9       1.4       7.0
 2 C  dz2             0.1       0.0       0.2       0.3       0.1       1.1
 2 C  dxz             0.0       0.2       0.1       0.0       0.2       0.1
 2 C  dyz             0.0       0.3       0.2       0.5       0.0       0.2
 2 C  dx2y2           0.2       0.0       0.0       0.0       0.4       0.5
 2 C  dxy             0.0       0.1       0.0       0.0       0.3       0.0
 3 H  s               0.8       1.2       2.8       0.1       0.9       2.9
 3 H  pz              0.0       0.1       1.8       0.2       0.1       0.2
 3 H  px              0.1       0.1       0.1       0.0       0.2       0.0
 3 H  py              0.0       0.1       0.4       0.3       0.0       0.1
 4 C  s               0.0       4.2       4.6      10.2       1.3       4.7
 4 C  pz              0.4       0.1       1.8       3.7       1.0       0.2
 4 C  px              1.2       0.3       0.0       2.8       2.6       1.5
 4 C  py              0.5       0.0       3.0       3.9       3.3       0.7
 4 C  dz2             0.1       0.0       0.6       0.2       0.0       0.1
 4 C  dyz             0.0       0.0       0.2       0.0       0.1       0.1
 4 C  dx2y2           0.0       0.0       0.0       0.2       0.0       0.6
 4 C  dxy             0.1       0.0       0.1       0.0       0.4       0.0
 5 C  s               0.3       5.1       6.3       0.6       1.2       0.5
 5 C  pz              0.8       9.0       5.8       2.2      11.2       1.0
 5 C  px              8.0       0.6       1.3       0.2       8.0       8.5
 5 C  py              1.0       8.7       5.7       1.9       6.6       0.6
 5 C  dz2             0.5       0.1       0.1       0.0       0.7       0.2
 5 C  dxz             0.4       0.0       0.1       0.0       0.1       0.0
 5 C  dyz             0.1       1.3       0.1       0.2       0.5       0.1
 5 C  dx2y2           0.1       0.1       0.1       0.0       0.2       1.1
 5 C  dxy             0.5       0.1       0.1       0.0       0.1       0.0
 6 O  s               0.0       8.4       1.8       0.2       1.9       0.1
 6 O  pz              7.4       1.7       0.9       0.1       1.1       0.1
 6 O  px             39.5       1.8       0.3       0.3       0.6       0.4
 6 O  py              5.8       1.3       0.5       0.2       3.6       0.1
 6 O  dz2             0.3       0.5       0.3       0.7       0.3       0.5
 6 O  dxz             0.5       0.1       0.2       0.1       0.1       1.5
 6 O  dyz             0.1       1.2       1.2       0.1       0.1       1.3
 6 O  dx2y2           0.0       0.8       1.0       1.4       1.0       4.9
 6 O  dxy             0.5       1.0       0.8       0.1       0.7       0.0
 7 H  s               0.2       0.1       2.3       1.1       1.2       1.3
 7 H  pz              0.0       0.1       0.0       0.0       0.0       0.6
 7 H  px              0.0       0.0       0.0       0.3       0.1       0.5
 7 H  py              0.0       0.1       0.2       0.6       1.2       0.1
 8 H  s               0.9       1.3       0.7       0.6       0.1       2.2
 8 H  pz              0.0       0.0       0.1       0.7       0.0       0.2
 8 H  px              0.0       0.8       0.1       0.1       0.1       0.5
 8 H  py              0.0       0.1       0.2       0.0       0.3       0.1
 9 H  s               0.3       1.2       0.2       1.5       2.3       0.1
 9 H  pz              0.0       0.0       0.0       0.9       0.0       0.0
 9 H  px              0.0       0.2       0.1       0.4       0.1       0.0
 9 H  py              0.0       0.2       0.2       0.4       0.7       0.0
10 H  s               2.2       1.6       1.3       0.1       0.1       0.9
10 H  pz              0.0       0.0       0.3       0.2       0.1       0.6
10 H  px              0.0       0.4       0.3       0.0       0.0       0.9
10 H  py              0.0       0.2       0.3       0.1       0.2       0.6
11 H  s               0.6       1.3       0.8       0.2       4.0       2.1
11 H  pz              0.0       0.0       0.2       0.5       0.2       0.1
11 H  px              0.0       0.4       0.2       0.3       0.4       0.4
11 H  py              0.0       0.5       0.1       0.0       0.8       0.0
12 H  s               0.2       0.6       0.2       2.9       1.9       0.7
12 H  pz              0.0       0.2       0.0       1.5       0.3       0.5
12 H  px              0.0       0.1       0.0       0.1       0.2       0.2
12 H  py              0.0       0.1       0.3       0.2       0.2       0.0
13 H  s               1.3       1.2       1.3       0.6       0.3       2.5
13 H  pz              0.0       0.0       0.1       0.0       0.2       0.2
13 H  px              0.0       0.3       0.7       0.4       0.0       0.7
13 H  py              0.0       0.0       0.0       0.1       0.3       0.0
14 H  s               0.1       0.2       3.0       0.9       0.8       0.5
14 H  pz              0.0       0.0       0.1       0.0       0.0       0.0
14 H  px              0.0       0.1       0.8       0.1       0.0       0.5
14 H  py              0.0       0.1       0.4       0.8       0.1       0.0
15 H  s               0.7       0.9       2.3       0.1       1.9       0.0
15 H  pz              0.0       0.6       0.0       0.1       0.4       0.1
15 H  px              0.1       0.1       0.1       0.0       1.0       0.8
15 H  py              0.0       0.0       1.2       0.0       0.1       0.3
16 H  s               4.3       1.2       1.3       1.1       0.0       0.9
16 H  pz              0.0       0.0       0.8       0.4       0.3       0.0
16 H  px              0.1       0.0       0.0       0.0       0.1       0.5
16 H  py              0.0       0.9       0.0       0.3       0.1       0.1
17 H  s               0.0      16.1       2.9       0.8       1.6       0.0
17 H  pz              0.1       0.0       0.0       0.0       0.1       0.0
17 H  px              0.7       0.7       0.2       0.0       0.1       0.0
17 H  py              0.1       3.1       0.9       0.2       0.1       0.0

                     30        31        32        33        34        35   
                   0.14672   0.15244   0.16187   0.17038   0.17997   0.18633
                   0.00000   0.00000   0.00000   0.00000   0.00000   0.00000
                  --------  --------  --------  --------  --------  --------
 0 C  s               0.4       3.0       0.5       0.2       0.7       0.4
 0 C  pz              5.5       1.1       2.5       8.7       4.5       4.6
 0 C  px              1.5       1.8       4.2       1.8       0.4      15.7
 0 C  py              2.1       0.7       3.9       1.9       4.5       4.2
 0 C  dz2             0.3       0.0       0.2       0.1       0.1       0.0
 0 C  dxz             0.3       0.0       1.1       0.1       0.9       0.2
 0 C  dyz             0.5       0.0       0.1       0.3       0.0       0.2
 0 C  dx2y2           0.0       0.1       0.0       0.0       0.0       0.1
 0 C  dxy             0.0       0.2       0.4       1.0       0.1       0.8
 1 C  s               8.9       0.1       0.0       2.4       0.9       0.7
 1 C  pz              6.2       4.7       0.2       2.1       3.5       6.0
 1 C  px              2.8       1.4       7.5       0.9       1.9       0.1
 1 C  py              0.4       3.3       5.9       0.3       1.9       0.3
 1 C  dz2             0.1       0.1       0.0       0.1       0.4       0.1
 1 C  dxz             0.0       0.0       0.7       0.1       0.7       0.0
 1 C  dyz             0.0       0.3       0.7       0.1       0.1       0.0
[...]
 3 H  py              0.3       0.1       2.9       0.1       0.0       0.0
 4 C  s               0.6       0.0       0.2       0.0       0.0       0.2
 4 C  pz              0.0       0.1       1.4       0.0       0.0       0.0
 4 C  px              1.1       0.9       0.2       0.0       0.0       0.0
 4 C  py              2.6       0.0       0.1       0.0       0.0       0.0
 4 C  dz2             2.8       0.1       1.0       0.0       0.0       0.0
 4 C  dxz             0.0       0.0       0.2       0.0       0.0       0.0
 4 C  dyz             0.4       0.0       2.6       0.0       0.0       0.0
 4 C  dx2y2           1.7       0.3       0.1       0.0       0.0       0.0
 4 C  dxy             0.1       0.7       0.1       0.0       0.0       0.0
 5 C  s               0.6       0.2       0.0       1.6       0.1      33.4
 5 C  pz              0.3       3.0       0.9       6.8       0.6       0.0
 5 C  px              3.1       2.2       0.1       0.1       0.0       0.0
 5 C  py              1.8       5.8       1.1       2.6       0.4       0.0
 5 C  dz2             2.6       4.6       1.2       2.2       0.5       0.0
 5 C  dxz             1.3       1.1       0.6       0.9       0.1       0.0
 5 C  dyz             1.3       1.0       0.3       9.4       1.0       0.0
 5 C  dx2y2           1.5       0.2       0.1       0.8       0.0       0.0
 5 C  dxy             0.4      10.0       0.3       0.2       0.2       0.0
 6 O  s               0.2       0.8       0.2      24.1       6.7       0.0
 6 O  pz              0.1       0.0       0.0      15.3       0.2       0.0
 6 O  px              0.0       0.2       0.0       1.3       2.7       0.0
 6 O  py              0.0       0.1       0.2       3.1      16.8       0.0
 6 O  dz2             0.1       0.0       0.1       3.0      10.6       0.0
 6 O  dxz             0.0       0.0       0.1       2.7       0.2       0.0
 6 O  dyz             0.0       0.3       0.2      12.9       5.5       0.0
 6 O  dx2y2           0.2       0.1       0.1       5.3       6.5       0.0
 6 O  dxy             0.1       0.1       0.0       0.7      16.9       0.0
 7 H  s               0.0       0.6       1.2       0.0       0.0       0.0
 7 H  pz              0.2       0.1       0.1       0.0       0.0       0.0
 7 H  px              0.0       0.1       1.1       0.0       0.0       0.0
 7 H  py              0.0       1.1       1.7       0.0       0.0       0.0
 8 H  s               0.2       1.9       1.4       0.0       0.0       0.0
 8 H  pz              0.1       2.0       1.4       0.0       0.0       0.0
 8 H  px              0.5       1.9       1.3       0.0       0.1       0.0
 8 H  py              0.0       0.5       0.6       0.0       0.0       0.0
 9 H  s               0.7       0.7       0.0       0.0       0.0       0.0
 9 H  pz              0.2       0.6       0.1       0.0       0.0       0.0
 9 H  px              0.8       0.2       0.0       0.0       0.0       0.0
 9 H  py              1.4       1.0       0.1       0.0       0.0       0.0
10 H  s               1.2       0.1       3.0       0.0       0.0       0.0
10 H  pz              0.3       0.1       2.1       0.0       0.0       0.0
10 H  px              3.2       0.1       3.6       0.0       0.0       0.0
10 H  py              0.8       0.0       0.9       0.0       0.0       0.0
11 H  s               1.5       0.7       1.7       0.1       0.0       0.0
11 H  pz              0.7       0.4       1.6       0.1       0.0       0.0
11 H  px              1.5       0.5       0.3       0.0       0.0       0.0
11 H  py              2.6       1.4       1.5       0.0       0.0       0.0
12 H  s               0.6       0.0       1.3       0.0       0.0       0.0
12 H  pz              1.1       0.1       2.8       0.0       0.0       0.0
12 H  px              0.0       0.2       0.0       0.0       0.0       0.0
12 H  py              0.0       0.1       0.4       0.0       0.0       0.0
13 H  s               1.4       0.4       0.3       0.0       0.0       0.0
13 H  px              3.9       0.7       0.4       0.0       0.0       0.0
13 H  py              0.2       0.1       0.1       0.0       0.0       0.0
14 H  s               0.2       0.5       0.0       0.0       0.0       0.0
14 H  pz              0.0       0.1       0.0       0.0       0.0       0.0
14 H  px              0.7       0.2       0.0       0.0       0.0       0.0
14 H  py              0.1       1.2       0.0       0.0       0.0       0.0
15 H  s               0.0       7.0       0.5       0.2       0.1       0.0
15 H  pz              0.0       0.0       0.1       0.7       0.0       0.0
15 H  px              0.2       7.1       0.7       0.3       0.1       0.0
15 H  py              0.3       8.9       0.4       0.0       0.1       0.0
16 H  s               1.9       4.2       1.1       0.6       0.0       0.0
16 H  pz              4.4       6.0       1.7       0.1       0.0       0.0
16 H  px              0.1       1.9       0.2       0.1       0.0       0.0
16 H  py              1.1       1.4       0.6       1.0       0.0       0.0
17 H  s               0.0       0.1       0.0       0.6      13.5       0.0
17 H  pz              0.0       0.0       0.1       0.0       0.3       0.0
17 H  px              0.0       0.0       0.0       0.1       3.2       0.0
17 H  py              0.0       0.0       0.0       1.0      13.0       0.0

                    174       175       176       177       178   
                  21.99199  22.05836  22.11533  22.20808  43.63098
                   0.00000   0.00000   0.00000   0.00000   0.00000
                  --------  --------  --------  --------  --------
 0 C  s              13.5      36.7       0.0       2.1       0.0
 1 C  s               0.6      17.3      62.1       1.5       0.0
 2 C  s              17.4       1.5       3.9      76.5       0.0
 4 C  s              54.6      24.7       0.9      19.0       0.0
 5 C  s              13.6      19.5      32.7       0.4       0.0
 6 O  s               0.0       0.0       0.0       0.0      99.9


                      *****************************
                      * MAYER POPULATION ANALYSIS *
                      *****************************

  NA   - Mulliken gross atomic population
  ZA   - Total nuclear charge
  QA   - Mulliken gross atomic charge
  VA   - Mayer's total valence
  BVA  - Mayer's bonded valence
  FA   - Mayer's free valence

  ATOM       NA         ZA         QA         VA         BVA        FA
  0 C      6.5246     6.0000    -0.5246     3.7758     3.7758     0.0000
  1 C      6.3266     6.0000    -0.3266     3.5990     3.5990    -0.0000
  2 C      5.9447     6.0000     0.0553     3.3105     3.3105    -0.0000
  3 H      0.8376     1.0000     0.1624     0.9572     0.9572     0.0000
  4 C      6.5667     6.0000    -0.5667     3.7623     3.7623     0.0000
  5 C      6.2264     6.0000    -0.2264     3.8056     3.8056    -0.0000
  6 O      8.5177     8.0000    -0.5177     1.7738     1.7738    -0.0000
  7 H      0.8431     1.0000     0.1569     0.9585     0.9585    -0.0000
  8 H      0.8349     1.0000     0.1651     0.9603     0.9603     0.0000
  9 H      0.8408     1.0000     0.1592     0.9578     0.9578    -0.0000
 10 H      0.8418     1.0000     0.1582     0.9566     0.9566    -0.0000
 11 H      0.8443     1.0000     0.1557     0.9617     0.9617     0.0000
 12 H      0.8341     1.0000     0.1659     0.9593     0.9593    -0.0000
 13 H      0.8326     1.0000     0.1674     0.9576     0.9576     0.0000
 14 H      0.8421     1.0000     0.1579     0.9608     0.9608     0.0000
 15 H      0.8512     1.0000     0.1488     0.9555     0.9555     0.0000
 16 H      0.8487     1.0000     0.1513     0.9530     0.9530     0.0000
 17 H      0.6422     1.0000     0.3578     0.8745     0.8745     0.0000

  Mayer bond orders larger than 0.100000
B(  0-C ,  1-C ) :   0.8745 B(  0-C ,  7-H ) :   0.9680 B(  0-C ,  8-H ) :   0.9885 
B(  0-C ,  9-H ) :   0.9661 B(  1-C ,  2-C ) :   0.8621 B(  1-C , 10-H ) :   0.9639 
B(  1-C , 11-H ) :   0.9907 B(  2-C ,  3-H ) :   0.9604 B(  2-C ,  4-C ) :   0.8698 
B(  2-C ,  5-C ) :   0.9107 B(  4-C , 12-H ) :   0.9712 B(  4-C , 13-H ) :   0.9790 
B(  4-C , 14-H ) :   0.9687 B(  5-C ,  6-O ) :   0.9544 B(  5-C , 15-H ) :   0.9794 
B(  5-C , 16-H ) :   0.9737 B(  6-O , 17-H ) :   0.8629 

-------
TIMINGS
-------

Total SCF time: 0 days 0 hours 0 min 25 sec 

Total time                  ....      25.090 sec
Sum of individual times     ....      24.479 sec  ( 97.6%)

SCF preparation             ....       0.308 sec  (  1.2%)
Fock matrix formation       ....      23.080 sec  ( 92.0%)
  Startup                   ....       0.074 sec  (  0.3% of F)
  Split-RI-J                ....       3.280 sec  ( 14.2% of F)
  XC integration            ....      15.303 sec  ( 66.3% of F)
    XC Preparation          ....       0.000 sec  (  0.0% of XC)
    Basis function eval.    ....       2.761 sec  ( 18.0% of XC)
    Density eval.           ....       4.344 sec  ( 28.4% of XC)
    XC-Functional eval.     ....       2.151 sec  ( 14.1% of XC)
    XC-Potential eval.      ....       4.965 sec  ( 32.4% of XC)
  CPCM terms                ....       3.840 sec  ( 16.6% of F)
Diagonalization             ....       0.000 sec  (  0.0%)
Density matrix formation    ....       0.263 sec  (  1.0%)
Total Energy calculation    ....       0.048 sec  (  0.2%)
Population analysis         ....       0.094 sec  (  0.4%)
Orbital Transformation      ....       0.053 sec  (  0.2%)
Orbital Orthonormalization  ....       0.000 sec  (  0.0%)
DIIS solution               ....       0.585 sec  (  2.3%)
  MO trafo                  ....       0.000 sec  (  0.0 % of DIIS)
  Orb grad                  ....       0.000 sec  (  0.0 % of DIIS)
  Energy W gradient         ....       0.000 sec  (  0.0 % of DIIS)
  DIIS error                ....       0.009 sec  (  1.5 % of DIIS)
  DIIS work                 ....       0.526 sec  ( 89.8 % of DIIS)
  Form Q                    ....       0.000 sec  (  0.0 % of DIIS)
  Form QpQm                 ....       0.000 sec  (  0.0 % of DIIS)
  Exp/Cayley                ....       0.000 sec  (  0.0 % of DIIS)
  Orb update                ....       0.000 sec  (  0.0 % of DIIS)
  Wake-sleep                ....       0.023 sec  (  4.0 % of DIIS)
SOSCF solution              ....       0.048 sec  (  0.2%)
  MO trafo                  ....       0.039 sec  ( 81.1 % of SOSCF)
  Orb grad                  ....       0.001 sec  (  1.1 % of SOSCF)
  Rot update                ....       0.000 sec  (  0.1 % of SOSCF)
  Step                      ....       0.008 sec  ( 17.5 % of SOSCF)
Finished LeanSCF after  25.2 sec

Maximum memory used throughout the entire LEANSCF-calculation: 24.0 MB


-------------------------------------------------------------------------------
                          DFT DISPERSION CORRECTION                            
                                                                               
                                DFTD4 V3.4.0                                   
-------------------------------------------------------------------------------
The R2SCAN3C composite method is recognized
Using three-body term ABC
Active option DFTDOPT                   ...         5   

-------------------------   ----------------
Dispersion correction           -0.004563056
-------------------------   ----------------

------------------   -----------------
gCP correction             0.010093717
------------------   -----------------

-------------------------   --------------------
FINAL SINGLE POINT ENERGY      -272.900520023910
-------------------------   --------------------


------------------------------------------------------------------------------
                              ORCA PROPERTY CALCULATIONS
------------------------------------------------------------------------------

GBWName                                 ... sp_solv.gbw
Number of atoms                         ...     18
Number of basis functions               ...    179
Max core memory                         ...   1024 MB

Electric properties:
Dipole moment                           ... YES
Quadrupole moment                       ...  NO
Static polarizability (Dipole/Dipole)   ...  NO
Static polarizability (Dipole/Quad.)    ...  NO
Static polarizability (Quad./Quad.)     ...  NO
Static polarizability (Velocity)        ...  NO

Atomic electric properties:
Dipole moment                           ...  NO
Quadrupole moment                       ...  NO
Static polarizability                   ...  NO

Choice of electric origin               ... Center of mass
Position of electric origin             ...    -0.000023    -0.000008     0.000007

General magnetic properties:
Magnetizability                         ...  NO

EPR properties:
g-Tensor (aka g-matrix)                 ...  NO
Zero-Field splitting spin-orbit         ...  NO
Zero-field splitting spin-spin          ...  NO
Hyperfine couplings                     ...  NO (   0 nuclei)
Quadrupole couplings                    ...  NO (   0 nuclei)
Contact density                         ...  NO (   0 nuclei)

NMR properties:
Chemical shifts                         ...  NO (   0 nuclei)
Spin-rotation constants                 ...  NO (   0 nuclei)
Spin-spin couplings                     ...  NO (   0 nuclei,    0 pairs)

Choice of magnetic origin               ... GIAO
Position of magnetic origin             ...     0.000000     0.000000     0.000000

Properties with geometric perturbations:
SCF Hessian                             ...  NO
IR spectrum                             ...  NO
VCD spectrum                            ...  NO
X-ray spectroscopy properties:
SCF XES/XAS/RIXS spectra                ...  NO


-------------
DIPOLE MOMENT
-------------

Method             : SCF
Type of density    : Electron Density
Multiplicity       :   1
Irrep              :   0
Energy             :  -272.9060506847916372 Eh
Relativity type    : 
Basis              : AO
                                X                 Y                 Z
Electronic contribution:      3.615041014       0.988507573       0.187270836
Nuclear contribution   :     -4.111343319      -0.743734189       0.550296924
                        -----------------------------------------
Total Dipole Moment    :     -0.496302305       0.244773385       0.737567760
                        -----------------------------------------
Magnitude (a.u.)       :      0.922082528
Magnitude (Debye)      :      2.343747525



--------------------
Rotational spectrum 
--------------------
 
Rotational constants in cm-1:             0.134798             0.093633             0.075715 
Rotational constants in MHz :          4041.139600          2807.049048          2269.889954 

Dipole components along the rotational axes: 
x,y,z [a.u.] :    -0.544204     0.078883     0.740173 
x,y,z [Debye]:    -1.383256     0.200506     1.881370 

 

Dipole moment calculation done in   0.0 sec 

Maximum memory used throughout the entire PROP-calculation: 10.8 MB

--------------------------------
SUGGESTED CITATIONS FOR THIS RUN
--------------------------------

Below you find a list of papers that are relevant to this ORCA run
We neither can nor want to force you to cite these papers, but we appreciate if you do
You receive ORCA, which is the product of decades of hard work by many enthusiastic individuals, for free
The only thing we kindly ask in return is that you cite our papers,
We deeply appreciate it, if you show your appreciation for ORCA by not just citing the generic ORCA reference.

Please note that relegating all ORCA citations to the supporting information does *not* help us.
SI sections are not indexed - citations you put there will not count into any citation statistics
But we need these citations in order to attract the funding resources that allow us to do what we are doing

Therefore, if you are a happy ORCA user, please consider citing a few of the papers listed below in the main body of your paper

In addition to the list printed below, the program has created the file sp_solv.bibtex that contains the list in bibtex format
You can import this file easily into all common literature databanks and citation aid programs


List of essential papers. We consider these as the minimum necessary citations

  1. Neese,F.
     Software update: the ORCA program system, version 5.0
     WIRES Comput. Molec. Sci., 2022 12(1)e1606
     doi.org/10.1002/wcms.1606
  2. Grimme,S.; Hansen,A.; Ehlert,S.; Mewes,J.
     r2SCAN-3c: A 'Swiss army knife' composite electronic-structure method
     J. Chem. Phys., 2021 154 064103
     doi.org/10.1063/5.0040021

List of papers to cite with high priority. The work reported in these papers was absolutely
necessary for this run to complete.
Our perspective: the developers of density functionals and basis sets usually get cited in chemistry papers
Good! But without the algorithms to do something with them, the functionals or basis sets would not do anything.
Hence, in our opinion, the algorithm design and method developments papers are equally worthy of getting cited

  1. Neese,F.
     An improvement of the resolution of the identity approximation for the formation of the Coulomb matrix
     J. Comp. Chem., 2003 24(14)1740-1747
     doi.org/10.1002/jcc.10318
  2. Garcia-Rates,M.; Neese,F.
     Effect of the Solute Cavity on the Solvation Energy and its Derivatives within the Framework of the Gaussian Charge Scheme
     J. Comput. Chem., 2020 41 922-939
     doi.org/10.1002/jcc.26139
  3. Neese,F.
     The SHARK Integral Generation and Digestion System
     J. Comp. Chem., 2022  1-16
     doi.org/10.1002/jcc.26942
  4. Lehtola,S.; Steigemann,C.; Oliveira,M.; Marques,M.
     Recent developments in Libxc - A comprehensive library of functionals for density functional theory
     Software X, 2018 7 
     doi.org/10.1016/j.softx.2017.11.002
  5. Caldeweyher,E.; Bannwarth,C.; Grimme,S.
     Extension of the D3 dispersion coefficient model
     J. Chem. Phys., 2017 147 034112-XXXX
     doi.org/10.1063/1.4993215
  6. Caldeweyher,E.; Ehlert,S.; Hansen,A.; Neugebauer,H.; Spicher,S.; Bannwarth,C.; Grimme,S.
     A generally applicable atomic-charge dependent London dispersion correction
     J. Chem. Phys., 2019 150 154122-XXXX
     doi.org/10.1063/1.5090222
  7. Caldeweyher,E.; Mewes,J.; Ehlert,S.; Grimme,S.
     Extension and evaluation of the D4 London-dispersion model for periodic systems
     Phys. Chem. Chem. Phys., 2020 22(16)8499-8512
     doi.org/10.1039/D0CP00502A

List of suggested additional citations. These are papers that are important in the 'surrounding' of 
of this run, or papers that preceded the highly important papers. If you like your results we are grateful for a citation.

  1. Neese,F.
     The ORCA program system
     WIRES Comput. Molec. Sci., 2012 2(1)73-78
     doi.org/10.1002/wcms.81
  2. Neese,F.
     Software update: the ORCA program system, version 4.0
     WIRES Comput. Molec. Sci., 2018 8(1)1-6
     doi.org/10.1002/wcms.1327
  3. Neese,F.; Wennmohs,F.; Becker,U.; Riplinger,C.
     The ORCA quantum chemistry program package
     J. Chem. Phys., 2020 152 Art. No. L224108
     doi.org/10.1063/5.0004608

List of optional additional citations

  1. Neese,F.
     Approximate second-order SCF convergence for spin unrestricted wavefunctions
     Chem. Phys. Lett., 2000 325(1-3)93-98
     doi.org/10.1016/s0009-2614(00)00662-x

Timings for individual modules:

Sum of individual times          ...       26.718 sec (=   0.445 min)
Startup calculation              ...        1.103 sec (=   0.018 min)   4.1 %
SCF iterations                   ...       25.512 sec (=   0.425 min)  95.5 %
Property calculations            ...        0.102 sec (=   0.002 min)   0.4 %
                             ****ORCA TERMINATED NORMALLY****
TOTAL RUN TIME: 0 days 0 hours 0 minutes 27 seconds 435 msec
