      -----------------------------------------------------------      
     |                   =====================                   |     
     |                           x T B                           |     
     |                   =====================                   |     
     |                         S. Grimme                         |     
     |          Mulliken Center for Theoretical Chemistry        |     
     |                    University of Bonn                     |     
      -----------------------------------------------------------      

   * xtb version 6.7.1 (edcfbbe) compiled by 'albert@albert-system' on 2024-07-22

   xtb is free software: you can redistribute it and/or modify it under
   the terms of the GNU Lesser General Public License as published by
   the Free Software Foundation, either version 3 of the License, or
   (at your option) any later version.
   
   xtb is distributed in the hope that it will be useful,
   but WITHOUT ANY WARRANTY; without even the implied warranty of
   MERCHANTABILITY or FITNESS FOR A PARTICULAR PURPOSE.  See the
   GNU Lesser General Public License for more details.
   
   Cite this work as:
   * C. Bannwarth, E. Caldeweyher, S. Ehlert, A. Hansen, P. Pracht,
     J. Seibert, S. Spicher, S. Grimme, WIREs Comput. Mol. Sci., 2020, 11,
     e01493. DOI: 10.1002/wcms.1493
   
   for GFN2-xTB:
   * C. Bannwarth, S. Ehlert and S. Grimme., J. Chem. Theory Comput., 2019,
     15, 1652-1671. DOI: 10.1021/acs.jctc.8b01176
   for GFN1-xTB:
   * S. Grimme, C. Bannwarth, P. Shushkov, J. Chem. Theory Comput., 2017,
     13, 1989-2009. DOI: 10.1021/acs.jctc.7b00118
   for GFN0-xTB:
   * P. Pracht, E. Caldeweyher, S. Ehlert, S. Grimme, ChemRxiv, 2019, preprint.
     DOI: 10.26434/chemrxiv.8326202.v1
   for GFN-FF:
   * S. Spicher and S. Grimme, Angew. Chem. Int. Ed., 2020, 59, 15665-15673.
     DOI: 10.1002/anie.202004239
   
   for ALPB and GBSA implicit solvation:
   * S. Ehlert, M. Stahn, S. Spicher, S. Grimme, J. Chem. Theory Comput.,
     2021, 17, 4250-4261. DOI: 10.1021/acs.jctc.1c00471
   
   for ddCOSMO and CPCM-X implicit solvation:
   * M. Stahn, S. Ehlert, S. Grimme, J. Phys. Chem. A,
     2023, XX, XXXX-XXXX. DOI: 10.1021/acs.jpca.3c04382
   
   for DFT-D4:
   * E. Caldeweyher, C. Bannwarth and S. Grimme, J. Chem. Phys., 2017,
     147, 034112. DOI: 10.1063/1.4993215
   * E. Caldeweyher, S. Ehlert, A. Hansen, H. Neugebauer, S. Spicher,
     C. Bannwarth and S. Grimme, J. Chem. Phys., 2019, 150, 154122.
     DOI: 10.1063/1.5090222
   * E. Caldeweyher, J.-M. Mewes, S. Ehlert and S. Grimme, Phys. Chem. Chem. Phys.
     2020, 22, 8499-8512. DOI: 10.1039/D0CP00502A
   
   for sTDA-xTB:
   * S. Grimme and C. Bannwarth, J. Chem. Phys., 2016, 145, 054103.
     DOI: 10.1063/1.4959605
   
   in the mass-spec context:
   * V. Asgeirsson, C. Bauer and S. Grimme, Chem. Sci., 2017, 8, 4879.
     DOI: 10.1039/c7sc00601b
   * J. Koopman and S. Grimme, ACS Omega 2019, 4, 12, 15120-15133.
     DOI: 10.1021/acsomega.9b02011
   
   for metadynamics refer to:
   * S. Grimme, J. Chem. Theory Comput., 2019, 155, 2847-2862
     DOI: 10.1021/acs.jctc.9b00143
   
   for SPH calculations refer to:
   * S. Spicher and S. Grimme, J. Chem. Theory Comput., 2021, 17, 1701-1714
     DOI: 10.1021/acs.jctc.0c01306
   
   for ONIOM refer to:
   * C. Plett, A. Katbashev, S. Ehlert, S. Grimme, M. Bursch,
     Phys. Chem. Chem. Phys., 2023, 25, 17860-17868. DOI: 10.1039/D3CP02178E
   
   for DIPRO refer to:
   * J. Kohn, N. Gildemeister, S. Grimme, D. Fazzi, A. Hansen,
     J. Chem. Phys., 2023, just accepted.
   
   for PTB refer to:
   * S. Grimme, M. Mueller, A. Hansen, J. Chem. Phys., 2023, 158, 124111.
     DOI: 10.1063/5.0137838
   
   with help from (in alphabetical order)
   P. Atkinson, C. Bannwarth, F. Bohle, G. Brandenburg, E. Caldeweyher
   M. Checinski, S. Dohm, S. Ehlert, S. Ehrlich, I. Gerasimov, C. Hölzer
   A. Katbashev, J. Kohn, J. Koopman, C. Lavigne, S. Lehtola, F. März, M. Müller,
   F. Musil, H. Neugebauer, J. Pisarek, C. Plett, P. Pracht, F. Pultar,
   J. Seibert, P. Shushkov, S. Spicher, M. Stahn, M. Steiner, T. Strunk,
   J. Stückrath, T. Rose, and J. Unsleber
   
 * started run on 2025/04/11 at 12:17:04.176     
   ID    Z sym.   atoms
    1    6 C      1-5
    2    8 O      6
    3    1 H      7-18

           -------------------------------------------------
          |                Calculation Setup                |
           -------------------------------------------------

          program call               : /srv/scratch/z5358697/.xtb/bin/xtb xtb_opt.coord --opt normal --orca -I xtb_opt-xcontrol-inp
          hostname                   : k071
          coordinate file            : xtb_opt.coord
          omp threads                :                    16

           -------------------------------------------------
          |                   Orca driver                   |
           -------------------------------------------------
orca executable           : /apps/z_install_tree/linux-rocky8-ivybridge/gcc-12.2.0/orca-6.0.0-srtngmq3qlimg2qxbl6avaaiffipurdx/bin/orca
orca input file           : xtb_opt.inp
orca input line           : 
orca parallel             : true
orca number of threads    : 16
                         * ORCA takes the control...
  ------------------------------------------------------------------------

                                 *****************
                                 * O   R   C   A *
                                 *****************

                                            #,                                       
                                            ###                                      
                                            ####                                     
                                            #####                                    
                                            ######                                   
                                           ########,                                 
                                     ,,################,,,,,                         
                               ,,#################################,,                 
                          ,,##########################################,,             
                       ,#########################################, ''#####,          
                    ,#############################################,,   '####,        
                  ,##################################################,,,,####,       
                ,###########''''           ''''###############################       
              ,#####''   ,,,,##########,,,,          '''####'''          '####       
            ,##' ,,,,###########################,,,                        '##       
           ' ,,###''''                  '''############,,,                           
         ,,##''                                '''############,,,,        ,,,,,,###''
      ,#''                                            '''#######################'''  
     '                                                          ''''####''''         
             ,#######,   #######,   ,#######,      ##                                
            ,#'     '#,  ##    ##  ,#'     '#,    #''#        ,####,   ,####,        
            ##       ##  ##   ,#'  ##            #'  '#       #'       #'  '#        
            ##       ##  #######   ##           ,######,      #####,   #    #        
            '#,     ,#'  ##    ##  '#,     ,#' ,#      #,     #,   #   #,  ,#        
             '#######'   ##     ##  '#######'  #'      '#     '####' # '####'        



                #########################################################
                #                        -***-                          #
                #          Department of theory and spectroscopy        #
                #                                                       #
                #                      Frank Neese                      #
                #                                                       #
                #     Directorship, Architecture, Infrastructure        #
                #                    SHARK, DRIVERS                     #
                #        Core code/Algorithms in most modules           #
                #                                                       #
                #        Max Planck Institute fuer Kohlenforschung      #
                #                Kaiser Wilhelm Platz 1                 #
                #                 D-45470 Muelheim/Ruhr                 #
                #                      Germany                          #
                #                                                       #
                #                  All rights reserved                  #
                #                        -***-                          #
                #########################################################


                         Program Version 6.0.0  -   RELEASE  -


 With contributions from (in alphabetic order):
   Daniel Aravena         : Magnetic Suceptibility
   Michael Atanasov       : Ab Initio Ligand Field Theory (pilot matlab implementation)
   Alexander A. Auer      : GIAO ZORA, VPT2 properties, NMR spectrum
   Ute Becker             : All parallelization in ORCA, NUMFREQ, NUMCALC
   Giovanni Bistoni       : ED, misc. LED, open-shell LED, HFLD
   Martin Brehm           : Molecular dynamics
   Dmytro Bykov           : pre 5.0 version of the SCF Hessian
   Marcos Casanova-Páez   : Triplet and SCS-CIS(D). UHF-(DLPNO)-IP/EA/STEOM-CCSD. UHF-CVS-IP/STEOM-CCSD
   Vijay G. Chilkuri      : MRCI spin determinant printing, contributions to CSF-ICE
   Pauline Colinet        : FMM embedding
   Dipayan Datta          : RHF DLPNO-CCSD density
   Achintya Kumar Dutta   : EOM-CC, STEOM-CC
   Nicolas Foglia         : Exact transition moments, OPA infrastructure, MCD improvements
   Dmitry Ganyushin       : Spin-Orbit,Spin-Spin,Magnetic field MRCI
   Miquel Garcia          : C-PCM and meta-GGA Hessian, CCSD/C-PCM, Gaussian charge scheme
   Tiago L. C. Gouveia    : GS-ROHF, GS-ROCIS
   Yang Guo               : DLPNO-NEVPT2, F12-NEVPT2, CIM, IAO-localization
   Andreas Hansen         : Spin unrestricted coupled pair/coupled cluster methods
   Ingolf Harden          : AUTO-CI MPn and infrastructure 
   Benjamin Helmich-Paris : MC-RPA, TRAH-(SCF,CASSCF), AVAS, COSX integrals, SCF dyn. polar.
   Lee Huntington         : MR-EOM, pCC
   Robert Izsak           : Overlap fitted RIJCOSX, COSX-SCS-MP3, EOM
   Riya Kayal             : Wick's Theorem for AUTO-CI, AUTO-CI UHF-CCSDT
   Emily Kempfer          : AUTO-CI, RHF CISDT and CCSDT
   Christian Kollmar      : KDIIS, OOCD, Brueckner-CCSD(T), CCSD density, CASPT2, CASPT2-K, improved NEVPT2
   Axel Koslowski         : Symmetry handling
   Simone Kossmann        : Meta GGA functionals, TD-DFT gradient, OOMP2, (MP2 Hessian; deprecated post 5.0)
   Lucas Lang             : DCDCAS
   Marvin Lechner         : AUTO-CI (C++ implementation), FIC-MRCC
   Spencer Leger          : CASSCF response
   Dagmar Lenk            : GEPOL surface, SMD, ORCA-2-JSON
   Dimitrios Liakos       : Extrapolation schemes; Compound Job, initial MDCI parallelization
   Dimitrios Manganas     : Further ROCIS development; embedding schemes. LFT, Crystal Embedding
   Dimitrios Pantazis     : SARC Basis sets
   Anastasios Papadopoulos: AUTO-CI, single reference methods and gradients
   Taras Petrenko         : pre 6.0 DFT Hessian and TD-DFT gradient, (ASA, deprecated), ECA, 1-Electron XAS/XES, NRVS
   Peter Pinski           : DLPNO-MP2, DLPNO-MP2 Gradient
   Christoph Reimann      : Effective Core Potentials
   Marius Retegan         : Local ZFS, SOC
   Christoph Riplinger    : Optimizer, TS searches, QM/MM, DLPNO-CCSD(T), (RO)-DLPNO pert. Triples
   Michael Roemelt        : Original ROCIS implementation
   Masaaki Saitow         : Open-shell DLPNO-CCSD energy and density
   Barbara Sandhoefer     : DKH picture change effects
   Kantharuban Sivalingam : CASSCF convergence/infrastructure, NEVPT2 and variants, FIC-MRCI
   Bernardo de Souza      : ESD, SOC TD-DFT
   Georgi Stoychev        : AutoAux, RI-MP2 NMR, DLPNO-MP2 response, X2C
   Van Anh Tran           : RI-MP2 g-tensors
   Willem Van den Heuvel  : Paramagnetic NMR
   Zikuan Wang            : NOTCH, Electric field optimization 
   Frank Wennmohs         : Technical directorship and infrastructure
   Hang Xu                : AUTO-CI-Response properties 


 We gratefully acknowledge several colleagues who have allowed us to
 interface, adapt or use parts of their codes:
   Stefan Grimme, W. Hujo, H. Kruse, P. Pracht,  : VdW corrections, initial TS optimization,
                  C. Bannwarth, S. Ehlert,         DFT functionals, gCP, sTDA/sTD-DF
                  L. Wittmann, M. Mueller
   Ed Valeev, F. Pavosevic, A. Kumar             : LibInt (2-el integral package), F12 methods
   Garnet Chan, S. Sharma, J. Yang, R. Olivares  : DMRG
   Ulf Ekstrom                                   : XCFun DFT Library
   Mihaly Kallay                                 : mrcc  (arbitrary order and MRCC methods)
   Frank Weinhold                                : gennbo (NPA and NBO analysis)
   Simon Mueller                                 : openCOSMO-RS
   Christopher J. Cramer and Donald G. Truhlar   : smd solvation model
   Lars Goerigk                                  : TD-DFT with DH, B97 family of functionals
   V. Asgeirsson, H. Jonsson                     : NEB implementation
   FAccTs GmbH                                   : IRC, NEB, NEB-TS, DLPNO-Multilevel, CI-OPT
                                                   MM, QMMM, 2- and 3-layer-ONIOM, Crystal-QMMM,
                                                   LR-CPCM, SF, NACMEs, symmetry and pop. for TD-DFT,
                                                   nearIR, NL-DFT gradient (VV10), updates on ESD,
                                                   ML-optimized integration grids, MBIS, APM,
                                                   GOAT, DOCKER, SOLVATOR, interface openCOSMO-RS
   S Lehtola, MJT Oliveira, MAL Marques          : LibXC Library
   Liviu Ungur et al                             : ANISO software


 Your calculation uses the libint2 library for the computation of 2-el integrals
 For citations please refer to: http://libint.valeyev.net

 Your ORCA version has been built with support for libXC version: 6.2.2
 For citations please refer to: https://libxc.gitlab.io

 This ORCA versions uses:
   CBLAS   interface :  Fast vector & matrix operations
   LAPACKE interface :  Fast linear algebra routines
   SCALAPACK package :  Parallel linear algebra routines
   Shared memory     :  Shared parallel matrices
   BLAS/LAPACK       :  OpenBLAS 0.3.27  USE64BITINT DYNAMIC_ARCH NO_AFFINITY SkylakeX SINGLE_THREADED
        Core in use  :  SkylakeX
   Copyright (c) 2011-2014, The OpenBLAS Project




***************************************
The coordinates will be read from file: xtb_opt.xyz
***************************************


Your calculation utilizes the geometrical counterpoise correction gCP
Please cite in your paper:
H.Kruse, S. Grimme J.Chem.Phys., 136, (2012), 154101 
   

Your calculation utilizes the atom-pairwise dispersion correction
based on EEQ partial charges (D4)


Your calculation utilizes the SMD solvation module
Please cite in your paper:
A.V. Marenich, C.J. Cramer, D.G. Truhlar J. Phys. Chem. B, 113, (2009), 6378 

================================================================================

----- Orbital basis set information -----
Your calculation utilizes the basis: def2-mTZVPP
   Stefan Grimme, Andreas Hansen, Sebastian Ehlert, and Jan-Michael Mewes 
   J. Chem. Phys. 154, 064103 (2021). DOI: 10.1063/5.0040021

----- AuxJ basis set information -----
Your calculation utilizes the auxiliary basis: def2/J
   F. Weigend, Phys. Chem. Chem. Phys. 8, 1057 (2006).

================================================================================
                                        WARNINGS
                       Please study these warnings very carefully!
================================================================================

WARNING: Old DensityContainer found on disk!
         Will remove this file - 
         If you want to keep old densities, please start your calculation with a different basename. 

Using LibXC functional ID 497 : Re-regularized SCAN exchange by Furness et al
[ 1]  J. W. Furness, A. D. Kaplan, J. Ning, J. P. Perdew, and J. Sun.,  J. Phys. Chem. Lett. 11, 8208-8215 (2020)
[ 2]  J. W. Furness, A. D. Kaplan, J. Ning, J. P. Perdew, and J. Sun.,  J. Phys. Chem. Lett. 11, 9248-9248 (2020)
Using LibXC functional ID 498 : Re-regularized SCAN correlation by Furness et al
[ 1]  J. W. Furness, A. D. Kaplan, J. Ning, J. P. Perdew, and J. Sun.,  J. Phys. Chem. Lett. 11, 8208-8215 (2020)
[ 2]  J. W. Furness, A. D. Kaplan, J. Ning, J. P. Perdew, and J. Sun.,  J. Phys. Chem. Lett. 11, 9248-9248 (2020)
Using LibXC functional ID 497 : Re-regularized SCAN exchange by Furness et al
[ 1]  J. W. Furness, A. D. Kaplan, J. Ning, J. P. Perdew, and J. Sun.,  J. Phys. Chem. Lett. 11, 8208-8215 (2020)
[ 2]  J. W. Furness, A. D. Kaplan, J. Ning, J. P. Perdew, and J. Sun.,  J. Phys. Chem. Lett. 11, 9248-9248 (2020)
Using LibXC functional ID 498 : Re-regularized SCAN correlation by Furness et al
[ 1]  J. W. Furness, A. D. Kaplan, J. Ning, J. P. Perdew, and J. Sun.,  J. Phys. Chem. Lett. 11, 8208-8215 (2020)
[ 2]  J. W. Furness, A. D. Kaplan, J. Ning, J. P. Perdew, and J. Sun.,  J. Phys. Chem. Lett. 11, 9248-9248 (2020)

================================================================================
                                       INPUT FILE
================================================================================
NAME = xtb_opt.inp
|  1> ! r2scan-3c def2/J RI DEFGRID2 scfconv7 ENGRAD tightSCF miniprint
|  2> %cpcm
|  3>     smd true
|  4>     smdsolvent "water"
|  5> end
|  6> * xyzfile 0 1 xtb_opt.xyz
|  7> 
|  8>                          ****END OF INPUT****
================================================================================

                     *******************************
                     * Energy+Gradient Calculation *
                     *******************************

---------------------------------
CARTESIAN COORDINATES (ANGSTROEM)
---------------------------------
  C     -2.106533    1.192807    0.339195
  C     -1.447275   -0.022025   -0.310016
  C     -0.064162   -0.341734    0.252582
  C      0.986656    0.704662   -0.084123
  C      2.350034    0.419518    0.541801
  O      0.410537   -1.603408   -0.283791
  H     -1.577242    2.119755    0.102387
  H     -3.137903    1.305070   -0.007646
  H     -2.131247    1.088306    1.429394
  H     -2.083824   -0.902921   -0.151067
  H     -1.364325    0.121275   -1.395424
  H     -0.139041   -0.430287    1.349697
  H      1.073172    0.773516   -1.177408
  H      0.622578    1.676796    0.267161
  H      3.051442    1.232949    0.334735
  H      2.265580    0.320316    1.629710
  H      2.788459   -0.504045    0.153158
  H     -0.258141   -2.268715   -0.075856

----------------------------
CARTESIAN COORDINATES (A.U.)
----------------------------
  NO LB      ZA    FRAG     MASS         X           Y           Z
   0 C     6.0000    0    12.011   -3.980770    2.254079    0.640985
   1 C     6.0000    0    12.011   -2.734954   -0.041621   -0.585846
   2 C     6.0000    0    12.011   -0.121249   -0.645784    0.477310
   3 C     6.0000    0    12.011    1.864509    1.331618   -0.158970
   4 C     6.0000    0    12.011    4.440920    0.792775    1.023856
   5 O     8.0000    0    15.999    0.775803   -3.030002   -0.536287
   6 H     1.0000    0     1.008   -2.980556    4.005757    0.193483
   7 H     1.0000    0     1.008   -5.929778    2.466225   -0.014449
   8 H     1.0000    0     1.008   -4.027473    2.056601    2.701163
   9 H     1.0000    0     1.008   -3.937857   -1.706274   -0.285475
  10 H     1.0000    0     1.008   -2.578201    0.229177   -2.636969
  11 H     1.0000    0     1.008   -0.262750   -0.813126    2.550557
  12 H     1.0000    0     1.008    2.028002    1.461734   -2.224978
  13 H     1.0000    0     1.008    1.176502    3.168686    0.504860
  14 H     1.0000    0     1.008    5.766390    2.329936    0.632557
  15 H     1.0000    0     1.008    4.281325    0.605309    3.079706
  16 H     1.0000    0     1.008    5.269424   -0.952507    0.289426
  17 H     1.0000    0     1.008   -0.487816   -4.287249   -0.143348

------------------------------------------------------------------------------
                   ___                                                        
                  /   \      - P O W E R E D   B Y -                         
                 /     \                                                     
                 |  |  |   _    _      __       _____    __    __             
                 |  |  |  | |  | |    /  \     |  _  \  |  |  /  |          
                  \  \/   | |  | |   /    \    | | | |  |  | /  /          
                 / \  \   | |__| |  /  /\  \   | |_| |  |  |/  /          
                |  |  |   |  __  | /  /__\  \  |    /   |      \           
                |  |  |   | |  | | |   __   |  |    \   |  |\   \          
                \     /   | |  | | |  |  |  |  | |\  \  |  | \   \       
                 \___/    |_|  |_| |__|  |__|  |_| \__\ |__|  \__/        
                                                                              
                      - O R C A' S   B I G   F R I E N D -                    
                                      &                                       
                       - I N T E G R A L  F E E D E R -                       
                                                                              
 v1 FN, 2020, v2 2021, v3 2022-2024                                           
------------------------------------------------------------------------------


----------------------
SHARK INTEGRAL PACKAGE
----------------------

Number of atoms                             ...     18
Number of basis functions                   ...    179
Number of shells                            ...     91
Maximum angular momentum                    ...      2
Integral batch strategy                     ... SHARK/LIBINT Hybrid
RI-J (if used) integral strategy            ... SPLIT-RIJ (Revised 2003 algorithm where possible)
Printlevel                                  ...      1
Contraction scheme used                     ... SEGMENTED contraction
Prescreening option                         ... SCHWARTZ
   Thresh                                   ... 3.000e-11
   Tcut                                     ... 1.000e-12
   Tpresel                                  ... 1.000e-12 
Coulomb Range Separation                    ... NOT USED
Exchange Range Separation                   ... NOT USED
Multipole approximations                    ... NOT USED
Finite Nucleus Model                        ... NOT USED
CABS basis                                  ... NOT available
Auxiliary Coulomb fitting basis             ... AVAILABLE
   # of basis functions in Aux-J            ...    426
   # of shells in Aux-J                     ...    150
   Maximum angular momentum in Aux-J        ...      4
Auxiliary J/K fitting basis                 ... NOT available
Auxiliary Correlation fitting basis         ... NOT available
Auxiliary 'external' fitting basis          ... NOT available

Checking pre-screening integrals            ... done (  0.0 sec) Dimension = 91
Check shell pair data                       ... done (  0.0 sec)
Shell pair information
Shell pair cut-off parameter TPreSel        ...   1.0e-12
Total number of shell pairs                 ...      4186
Shell pairs after pre-screening             ...      3912
Total number of primitive shell pairs       ...     14533
Primitive shell pairs kept                  ...     10107
          la=0 lb=0:   1375 shell pairs
          la=1 lb=0:   1512 shell pairs
          la=1 lb=1:    435 shell pairs
          la=2 lb=0:    361 shell pairs
          la=2 lb=1:    201 shell pairs
          la=2 lb=2:     28 shell pairs

Calculating one electron integrals          ... done (  0.0 sec)
Calculating RI/J V-Matrix + Cholesky decomp.... done (  0.1 sec)
Calculating Nuclear repulsion               ... done (  0.0 sec) ENN=    258.369881845110 Eh

Diagonalization of the overlap matrix:
Smallest eigenvalue                        ... 2.091e-04
Time for diagonalization                   ...    0.002 sec
Threshold for overlap eigenvalues          ... 1.000e-07
Number of eigenvalues below threshold      ... 0
Time for construction of square roots      ...    0.015 sec
Total time needed                          ...    0.031 sec

-------------------
DFT GRID GENERATION
-------------------

General Integration Accuracy     IntAcc      ... 4.388
Radial Grid Type                 RadialGrid  ... OptM3 with GC (2021)
Angular Grid (max. ang.)         AngularGrid ... 4 (Lebedev-302)
Angular grid pruning method      GridPruning ... 4 (adaptive)
Weight generation scheme         WeightScheme... mBecke (2022)
Basis function cutoff            BFCut       ... 1.0000e-11
Integration weight cutoff        WCut        ... 1.0000e-14
Partially contracted basis set               ... off
Rotationally invariant grid construction     ... off
Angular grids for H and He will be reduced by one unit
Diffuse basis detected: some atoms will have their outermost
                        angular grid increased by 1.

Total number of grid points                  ...    74887
Total number of batches                      ...     1178
Average number of points per batch           ...       63
Average number of grid points per atom       ...     4160
Initializing property integral containers    ... done (  0.0 sec)

SHARK setup successfully completed in   1.0 seconds

Maximum memory used throughout the entire STARTUP-calculation: 32.5 MB
Occupation numbers will be reassigned to an Aufbau configuration
             **** ENERGY FILE WAS UPDATED (xtb_opt.en.tmp) ****
Finished Guess after   0.3 sec
Maximum memory used throughout the entire GUESS-calculation: 12.2 MB
--------------------
CPCM SOLVATION MODEL
--------------------
CPCM parameters:
  Epsilon                                         ...      78.3550
  Refrac                                          ...       1.3328
  Rsolv                                           ...       1.3000
  Surface type                                    ... GAUSSIAN VDW
  Discretization scheme                           ... Constant charge density
    Threshold for H atoms                         ...       5.0000 (charges/Ang^2)
    Threshold for non-H atoms                     ...       5.0000 (charges/Ang^2)
  Epsilon function type                           ...         CPCM
Solvent:                                          ... WATER
SMD-CDS solvent descriptors:
  Soln                                            ...       1.3328
  Soln25                                          ...       1.3323
  Sola                                            ...       0.0000
  Solb                                            ...       0.0000
  Solg                                            ...       0.0000
  Solc                                            ...       0.0000
  Solh                                            ...       0.0000
Radii:
  Scheme                                          ... Element-dependent radii
  Radius for C  used is    3.4960 Bohr (=   1.8500 Ang.)
  Radius for O  used is    2.8724 Bohr (=   1.5200 Ang.)
  Radius for H  used is    2.2677 Bohr (=   1.2000 Ang.)
Calculating surface                               ...        done! (  0.0s)
Cavity surface points                             ...         1316
Cavity Volume                                     ...     739.4723
Cavity Surface-area                               ...     500.3099
Calculating surface distance matrix               ...        done! (  0.0s)
Performing Cholesky decomposition & store         ...        done! (  0.1s)
Overall time for CPCM initialization              ...                 0.1s

----------------------------------------D-I-I-S--------------------------------------------
Iteration    Energy (Eh)           Delta-E    RMSDP     MaxDP     DIISErr   Damp  Time(sec)
-------------------------------------------------------------------------------------------
               ***  Starting incremental Fock matrix formation  ***
                              *** Initializing SOSCF ***
---------------------------------------S-O-S-C-F--------------------------------------
Iteration    Energy (Eh)           Delta-E    RMSDP     MaxDP     MaxGrad    Time(sec)
--------------------------------------------------------------------------------------
    1    -272.9204500025464881     0.00e+00  2.58e-06  7.19e-05  5.42e-06     2.2
               *** Restarting incremental Fock matrix formation ***
    2    -272.9204499982145649     4.33e-09  4.20e-06  1.07e-04  3.32e-05     2.2
    3    -272.9204499529864165     4.52e-08  3.24e-06  8.50e-05  5.79e-05     1.7
                 **** Energy Check signals convergence ****

               *****************************************************
               *                     SUCCESS                       *
               *           SCF CONVERGED AFTER   3 CYCLES          *
               *****************************************************


SMD CDS free energy correction energy :                 3.35161     Kcal/mol
Total Energy after SMD CDS correction =              -272.915108828 Eh
             **** ENERGY FILE WAS UPDATED (xtb_opt.en.tmp) ****

----------------
TOTAL SCF ENERGY
----------------

Total Energy       :       -272.91510882839594 Eh           -7426.39766 eV

Components:
Nuclear Repulsion  :        258.36988184510955 Eh            7030.60191 eV
Electronic Energy  :       -531.27597302379866 Eh          -14456.75419 eV
One Electron Energy:       -880.76672830264636 Eh          -23966.88113 eV
Two Electron Energy:        349.49075527884770 Eh            9510.12694 eV
CPCM Dielectric    :         -0.01435877429735 Eh              -0.39072 eV
SMD CDS (Gcds)     :          0.00534112459047 Eh               0.14534 eV

Virial components:
Potential Energy   :       -544.46159106964012 Eh          -14815.55310 eV
Kinetic Energy     :        271.54648224124418 Eh            7389.15544 eV
Virial Ratio       :          2.00504011900966

DFT components:
N(Alpha)           :       25.000034097182 electrons
N(Beta)            :       25.000034097182 electrons
N(Total)           :       50.000068194364 electrons
E(X)               :      -38.550825676119 Eh       
E(C)               :       -1.560580673213 Eh       
E(XC)              :      -40.111406349333 Eh       

CPCM Solvation Model Properties:
Surface-charge          :         -0.04678495622174
Corrected charge        :          0.00000000000000
Outlying charge corr.   :          0.00017959505024 Eh               0.00489 eV
Free-energy (cav+disp)  :          0.00534112459047 Eh               0.14534 eV

---------------
SCF CONVERGENCE
---------------

  Last Energy change         ...   -4.5228e-08  Tolerance :   1.0000e-07
  Last MAX-Density change    ...    8.4955e-05  Tolerance :   1.0000e-07
  Last RMS-Density change    ...    3.2400e-06  Tolerance :   5.0000e-09
  Last DIIS Error            ...    1.1794e-04  Tolerance :   1.0000e-07
  Last Orbital Gradient      ...    5.7910e-05  Tolerance :   1.0000e-04
  Last Orbital Rotation      ...    2.1498e-05  Tolerance :   1.0000e-04


----------------
ORBITAL ENERGIES
----------------

  NO   OCC          E(Eh)            E(eV) 
   0   2.0000     -18.946708      -515.5661 
   1   2.0000     -10.073966      -274.1266 
   2   2.0000     -10.020541      -272.6728 
   3   2.0000     -10.019987      -272.6577 
   4   2.0000     -10.013727      -272.4874 
   5   2.0000     -10.011698      -272.4321 
   6   2.0000      -0.976622       -26.5752 
   7   2.0000      -0.755552       -20.5596 
   8   2.0000      -0.712422       -19.3860 
   9   2.0000      -0.632354       -17.2072 
  10   2.0000      -0.574163       -15.6238 
  11   2.0000      -0.531047       -14.4505 
  12   2.0000      -0.477779       -13.0010 
  13   2.0000      -0.414998       -11.2927 
  14   2.0000      -0.406243       -11.0544 
  15   2.0000      -0.387396       -10.5416 
  16   2.0000      -0.372497       -10.1361 
  17   2.0000      -0.358929        -9.7670 
  18   2.0000      -0.339766        -9.2455 
  19   2.0000      -0.316294        -8.6068 
  20   2.0000      -0.313694        -8.5360 
  21   2.0000      -0.305043        -8.3006 
  22   2.0000      -0.294999        -8.0273 
  23   2.0000      -0.276836        -7.5331 
  24   2.0000      -0.237902        -6.4736 
  25   0.0000       0.079066         2.1515 
  26   0.0000       0.097083         2.6418 
  27   0.0000       0.118861         3.2344 
  28   0.0000       0.131808         3.5867 
  29   0.0000       0.137411         3.7391 
  30   0.0000       0.148800         4.0490 
  31   0.0000       0.154814         4.2127 
  32   0.0000       0.163769         4.4564 
  33   0.0000       0.167216         4.5502 
  34   0.0000       0.177250         4.8232 
  35   0.0000       0.195721         5.3258 
*Only the first 10 virtual orbitals were printed.
Total SCF time: 0 days 0 hours 0 min 6 sec 
Finished LeanSCF after   6.8 sec

Maximum memory used throughout the entire LEANSCF-calculation: 23.7 MB


-------------------------------------------------------------------------------
                          DFT DISPERSION CORRECTION                            
                                                                               
                                DFTD4 V3.4.0                                   
-------------------------------------------------------------------------------
-------------------------   ----------------
Dispersion correction           -0.004227401
-------------------------   ----------------

------------------   -----------------
gCP correction             0.009444197
------------------   -----------------

-------------------------   --------------------
FINAL SINGLE POINT ENERGY      -272.909892032081
-------------------------   --------------------

------------------------------------------------------------------------------
                         ORCA SCF GRADIENT CALCULATION
------------------------------------------------------------------------------

Nuc. rep. gradient        (SHARK) ... done (  0.0 sec)
HCore & Overlap gradient  (SHARK) ... done (  0.2 sec)
Split-RIJ-J gradient      (SHARK) ... done (  0.9 sec)
XC gradient                       ... done (  4.4 sec)
CPCM gradient                     ... done (  0.6 sec)
SMD gradient                      ... done (  0.0 sec)
Dispersion correction             ... done (  0.0 sec)

-------------------
DISPERSION GRADIENT
-------------------

   1   C   :   -0.000077573    0.000043453    0.000012181
   2   C   :   -0.000057596   -0.000010044   -0.000017376
   3   C   :   -0.000003929   -0.000021017    0.000003702
   4   C   :    0.000046628    0.000023429   -0.000009113
   5   C   :    0.000090549    0.000013439    0.000018799
   6   O   :   -0.000003851   -0.000084557   -0.000009328
   7   H   :   -0.000033127    0.000025284    0.000001164
   8   H   :   -0.000032134    0.000014481    0.000000817
   9   H   :   -0.000036322    0.000016003    0.000013968
  10   H   :   -0.000025744   -0.000012244   -0.000004047
  11   H   :   -0.000022483   -0.000002624   -0.000016432
  12   H   :    0.000000283   -0.000016349    0.000006730
  13   H   :    0.000026088    0.000005050   -0.000015670
  14   H   :    0.000020559    0.000019508    0.000001092
  15   H   :    0.000033241    0.000011805    0.000003564
  16   H   :    0.000036222    0.000005265    0.000015862
  17   H   :    0.000031548    0.000000018    0.000002623
  18   H   :    0.000007640   -0.000030900   -0.000008534

Difference to translation invariance:
           :    0.0000000000    0.0000000000    0.0000000000

Difference to rotation invariance:
           :   -0.0000000000    0.0000000000   -0.0000000000

Norm of the Dispersion gradient    ...    0.0002107226
RMS gradient                       ...    0.0000286757
MAX gradient                       ...    0.0000905488
gCP correction                   ... done

------------------
CARTESIAN GRADIENT
------------------

   1   C   :   -0.000107495    0.000208679   -0.000001845
   2   C   :    0.000357964    0.000222919    0.000347436
   3   C   :   -0.000550762    0.000246426   -0.000049431
   4   C   :    0.000041896   -0.000187093   -0.000028211
   5   C   :    0.000291985    0.000160485    0.000231633
   6   O   :    0.000273214   -0.000513986   -0.000202927
   7   H   :   -0.000250654   -0.000337263    0.000103731
   8   H   :    0.000148647    0.000083902    0.000153493
   9   H   :    0.000011698    0.000004306   -0.000294725
  10   H   :    0.000007675   -0.000114075    0.000015987
  11   H   :   -0.000074999   -0.000020742   -0.000115944
  12   H   :    0.000051699    0.000005402    0.000122065
  13   H   :    0.000037712    0.000061575   -0.000313185
  14   H   :   -0.000115928    0.000361100   -0.000009904
  15   H   :   -0.000238528   -0.000329750    0.000163155
  16   H   :    0.000065972   -0.000015347   -0.000157219
  17   H   :    0.000029018    0.000042388    0.000034438
  18   H   :    0.000020886    0.000121072    0.000001455

Difference to translation invariance:
           :    0.0000000000    0.0000000000   -0.0000000000

Difference to rotation invariance:
           :    0.0001447718   -0.0000270475    0.0003063744

Norm of the Cartesian gradient     ...    0.0014722653
RMS gradient                       ...    0.0002003499
MAX gradient                       ...    0.0005507620

-------
TIMINGS
-------

Total SCF gradient time     ....        6.657 sec

Densities                   ....       0.000 sec  (  0.0%)
One electron gradient       ....       0.171 sec  (  2.6%)
RI-J Coulomb gradient       ....       0.936 sec  ( 14.1%)
XC gradient                 ....       4.413 sec  ( 66.3%)
CPCM gradient               ....       0.568 sec  (  8.5%)
   A-Matrix (El+Nuc)        ....       0.053 sec  (  0.8%)
   Potential                ....       0.514 sec  (  7.7%)
SMD gradient                ....       0.017 sec  (  0.3%)

Maximum memory used throughout the entire SCFGRAD-calculation: 32.3 MB

------------------------------------------------------------------------------
                              ORCA PROPERTY CALCULATIONS
------------------------------------------------------------------------------

GBWName                                 ... xtb_opt.gbw
Number of atoms                         ...     18
Number of basis functions               ...    179
Max core memory                         ...   1024 MB

Electric properties:
Dipole moment                           ... YES
Quadrupole moment                       ...  NO
Static polarizability (Dipole/Dipole)   ...  NO
Static polarizability (Dipole/Quad.)    ...  NO
Static polarizability (Quad./Quad.)     ...  NO
Static polarizability (Velocity)        ...  NO

Atomic electric properties:
Dipole moment                           ...  NO
Quadrupole moment                       ...  NO
Static polarizability                   ...  NO

Choice of electric origin               ... Center of mass
Position of electric origin             ...     0.049137     0.050927     0.146194

General magnetic properties:
Magnetizability                         ...  NO

EPR properties:
g-Tensor (aka g-matrix)                 ...  NO
Zero-Field splitting spin-orbit         ...  NO
Zero-field splitting spin-spin          ...  NO
Hyperfine couplings                     ...  NO (   0 nuclei)
Quadrupole couplings                    ...  NO (   0 nuclei)
Contact density                         ...  NO (   0 nuclei)

NMR properties:
Chemical shifts                         ...  NO (   0 nuclei)
Spin-rotation constants                 ...  NO (   0 nuclei)
Spin-spin couplings                     ...  NO (   0 nuclei,    0 pairs)

Choice of magnetic origin               ... GIAO
Position of magnetic origin             ...     0.000000     0.000000     0.000000

Properties with geometric perturbations:
SCF Hessian                             ...  NO
IR spectrum                             ...  NO
VCD spectrum                            ...  NO
X-ray spectroscopy properties:
SCF XES/XAS/RIXS spectra                ...  NO


-------------
DIPOLE MOMENT
-------------

Method             : SCF
Type of density    : Electron Density
Multiplicity       :   1
Irrep              :   0
Energy             :  -272.9151088283959439 Eh
Relativity type    : 
Basis              : AO
                                X                 Y                 Z
Electronic contribution:      0.304410702      -3.681441362      -1.001735481
Nuclear contribution   :     -1.122490750       3.924321236       1.430525201
                        -----------------------------------------
Total Dipole Moment    :     -0.818080048       0.242879874       0.428789720
                        -----------------------------------------
Magnitude (a.u.)       :      0.955042524
Magnitude (Debye)      :      2.427525177



--------------------
Rotational spectrum 
--------------------
 
Rotational constants in cm-1:             0.168562             0.075126             0.056665 
Rotational constants in MHz :          5053.360206          2252.210096          1698.779354 

Dipole components along the rotational axes: 
x,y,z [a.u.] :    -0.826549     0.205107     0.432266 
x,y,z [Debye]:    -2.100921     0.521339     1.098734 

 

Dipole moment calculation done in   0.0 sec 

Maximum memory used throughout the entire PROP-calculation: 10.7 MB

--------------------------------
SUGGESTED CITATIONS FOR THIS RUN
--------------------------------

Below you find a list of papers that are relevant to this ORCA run
We neither can nor want to force you to cite these papers, but we appreciate if you do
You receive ORCA, which is the product of decades of hard work by many enthusiastic individuals, for free
The only thing we kindly ask in return is that you cite our papers,
We deeply appreciate it, if you show your appreciation for ORCA by not just citing the generic ORCA reference.

Please note that relegating all ORCA citations to the supporting information does *not* help us.
SI sections are not indexed - citations you put there will not count into any citation statistics
But we need these citations in order to attract the funding resources that allow us to do what we are doing

Therefore, if you are a happy ORCA user, please consider citing a few of the papers listed below in the main body of your paper

In addition to the list printed below, the program has created the file xtb_opt.bibtex that contains the list in bibtex format
You can import this file easily into all common literature databanks and citation aid programs


List of essential papers. We consider these as the minimum necessary citations

  1. Neese,F.
     Software update: the ORCA program system, version 5.0
     WIRES Comput. Molec. Sci., 2022 12(1)e1606
     doi.org/10.1002/wcms.1606
  2. Grimme,S.; Hansen,A.; Ehlert,S.; Mewes,J.
     r2SCAN-3c: A 'Swiss army knife' composite electronic-structure method
     J. Chem. Phys., 2021 154 064103
     doi.org/10.1063/5.0040021

List of papers to cite with high priority. The work reported in these papers was absolutely
necessary for this run to complete.
Our perspective: the developers of density functionals and basis sets usually get cited in chemistry papers
Good! But without the algorithms to do something with them, the functionals or basis sets would not do anything.
Hence, in our opinion, the algorithm design and method developments papers are equally worthy of getting cited

  1. Neese,F.
     An improvement of the resolution of the identity approximation for the formation of the Coulomb matrix
     J. Comp. Chem., 2003 24(14)1740-1747
     doi.org/10.1002/jcc.10318
  2. Garcia-Rates,M.; Neese,F.
     Effect of the Solute Cavity on the Solvation Energy and its Derivatives within the Framework of the Gaussian Charge Scheme
     J. Comput. Chem., 2020 41 922-939
     doi.org/10.1002/jcc.26139
  3. Neese,F.
     The SHARK Integral Generation and Digestion System
     J. Comp. Chem., 2022  1-16
     doi.org/10.1002/jcc.26942
  4. Lehtola,S.; Steigemann,C.; Oliveira,M.; Marques,M.
     Recent developments in Libxc - A comprehensive library of functionals for density functional theory
     Software X, 2018 7 
     doi.org/10.1016/j.softx.2017.11.002
  5. Caldeweyher,E.; Bannwarth,C.; Grimme,S.
     Extension of the D3 dispersion coefficient model
     J. Chem. Phys., 2017 147 034112-XXXX
     doi.org/10.1063/1.4993215
  6. Caldeweyher,E.; Ehlert,S.; Hansen,A.; Neugebauer,H.; Spicher,S.; Bannwarth,C.; Grimme,S.
     A generally applicable atomic-charge dependent London dispersion correction
     J. Chem. Phys., 2019 150 154122-XXXX
     doi.org/10.1063/1.5090222
  7. Caldeweyher,E.; Mewes,J.; Ehlert,S.; Grimme,S.
     Extension and evaluation of the D4 London-dispersion model for periodic systems
     Phys. Chem. Chem. Phys., 2020 22(16)8499-8512
     doi.org/10.1039/D0CP00502A

List of suggested additional citations. These are papers that are important in the 'surrounding' of 
of this run, or papers that preceded the highly important papers. If you like your results we are grateful for a citation.

  1. Neese,F.
     The ORCA program system
     WIRES Comput. Molec. Sci., 2012 2(1)73-78
     doi.org/10.1002/wcms.81
  2. Neese,F.
     Software update: the ORCA program system, version 4.0
     WIRES Comput. Molec. Sci., 2018 8(1)1-6
     doi.org/10.1002/wcms.1327
  3. Neese,F.; Wennmohs,F.; Becker,U.; Riplinger,C.
     The ORCA quantum chemistry program package
     J. Chem. Phys., 2020 152 Art. No. L224108
     doi.org/10.1063/5.0004608

List of optional additional citations

  1. Neese,F.
     Approximate second-order SCF convergence for spin unrestricted wavefunctions
     Chem. Phys. Lett., 2000 325(1-3)93-98
     doi.org/10.1016/s0009-2614(00)00662-x

Timings for individual modules:

Sum of individual times          ...       15.017 sec (=   0.250 min)
Startup calculation              ...        1.040 sec (=   0.017 min)   6.9 %
SCF iterations                   ...        7.122 sec (=   0.119 min)  47.4 %
Property calculations            ...        0.104 sec (=   0.002 min)   0.7 %
SCF Gradient evaluation          ...        6.751 sec (=   0.113 min)  45.0 %
                             ****ORCA TERMINATED NORMALLY****
TOTAL RUN TIME: 0 days 0 hours 0 minutes 15 seconds 893 msec
  ------------------------------------------------------------------------
          * successful ORCA run, taking over control again...

         :::::::::::::::::::::::::::::::::::::::::::::::::::::
         ::                  ORCA SUMMARY                   ::
         :::::::::::::::::::::::::::::::::::::::::::::::::::::
         :: total energy            -272.909892032081 Eh    ::
         :: gradient norm              0.001472265309 Eh/a0 ::
         :: HOMO-LUMO gap              0.000000000000 eV    ::
         :::::::::::::::::::::::::::::::::::::::::::::::::::::

      ----------------------------------------------------------- 
     |                       L-ANC optimizer                     |
      ----------------------------------------------------------- 
          low memory version by Sebastian Ehlert

          ...................................................
          :                      SETUP                      :
          :.................................................:
          :   energy convergence        0.5000000E-05 Eh    :
          :   grad. convergence         0.1000000E-02 Eh/a0 :
          :   optimization log               true           :
          :   writing optlog all                1     steps :
          :   Hessian reset                     8     steps :
          :   maximium step len.        1.0000000     a0    :
          :   LBFGS images                      8           :
          ...................................................
 * calculating model hessian...
Using Lindh-Hessian (1995)
 Shifting diagonal of input Hessian by   1.000000000000000E-002
 Lowest  eigenvalues of input Hessian
    0.000000    0.000000    0.000000    0.000000    0.000000    0.000000
    0.013176    0.013859    0.015978    0.018981    0.020527    0.022254
    0.028745    0.032688    0.038583    0.052061    0.055423    0.062225
 Highest eigenvalues
    1.177827    1.185575    1.209084    1.233093    1.324656    1.403625
 

........................................................................
.............................. CYCLE    1 ..............................
........................................................................
                         * ORCA takes the control...
  ------------------------------------------------------------------------

                                 *****************
                                 * O   R   C   A *
                                 *****************

                                            #,                                       
                                            ###                                      
                                            ####                                     
                                            #####                                    
                                            ######                                   
                                           ########,                                 
                                     ,,################,,,,,                         
                               ,,#################################,,                 
                          ,,##########################################,,             
                       ,#########################################, ''#####,          
                    ,#############################################,,   '####,        
                  ,##################################################,,,,####,       
                ,###########''''           ''''###############################       
              ,#####''   ,,,,##########,,,,          '''####'''          '####       
            ,##' ,,,,###########################,,,                        '##       
           ' ,,###''''                  '''############,,,                           
         ,,##''                                '''############,,,,        ,,,,,,###''
      ,#''                                            '''#######################'''  
     '                                                          ''''####''''         
             ,#######,   #######,   ,#######,      ##                                
            ,#'     '#,  ##    ##  ,#'     '#,    #''#        ,####,   ,####,        
            ##       ##  ##   ,#'  ##            #'  '#       #'       #'  '#        
            ##       ##  #######   ##           ,######,      #####,   #    #        
            '#,     ,#'  ##    ##  '#,     ,#' ,#      #,     #,   #   #,  ,#        
             '#######'   ##     ##  '#######'  #'      '#     '####' # '####'        



                #########################################################
                #                        -***-                          #
                #          Department of theory and spectroscopy        #
                #                                                       #
                #                      Frank Neese                      #
                #                                                       #
                #     Directorship, Architecture, Infrastructure        #
                #                    SHARK, DRIVERS                     #
                #        Core code/Algorithms in most modules           #
                #                                                       #
                #        Max Planck Institute fuer Kohlenforschung      #
                #                Kaiser Wilhelm Platz 1                 #
                #                 D-45470 Muelheim/Ruhr                 #
                #                      Germany                          #
                #                                                       #
                #                  All rights reserved                  #
                #                        -***-                          #
                #########################################################


                         Program Version 6.0.0  -   RELEASE  -


 With contributions from (in alphabetic order):
   Daniel Aravena         : Magnetic Suceptibility
   Michael Atanasov       : Ab Initio Ligand Field Theory (pilot matlab implementation)
   Alexander A. Auer      : GIAO ZORA, VPT2 properties, NMR spectrum
   Ute Becker             : All parallelization in ORCA, NUMFREQ, NUMCALC
   Giovanni Bistoni       : ED, misc. LED, open-shell LED, HFLD
   Martin Brehm           : Molecular dynamics
   Dmytro Bykov           : pre 5.0 version of the SCF Hessian
   Marcos Casanova-Páez   : Triplet and SCS-CIS(D). UHF-(DLPNO)-IP/EA/STEOM-CCSD. UHF-CVS-IP/STEOM-CCSD
   Vijay G. Chilkuri      : MRCI spin determinant printing, contributions to CSF-ICE
   Pauline Colinet        : FMM embedding
   Dipayan Datta          : RHF DLPNO-CCSD density
   Achintya Kumar Dutta   : EOM-CC, STEOM-CC
   Nicolas Foglia         : Exact transition moments, OPA infrastructure, MCD improvements
   Dmitry Ganyushin       : Spin-Orbit,Spin-Spin,Magnetic field MRCI
   Miquel Garcia          : C-PCM and meta-GGA Hessian, CCSD/C-PCM, Gaussian charge scheme
   Tiago L. C. Gouveia    : GS-ROHF, GS-ROCIS
   Yang Guo               : DLPNO-NEVPT2, F12-NEVPT2, CIM, IAO-localization
   Andreas Hansen         : Spin unrestricted coupled pair/coupled cluster methods
   Ingolf Harden          : AUTO-CI MPn and infrastructure 
   Benjamin Helmich-Paris : MC-RPA, TRAH-(SCF,CASSCF), AVAS, COSX integrals, SCF dyn. polar.
   Lee Huntington         : MR-EOM, pCC
   Robert Izsak           : Overlap fitted RIJCOSX, COSX-SCS-MP3, EOM
   Riya Kayal             : Wick's Theorem for AUTO-CI, AUTO-CI UHF-CCSDT
   Emily Kempfer          : AUTO-CI, RHF CISDT and CCSDT
   Christian Kollmar      : KDIIS, OOCD, Brueckner-CCSD(T), CCSD density, CASPT2, CASPT2-K, improved NEVPT2
   Axel Koslowski         : Symmetry handling
   Simone Kossmann        : Meta GGA functionals, TD-DFT gradient, OOMP2, (MP2 Hessian; deprecated post 5.0)
   Lucas Lang             : DCDCAS
   Marvin Lechner         : AUTO-CI (C++ implementation), FIC-MRCC
   Spencer Leger          : CASSCF response
   Dagmar Lenk            : GEPOL surface, SMD, ORCA-2-JSON
   Dimitrios Liakos       : Extrapolation schemes; Compound Job, initial MDCI parallelization
   Dimitrios Manganas     : Further ROCIS development; embedding schemes. LFT, Crystal Embedding
   Dimitrios Pantazis     : SARC Basis sets
   Anastasios Papadopoulos: AUTO-CI, single reference methods and gradients
   Taras Petrenko         : pre 6.0 DFT Hessian and TD-DFT gradient, (ASA, deprecated), ECA, 1-Electron XAS/XES, NRVS
   Peter Pinski           : DLPNO-MP2, DLPNO-MP2 Gradient
   Christoph Reimann      : Effective Core Potentials
   Marius Retegan         : Local ZFS, SOC
   Christoph Riplinger    : Optimizer, TS searches, QM/MM, DLPNO-CCSD(T), (RO)-DLPNO pert. Triples
   Michael Roemelt        : Original ROCIS implementation
   Masaaki Saitow         : Open-shell DLPNO-CCSD energy and density
   Barbara Sandhoefer     : DKH picture change effects
   Kantharuban Sivalingam : CASSCF convergence/infrastructure, NEVPT2 and variants, FIC-MRCI
   Bernardo de Souza      : ESD, SOC TD-DFT
   Georgi Stoychev        : AutoAux, RI-MP2 NMR, DLPNO-MP2 response, X2C
   Van Anh Tran           : RI-MP2 g-tensors
   Willem Van den Heuvel  : Paramagnetic NMR
   Zikuan Wang            : NOTCH, Electric field optimization 
   Frank Wennmohs         : Technical directorship and infrastructure
   Hang Xu                : AUTO-CI-Response properties 


 We gratefully acknowledge several colleagues who have allowed us to
 interface, adapt or use parts of their codes:
   Stefan Grimme, W. Hujo, H. Kruse, P. Pracht,  : VdW corrections, initial TS optimization,
                  C. Bannwarth, S. Ehlert,         DFT functionals, gCP, sTDA/sTD-DF
                  L. Wittmann, M. Mueller
   Ed Valeev, F. Pavosevic, A. Kumar             : LibInt (2-el integral package), F12 methods
   Garnet Chan, S. Sharma, J. Yang, R. Olivares  : DMRG
   Ulf Ekstrom                                   : XCFun DFT Library
   Mihaly Kallay                                 : mrcc  (arbitrary order and MRCC methods)
   Frank Weinhold                                : gennbo (NPA and NBO analysis)
   Simon Mueller                                 : openCOSMO-RS
   Christopher J. Cramer and Donald G. Truhlar   : smd solvation model
   Lars Goerigk                                  : TD-DFT with DH, B97 family of functionals
   V. Asgeirsson, H. Jonsson                     : NEB implementation
   FAccTs GmbH                                   : IRC, NEB, NEB-TS, DLPNO-Multilevel, CI-OPT
                                                   MM, QMMM, 2- and 3-layer-ONIOM, Crystal-QMMM,
                                                   LR-CPCM, SF, NACMEs, symmetry and pop. for TD-DFT,
                                                   nearIR, NL-DFT gradient (VV10), updates on ESD,
                                                   ML-optimized integration grids, MBIS, APM,
                                                   GOAT, DOCKER, SOLVATOR, interface openCOSMO-RS
   S Lehtola, MJT Oliveira, MAL Marques          : LibXC Library
   Liviu Ungur et al                             : ANISO software


 Your calculation uses the libint2 library for the computation of 2-el integrals
 For citations please refer to: http://libint.valeyev.net

 Your ORCA version has been built with support for libXC version: 6.2.2
 For citations please refer to: https://libxc.gitlab.io

 This ORCA versions uses:
   CBLAS   interface :  Fast vector & matrix operations
   LAPACKE interface :  Fast linear algebra routines
   SCALAPACK package :  Parallel linear algebra routines
   Shared memory     :  Shared parallel matrices
   BLAS/LAPACK       :  OpenBLAS 0.3.27  USE64BITINT DYNAMIC_ARCH NO_AFFINITY SkylakeX SINGLE_THREADED
        Core in use  :  SkylakeX
   Copyright (c) 2011-2014, The OpenBLAS Project




***************************************
The coordinates will be read from file: xtb_opt.xyz
***************************************


Your calculation utilizes the geometrical counterpoise correction gCP
Please cite in your paper:
H.Kruse, S. Grimme J.Chem.Phys., 136, (2012), 154101 
   

Your calculation utilizes the atom-pairwise dispersion correction
based on EEQ partial charges (D4)


Your calculation utilizes the SMD solvation module
Please cite in your paper:
A.V. Marenich, C.J. Cramer, D.G. Truhlar J. Phys. Chem. B, 113, (2009), 6378 

================================================================================

----- Orbital basis set information -----
Your calculation utilizes the basis: def2-mTZVPP
   Stefan Grimme, Andreas Hansen, Sebastian Ehlert, and Jan-Michael Mewes 
   J. Chem. Phys. 154, 064103 (2021). DOI: 10.1063/5.0040021

----- AuxJ basis set information -----
Your calculation utilizes the auxiliary basis: def2/J
   F. Weigend, Phys. Chem. Chem. Phys. 8, 1057 (2006).

================================================================================
                                        WARNINGS
                       Please study these warnings very carefully!
================================================================================

WARNING: Old DensityContainer found on disk!
         Will remove this file - 
         If you want to keep old densities, please start your calculation with a different basename. 

Using LibXC functional ID 497 : Re-regularized SCAN exchange by Furness et al
[ 1]  J. W. Furness, A. D. Kaplan, J. Ning, J. P. Perdew, and J. Sun.,  J. Phys. Chem. Lett. 11, 8208-8215 (2020)
[ 2]  J. W. Furness, A. D. Kaplan, J. Ning, J. P. Perdew, and J. Sun.,  J. Phys. Chem. Lett. 11, 9248-9248 (2020)
Using LibXC functional ID 498 : Re-regularized SCAN correlation by Furness et al
[ 1]  J. W. Furness, A. D. Kaplan, J. Ning, J. P. Perdew, and J. Sun.,  J. Phys. Chem. Lett. 11, 8208-8215 (2020)
[ 2]  J. W. Furness, A. D. Kaplan, J. Ning, J. P. Perdew, and J. Sun.,  J. Phys. Chem. Lett. 11, 9248-9248 (2020)
Using LibXC functional ID 497 : Re-regularized SCAN exchange by Furness et al
[ 1]  J. W. Furness, A. D. Kaplan, J. Ning, J. P. Perdew, and J. Sun.,  J. Phys. Chem. Lett. 11, 8208-8215 (2020)
[ 2]  J. W. Furness, A. D. Kaplan, J. Ning, J. P. Perdew, and J. Sun.,  J. Phys. Chem. Lett. 11, 9248-9248 (2020)
Using LibXC functional ID 498 : Re-regularized SCAN correlation by Furness et al
[ 1]  J. W. Furness, A. D. Kaplan, J. Ning, J. P. Perdew, and J. Sun.,  J. Phys. Chem. Lett. 11, 8208-8215 (2020)
[ 2]  J. W. Furness, A. D. Kaplan, J. Ning, J. P. Perdew, and J. Sun.,  J. Phys. Chem. Lett. 11, 9248-9248 (2020)

================================================================================
                                       INPUT FILE
================================================================================
NAME = xtb_opt.inp
|  1> ! r2scan-3c def2/J RI DEFGRID2 scfconv7 ENGRAD tightSCF miniprint
|  2> %cpcm
|  3>     smd true
|  4>     smdsolvent "water"
|  5> end
|  6> * xyzfile 0 1 xtb_opt.xyz
|  7> 
|  8>                          ****END OF INPUT****
================================================================================

                     *******************************
                     * Energy+Gradient Calculation *
                     *******************************

---------------------------------
CARTESIAN COORDINATES (ANGSTROEM)
---------------------------------
  C     -2.105300    1.192802    0.338827
  C     -1.447354   -0.022665   -0.310607
  C     -0.064473   -0.342363    0.253794
  C      0.985932    0.704310   -0.082130
  C      2.350367    0.420213    0.540738
  O      0.409568   -1.603267   -0.282878
  H     -1.574801    2.119966    0.101956
  H     -3.136507    1.304643   -0.009827
  H     -2.131306    1.088351    1.429577
  H     -2.085030   -0.902677   -0.152521
  H     -1.362537    0.121417   -1.395566
  H     -0.140506   -0.431485    1.350529
  H      1.071203    0.773961   -1.174918
  H      0.622101    1.675192    0.270823
  H      3.051239    1.234640    0.331601
  H      2.266992    0.321477    1.629112
  H      2.788089   -0.503552    0.151570
  H     -0.258912   -2.269128   -0.075596

----------------------------
CARTESIAN COORDINATES (A.U.)
----------------------------
  NO LB      ZA    FRAG     MASS         X           Y           Z
   0 C     6.0000    0    12.011   -3.978441    2.254070    0.640291
   1 C     6.0000    0    12.011   -2.735103   -0.042831   -0.586963
   2 C     6.0000    0    12.011   -0.121837   -0.646972    0.479601
   3 C     6.0000    0    12.011    1.863142    1.330954   -0.155203
   4 C     6.0000    0    12.011    4.441549    0.794087    1.021847
   5 O     8.0000    0    15.999    0.773972   -3.029736   -0.534562
   6 H     1.0000    0     1.008   -2.975943    4.006156    0.192669
   7 H     1.0000    0     1.008   -5.927140    2.465418   -0.018570
   8 H     1.0000    0     1.008   -4.027585    2.056685    2.701510
   9 H     1.0000    0     1.008   -3.940136   -1.705812   -0.288222
  10 H     1.0000    0     1.008   -2.574822    0.229445   -2.637237
  11 H     1.0000    0     1.008   -0.265517   -0.815388    2.552131
  12 H     1.0000    0     1.008    2.024281    1.462575   -2.220273
  13 H     1.0000    0     1.008    1.175601    3.165654    0.511781
  14 H     1.0000    0     1.008    5.766006    2.333131    0.626635
  15 H     1.0000    0     1.008    4.283994    0.607504    3.078576
  16 H     1.0000    0     1.008    5.268724   -0.951576    0.286426
  17 H     1.0000    0     1.008   -0.489273   -4.288031   -0.142855

------------------------------------------------------------------------------
                   ___                                                        
                  /   \      - P O W E R E D   B Y -                         
                 /     \                                                     
                 |  |  |   _    _      __       _____    __    __             
                 |  |  |  | |  | |    /  \     |  _  \  |  |  /  |          
                  \  \/   | |  | |   /    \    | | | |  |  | /  /          
                 / \  \   | |__| |  /  /\  \   | |_| |  |  |/  /          
                |  |  |   |  __  | /  /__\  \  |    /   |      \           
                |  |  |   | |  | | |   __   |  |    \   |  |\   \          
                \     /   | |  | | |  |  |  |  | |\  \  |  | \   \       
                 \___/    |_|  |_| |__|  |__|  |_| \__\ |__|  \__/        
                                                                              
                      - O R C A' S   B I G   F R I E N D -                    
                                      &                                       
                       - I N T E G R A L  F E E D E R -                       
                                                                              
 v1 FN, 2020, v2 2021, v3 2022-2024                                           
------------------------------------------------------------------------------


----------------------
SHARK INTEGRAL PACKAGE
----------------------

Number of atoms                             ...     18
Number of basis functions                   ...    179
Number of shells                            ...     91
Maximum angular momentum                    ...      2
Integral batch strategy                     ... SHARK/LIBINT Hybrid
RI-J (if used) integral strategy            ... SPLIT-RIJ (Revised 2003 algorithm where possible)
Printlevel                                  ...      1
Contraction scheme used                     ... SEGMENTED contraction
Prescreening option                         ... SCHWARTZ
   Thresh                                   ... 3.000e-11
   Tcut                                     ... 1.000e-12
   Tpresel                                  ... 1.000e-12 
Coulomb Range Separation                    ... NOT USED
Exchange Range Separation                   ... NOT USED
Multipole approximations                    ... NOT USED
Finite Nucleus Model                        ... NOT USED
CABS basis                                  ... NOT available
Auxiliary Coulomb fitting basis             ... AVAILABLE
   # of basis functions in Aux-J            ...    426
   # of shells in Aux-J                     ...    150
   Maximum angular momentum in Aux-J        ...      4
Auxiliary J/K fitting basis                 ... NOT available
Auxiliary Correlation fitting basis         ... NOT available
Auxiliary 'external' fitting basis          ... NOT available

Checking pre-screening integrals            ... done (  0.0 sec) Dimension = 91
Check shell pair data                       ... done (  0.0 sec)
Shell pair information
Shell pair cut-off parameter TPreSel        ...   1.0e-12
Total number of shell pairs                 ...      4186
Shell pairs after pre-screening             ...      3912
Total number of primitive shell pairs       ...     14533
Primitive shell pairs kept                  ...     10107
          la=0 lb=0:   1375 shell pairs
          la=1 lb=0:   1512 shell pairs
          la=1 lb=1:    435 shell pairs
          la=2 lb=0:    361 shell pairs
          la=2 lb=1:    201 shell pairs
          la=2 lb=2:     28 shell pairs

Calculating one electron integrals          ... done (  0.0 sec)
Calculating RI/J V-Matrix + Cholesky decomp.... done (  0.1 sec)
Calculating Nuclear repulsion               ... done (  0.0 sec) ENN=    258.402641285868 Eh

Diagonalization of the overlap matrix:
Smallest eigenvalue                        ... 2.090e-04
Time for diagonalization                   ...    0.003 sec
Threshold for overlap eigenvalues          ... 1.000e-07
Number of eigenvalues below threshold      ... 0
Time for construction of square roots      ...    0.016 sec
Total time needed                          ...    0.028 sec

-------------------
DFT GRID GENERATION
-------------------

General Integration Accuracy     IntAcc      ... 4.388
Radial Grid Type                 RadialGrid  ... OptM3 with GC (2021)
Angular Grid (max. ang.)         AngularGrid ... 4 (Lebedev-302)
Angular grid pruning method      GridPruning ... 4 (adaptive)
Weight generation scheme         WeightScheme... mBecke (2022)
Basis function cutoff            BFCut       ... 1.0000e-11
Integration weight cutoff        WCut        ... 1.0000e-14
Partially contracted basis set               ... off
Rotationally invariant grid construction     ... off
Angular grids for H and He will be reduced by one unit
Diffuse basis detected: some atoms will have their outermost
                        angular grid increased by 1.

Total number of grid points                  ...    74885
Total number of batches                      ...     1178
Average number of points per batch           ...       63
Average number of grid points per atom       ...     4160
Initializing property integral containers    ... done (  0.0 sec)

SHARK setup successfully completed in   1.0 seconds

Maximum memory used throughout the entire STARTUP-calculation: 32.5 MB
Occupation numbers will be reassigned to an Aufbau configuration
             **** ENERGY FILE WAS UPDATED (xtb_opt.en.tmp) ****
Finished Guess after   0.3 sec
Maximum memory used throughout the entire GUESS-calculation: 12.2 MB
--------------------
CPCM SOLVATION MODEL
--------------------
CPCM parameters:
  Epsilon                                         ...      78.3550
  Refrac                                          ...       1.3328
  Rsolv                                           ...       1.3000
  Surface type                                    ... GAUSSIAN VDW
  Discretization scheme                           ... Constant charge density
    Threshold for H atoms                         ...       5.0000 (charges/Ang^2)
    Threshold for non-H atoms                     ...       5.0000 (charges/Ang^2)
  Epsilon function type                           ...         CPCM
Solvent:                                          ... WATER
SMD-CDS solvent descriptors:
  Soln                                            ...       1.3328
  Soln25                                          ...       1.3323
  Sola                                            ...       0.0000
  Solb                                            ...       0.0000
  Solg                                            ...       0.0000
  Solc                                            ...       0.0000
  Solh                                            ...       0.0000
Radii:
  Scheme                                          ... Element-dependent radii
  Radius for C  used is    3.4960 Bohr (=   1.8500 Ang.)
  Radius for O  used is    2.8724 Bohr (=   1.5200 Ang.)
  Radius for H  used is    2.2677 Bohr (=   1.2000 Ang.)
Calculating surface                               ...        done! (  0.0s)
Cavity surface points                             ...         1316
Cavity Volume                                     ...     739.4278
Cavity Surface-area                               ...     500.2509
Calculating surface distance matrix               ...        done! (  0.0s)
Performing Cholesky decomposition & store         ...        done! (  0.1s)
Overall time for CPCM initialization              ...                 0.1s

----------------------------------------D-I-I-S--------------------------------------------
Iteration    Energy (Eh)           Delta-E    RMSDP     MaxDP     DIISErr   Damp  Time(sec)
-------------------------------------------------------------------------------------------
               ***  Starting incremental Fock matrix formation  ***
                              *** Initializing SOSCF ***
---------------------------------------S-O-S-C-F--------------------------------------
Iteration    Energy (Eh)           Delta-E    RMSDP     MaxDP     MaxGrad    Time(sec)
--------------------------------------------------------------------------------------
    1    -272.9204502897815701     0.00e+00  3.21e-05  7.21e-04  3.55e-05     2.4
               *** Restarting incremental Fock matrix formation ***
    2    -272.9204541090711018    -3.82e-06  1.46e-05  3.58e-04  3.67e-05     2.2
    3    -272.9204542928320052    -1.84e-07  4.53e-06  6.39e-05  3.22e-05     1.7
    4    -272.9204543591366701    -6.63e-08  2.91e-06  6.18e-05  9.32e-06     1.7
                 **** Energy Check signals convergence ****

               *****************************************************
               *                     SUCCESS                       *
               *           SCF CONVERGED AFTER   4 CYCLES          *
               *****************************************************


SMD CDS free energy correction energy :                 3.35171     Kcal/mol
Total Energy after SMD CDS correction =              -272.915113070 Eh
             **** ENERGY FILE WAS UPDATED (xtb_opt.en.tmp) ****

----------------
TOTAL SCF ENERGY
----------------

Total Energy       :       -272.91511307001610 Eh           -7426.39778 eV

Components:
Nuclear Repulsion  :        258.40264128586807 Eh            7031.49334 eV
Electronic Energy  :       -531.30874427659285 Eh          -14457.64594 eV
One Electron Energy:       -880.83135150208568 Eh          -23968.63962 eV
Two Electron Energy:        349.52260722549283 Eh            9510.99367 eV
CPCM Dielectric    :         -0.01435136841185 Eh              -0.39052 eV
SMD CDS (Gcds)     :          0.00534128912057 Eh               0.14534 eV

Virial components:
Potential Energy   :       -544.46193252615126 Eh          -14815.56239 eV
Kinetic Energy     :        271.54681945613515 Eh            7389.16462 eV
Virial Ratio       :          2.00503888654127

DFT components:
N(Alpha)           :       25.000034084102 electrons
N(Beta)            :       25.000034084102 electrons
N(Total)           :       50.000068168204 electrons
E(X)               :      -38.550708295184 Eh       
E(C)               :       -1.560609890676 Eh       
E(XC)              :      -40.111318185859 Eh       

CPCM Solvation Model Properties:
Surface-charge          :         -0.04679336339518
Corrected charge        :         -0.00000000000000
Outlying charge corr.   :          0.00017966417007 Eh               0.00489 eV
Free-energy (cav+disp)  :          0.00534128912057 Eh               0.14534 eV

---------------
SCF CONVERGENCE
---------------

  Last Energy change         ...    6.6305e-08  Tolerance :   1.0000e-07
  Last MAX-Density change    ...    6.1781e-05  Tolerance :   1.0000e-07
  Last RMS-Density change    ...    2.9073e-06  Tolerance :   5.0000e-09
  Last DIIS Error            ...    7.5106e-04  Tolerance :   1.0000e-07
  Last Orbital Gradient      ...    9.3244e-06  Tolerance :   1.0000e-04
  Last Orbital Rotation      ...    1.9613e-05  Tolerance :   1.0000e-04


----------------
ORBITAL ENERGIES
----------------

  NO   OCC          E(Eh)            E(eV) 
   0   2.0000     -18.947033      -515.5750 
   1   2.0000     -10.073752      -274.1207 
   2   2.0000     -10.020432      -272.6698 
   3   2.0000     -10.019676      -272.6493 
   4   2.0000     -10.013933      -272.4930 
   5   2.0000     -10.011854      -272.4364 
   6   2.0000      -0.976874       -26.5821 
   7   2.0000      -0.755547       -20.5595 
   8   2.0000      -0.712421       -19.3860 
   9   2.0000      -0.632258       -17.2046 
  10   2.0000      -0.574034       -15.6203 
  11   2.0000      -0.531098       -14.4519 
  12   2.0000      -0.477939       -13.0054 
  13   2.0000      -0.415013       -11.2931 
  14   2.0000      -0.406265       -11.0550 
  15   2.0000      -0.387506       -10.5446 
  16   2.0000      -0.372493       -10.1360 
  17   2.0000      -0.358891        -9.7659 
  18   2.0000      -0.339770        -9.2456 
  19   2.0000      -0.316194        -8.6041 
  20   2.0000      -0.313728        -8.5370 
  21   2.0000      -0.305071        -8.3014 
  22   2.0000      -0.294964        -8.0264 
  23   2.0000      -0.276819        -7.5326 
  24   2.0000      -0.237855        -6.4724 
  25   0.0000       0.079071         2.1516 
  26   0.0000       0.097172         2.6442 
  27   0.0000       0.118872         3.2347 
  28   0.0000       0.131803         3.5865 
  29   0.0000       0.137417         3.7393 
  30   0.0000       0.148900         4.0518 
  31   0.0000       0.154870         4.2142 
  32   0.0000       0.163742         4.4556 
  33   0.0000       0.167296         4.5523 
  34   0.0000       0.177298         4.8245 
  35   0.0000       0.195591         5.3223 
*Only the first 10 virtual orbitals were printed.
Total SCF time: 0 days 0 hours 0 min 8 sec 
Finished LeanSCF after   8.8 sec

Maximum memory used throughout the entire LEANSCF-calculation: 23.7 MB


-------------------------------------------------------------------------------
                          DFT DISPERSION CORRECTION                            
                                                                               
                                DFTD4 V3.4.0                                   
-------------------------------------------------------------------------------
-------------------------   ----------------
Dispersion correction           -0.004227980
-------------------------   ----------------

------------------   -----------------
gCP correction             0.009444765
------------------   -----------------

-------------------------   --------------------
FINAL SINGLE POINT ENERGY      -272.909896284911
-------------------------   --------------------

------------------------------------------------------------------------------
                         ORCA SCF GRADIENT CALCULATION
------------------------------------------------------------------------------

Nuc. rep. gradient        (SHARK) ... done (  0.0 sec)
HCore & Overlap gradient  (SHARK) ... done (  0.2 sec)
Split-RIJ-J gradient      (SHARK) ... done (  1.0 sec)
XC gradient                       ... done (  4.2 sec)
CPCM gradient                     ... done (  0.6 sec)
SMD gradient                      ... done (  0.0 sec)
Dispersion correction             ... done (  0.0 sec)

-------------------
DISPERSION GRADIENT
-------------------

   1   C   :   -0.000077512    0.000043479    0.000012150
   2   C   :   -0.000057559   -0.000010044   -0.000017392
   3   C   :   -0.000004024   -0.000020967    0.000003727
   4   C   :    0.000046582    0.000023415   -0.000009034
   5   C   :    0.000090624    0.000013490    0.000018753
   6   O   :   -0.000003848   -0.000084633   -0.000009344
   7   H   :   -0.000033128    0.000025273    0.000001158
   8   H   :   -0.000032132    0.000014490    0.000000798
   9   H   :   -0.000036309    0.000016017    0.000013941
  10   H   :   -0.000025745   -0.000012247   -0.000004066
[...]
E(X)               :      -38.550712419906 Eh       
E(C)               :       -1.560610152533 Eh       
E(XC)              :      -40.111322572439 Eh       

CPCM Solvation Model Properties:
Surface-charge          :         -0.04679258616766
Corrected charge        :          0.00000000000000
Outlying charge corr.   :          0.00017965820175 Eh               0.00489 eV
Free-energy (cav+disp)  :          0.00534128912057 Eh               0.14534 eV

---------------
SCF CONVERGENCE
---------------

  Last Energy change         ...    2.3772e-10  Tolerance :   1.0000e-07
  Last MAX-Density change    ...    5.7752e-06  Tolerance :   1.0000e-07
  Last RMS-Density change    ...    2.6093e-07  Tolerance :   5.0000e-09
  Last DIIS Error            ...    6.8540e-06  Tolerance :   1.0000e-07
  Last Orbital Gradient      ...    1.0303e-06  Tolerance :   1.0000e-04
  Last Orbital Rotation      ...    1.8498e-06  Tolerance :   1.0000e-04


----------------
ORBITAL ENERGIES
----------------

  NO   OCC          E(Eh)            E(eV) 
   0   2.0000     -18.947045      -515.5753 
   1   2.0000     -10.073786      -274.1217 
   2   2.0000     -10.020437      -272.6699 
   3   2.0000     -10.019754      -272.6514 
   4   2.0000     -10.013865      -272.4911 
   5   2.0000     -10.011816      -272.4354 
   6   2.0000      -0.976884       -26.5824 
   7   2.0000      -0.755557       -20.5597 
   8   2.0000      -0.712419       -19.3859 
   9   2.0000      -0.632254       -17.2045 
  10   2.0000      -0.574034       -15.6203 
  11   2.0000      -0.531108       -14.4522 
  12   2.0000      -0.477950       -13.0057 
  13   2.0000      -0.415012       -11.2930 
  14   2.0000      -0.406269       -11.0551 
  15   2.0000      -0.387509       -10.5446 
  16   2.0000      -0.372488       -10.1359 
  17   2.0000      -0.358887        -9.7658 
  18   2.0000      -0.339763        -9.2454 
  19   2.0000      -0.316200        -8.6042 
  20   2.0000      -0.313725        -8.5369 
  21   2.0000      -0.305069        -8.3013 
  22   2.0000      -0.294968        -8.0265 
  23   2.0000      -0.276830        -7.5329 
  24   2.0000      -0.237862        -6.4725 
  25   0.0000       0.079066         2.1515 
  26   0.0000       0.097172         2.6442 
  27   0.0000       0.118871         3.2346 
  28   0.0000       0.131803         3.5866 
  29   0.0000       0.137413         3.7392 
  30   0.0000       0.148899         4.0517 
  31   0.0000       0.154868         4.2142 
  32   0.0000       0.163739         4.4556 
  33   0.0000       0.167294         4.5523 
  34   0.0000       0.177299         4.8245 
  35   0.0000       0.195595         5.3224 
*Only the first 10 virtual orbitals were printed.
Total SCF time: 0 days 0 hours 0 min 4 sec 
Finished LeanSCF after   5.1 sec

Maximum memory used throughout the entire LEANSCF-calculation: 23.7 MB


-------------------------------------------------------------------------------
                          DFT DISPERSION CORRECTION                            
                                                                               
                                DFTD4 V3.4.0                                   
-------------------------------------------------------------------------------
-------------------------   ----------------
Dispersion correction           -0.004227980
-------------------------   ----------------

------------------   -----------------
gCP correction             0.009444765
------------------   -----------------

-------------------------   --------------------
FINAL SINGLE POINT ENERGY      -272.909896304366
-------------------------   --------------------

------------------------------------------------------------------------------
                         ORCA SCF GRADIENT CALCULATION
------------------------------------------------------------------------------

Nuc. rep. gradient        (SHARK) ... done (  0.0 sec)
HCore & Overlap gradient  (SHARK) ... done (  0.2 sec)
Split-RIJ-J gradient      (SHARK) ... done (  0.9 sec)
XC gradient                       ... done (  4.1 sec)
CPCM gradient                     ... done (  0.6 sec)
SMD gradient                      ... done (  0.0 sec)
Dispersion correction             ... done (  0.0 sec)

-------------------
DISPERSION GRADIENT
-------------------

   1   C   :   -0.000077512    0.000043479    0.000012150
   2   C   :   -0.000057559   -0.000010044   -0.000017392
   3   C   :   -0.000004024   -0.000020967    0.000003727
   4   C   :    0.000046582    0.000023415   -0.000009034
   5   C   :    0.000090624    0.000013490    0.000018753
   6   O   :   -0.000003848   -0.000084633   -0.000009344
   7   H   :   -0.000033128    0.000025273    0.000001158
   8   H   :   -0.000032132    0.000014490    0.000000798
   9   H   :   -0.000036309    0.000016017    0.000013941
  10   H   :   -0.000025745   -0.000012247   -0.000004066
  11   H   :   -0.000022472   -0.000002634   -0.000016445
  12   H   :    0.000000250   -0.000016372    0.000006777
  13   H   :    0.000026076    0.000005033   -0.000015632
  14   H   :    0.000020541    0.000019489    0.000001161
  15   H   :    0.000033233    0.000011790    0.000003537
  16   H   :    0.000036228    0.000005282    0.000015816
  17   H   :    0.000031566    0.000000034    0.000002608
  18   H   :    0.000007629   -0.000030896   -0.000008513

Difference to translation invariance:
           :    0.0000000000   -0.0000000000   -0.0000000000

Difference to rotation invariance:
           :    0.0000000000    0.0000000000   -0.0000000000

Norm of the Dispersion gradient    ...    0.0002107285
RMS gradient                       ...    0.0000286765
MAX gradient                       ...    0.0000906237
gCP correction                   ... done

------------------
CARTESIAN GRADIENT
------------------

   1   C   :    0.000123971   -0.000062095    0.000080565
   2   C   :   -0.000069698   -0.000150778   -0.000117353
   3   C   :   -0.000104230    0.000310293    0.000099807
   4   C   :    0.000032187   -0.000035321    0.000078765
   5   C   :    0.000040333    0.000042256   -0.000061609
   6   O   :   -0.000027581   -0.000044440   -0.000087037
   7   H   :    0.000035993    0.000093268   -0.000015752
   8   H   :   -0.000037020   -0.000084272   -0.000035431
   9   H   :   -0.000010579   -0.000011861    0.000095709
  10   H   :   -0.000017794   -0.000017657   -0.000008419
  11   H   :   -0.000030425   -0.000012271   -0.000011027
  12   H   :    0.000057745   -0.000009284   -0.000038377
  13   H   :    0.000060785   -0.000044568    0.000045606
  14   H   :    0.000026592   -0.000015138   -0.000065911
  15   H   :    0.000074589    0.000074118    0.000022237
  16   H   :   -0.000111589   -0.000026743    0.000029195
  17   H   :   -0.000018081   -0.000014081   -0.000014136
  18   H   :   -0.000025197    0.000008572    0.000003170

Difference to translation invariance:
           :   -0.0000000000    0.0000000000   -0.0000000000

Difference to rotation invariance:
           :    0.0001374134   -0.0000159678    0.0002885345

Norm of the Cartesian gradient     ...    0.0005351844
RMS gradient                       ...    0.0000728294
MAX gradient                       ...    0.0003102932

-------
TIMINGS
-------

Total SCF gradient time     ....        6.326 sec

Densities                   ....       0.000 sec  (  0.0%)
One electron gradient       ....       0.186 sec  (  2.9%)
RI-J Coulomb gradient       ....       0.948 sec  ( 15.0%)
XC gradient                 ....       4.097 sec  ( 64.8%)
CPCM gradient               ....       0.570 sec  (  9.0%)
   A-Matrix (El+Nuc)        ....       0.054 sec  (  0.8%)
   Potential                ....       0.516 sec  (  8.2%)
SMD gradient                ....       0.013 sec  (  0.2%)

Maximum memory used throughout the entire SCFGRAD-calculation: 32.3 MB

------------------------------------------------------------------------------
                              ORCA PROPERTY CALCULATIONS
------------------------------------------------------------------------------

GBWName                                 ... xtb_opt.gbw
Number of atoms                         ...     18
Number of basis functions               ...    179
Max core memory                         ...   1024 MB

Electric properties:
Dipole moment                           ... YES
Quadrupole moment                       ...  NO
Static polarizability (Dipole/Dipole)   ...  NO
Static polarizability (Dipole/Quad.)    ...  NO
Static polarizability (Quad./Quad.)     ...  NO
Static polarizability (Velocity)        ...  NO

Atomic electric properties:
Dipole moment                           ...  NO
Quadrupole moment                       ...  NO
Static polarizability                   ...  NO

Choice of electric origin               ... Center of mass
Position of electric origin             ...     0.048932     0.050752     0.146767

General magnetic properties:
Magnetizability                         ...  NO

EPR properties:
g-Tensor (aka g-matrix)                 ...  NO
Zero-Field splitting spin-orbit         ...  NO
Zero-field splitting spin-spin          ...  NO
Hyperfine couplings                     ...  NO (   0 nuclei)
Quadrupole couplings                    ...  NO (   0 nuclei)
Contact density                         ...  NO (   0 nuclei)

NMR properties:
Chemical shifts                         ...  NO (   0 nuclei)
Spin-rotation constants                 ...  NO (   0 nuclei)
Spin-spin couplings                     ...  NO (   0 nuclei,    0 pairs)

Choice of magnetic origin               ... GIAO
Position of magnetic origin             ...     0.000000     0.000000     0.000000

Properties with geometric perturbations:
SCF Hessian                             ...  NO
IR spectrum                             ...  NO
VCD spectrum                            ...  NO
X-ray spectroscopy properties:
SCF XES/XAS/RIXS spectra                ...  NO


-------------
DIPOLE MOMENT
-------------

Method             : SCF
Type of density    : Electron Density
Multiplicity       :   1
Irrep              :   0
Energy             :  -272.9151130894703101 Eh
Relativity type    : 
Basis              : AO
                                X                 Y                 Z
Electronic contribution:      0.303358754      -3.685166085      -0.997557652
Nuclear contribution   :     -1.120796557       3.926104220       1.425154376
                        -----------------------------------------
Total Dipole Moment    :     -0.817437803       0.240938135       0.427596724
                        -----------------------------------------
Magnitude (a.u.)       :      0.953464580
Magnitude (Debye)      :      2.423514361



--------------------
Rotational spectrum 
--------------------
 
Rotational constants in cm-1:             0.168564             0.075169             0.056683 
Rotational constants in MHz :          5053.430460          2253.518136          1699.299721 

Dipole components along the rotational axes: 
x,y,z [a.u.] :    -0.825479     0.203394     0.431637 
x,y,z [Debye]:    -2.098200     0.516986     1.097135 

 

Dipole moment calculation done in   0.0 sec 

Maximum memory used throughout the entire PROP-calculation: 10.7 MB

--------------------------------
SUGGESTED CITATIONS FOR THIS RUN
--------------------------------

Below you find a list of papers that are relevant to this ORCA run
We neither can nor want to force you to cite these papers, but we appreciate if you do
You receive ORCA, which is the product of decades of hard work by many enthusiastic individuals, for free
The only thing we kindly ask in return is that you cite our papers,
We deeply appreciate it, if you show your appreciation for ORCA by not just citing the generic ORCA reference.

Please note that relegating all ORCA citations to the supporting information does *not* help us.
SI sections are not indexed - citations you put there will not count into any citation statistics
But we need these citations in order to attract the funding resources that allow us to do what we are doing

Therefore, if you are a happy ORCA user, please consider citing a few of the papers listed below in the main body of your paper

In addition to the list printed below, the program has created the file xtb_opt.bibtex that contains the list in bibtex format
You can import this file easily into all common literature databanks and citation aid programs


List of essential papers. We consider these as the minimum necessary citations

  1. Neese,F.
     Software update: the ORCA program system, version 5.0
     WIRES Comput. Molec. Sci., 2022 12(1)e1606
     doi.org/10.1002/wcms.1606
  2. Grimme,S.; Hansen,A.; Ehlert,S.; Mewes,J.
     r2SCAN-3c: A 'Swiss army knife' composite electronic-structure method
     J. Chem. Phys., 2021 154 064103
     doi.org/10.1063/5.0040021

List of papers to cite with high priority. The work reported in these papers was absolutely
necessary for this run to complete.
Our perspective: the developers of density functionals and basis sets usually get cited in chemistry papers
Good! But without the algorithms to do something with them, the functionals or basis sets would not do anything.
Hence, in our opinion, the algorithm design and method developments papers are equally worthy of getting cited

  1. Neese,F.
     An improvement of the resolution of the identity approximation for the formation of the Coulomb matrix
     J. Comp. Chem., 2003 24(14)1740-1747
     doi.org/10.1002/jcc.10318
  2. Garcia-Rates,M.; Neese,F.
     Effect of the Solute Cavity on the Solvation Energy and its Derivatives within the Framework of the Gaussian Charge Scheme
     J. Comput. Chem., 2020 41 922-939
     doi.org/10.1002/jcc.26139
  3. Neese,F.
     The SHARK Integral Generation and Digestion System
     J. Comp. Chem., 2022  1-16
     doi.org/10.1002/jcc.26942
  4. Lehtola,S.; Steigemann,C.; Oliveira,M.; Marques,M.
     Recent developments in Libxc - A comprehensive library of functionals for density functional theory
     Software X, 2018 7 
     doi.org/10.1016/j.softx.2017.11.002
  5. Caldeweyher,E.; Bannwarth,C.; Grimme,S.
     Extension of the D3 dispersion coefficient model
     J. Chem. Phys., 2017 147 034112-XXXX
     doi.org/10.1063/1.4993215
  6. Caldeweyher,E.; Ehlert,S.; Hansen,A.; Neugebauer,H.; Spicher,S.; Bannwarth,C.; Grimme,S.
     A generally applicable atomic-charge dependent London dispersion correction
     J. Chem. Phys., 2019 150 154122-XXXX
     doi.org/10.1063/1.5090222
  7. Caldeweyher,E.; Mewes,J.; Ehlert,S.; Grimme,S.
     Extension and evaluation of the D4 London-dispersion model for periodic systems
     Phys. Chem. Chem. Phys., 2020 22(16)8499-8512
     doi.org/10.1039/D0CP00502A

List of suggested additional citations. These are papers that are important in the 'surrounding' of 
of this run, or papers that preceded the highly important papers. If you like your results we are grateful for a citation.

  1. Neese,F.
     The ORCA program system
     WIRES Comput. Molec. Sci., 2012 2(1)73-78
     doi.org/10.1002/wcms.81
  2. Neese,F.
     Software update: the ORCA program system, version 4.0
     WIRES Comput. Molec. Sci., 2018 8(1)1-6
     doi.org/10.1002/wcms.1327
  3. Neese,F.; Wennmohs,F.; Becker,U.; Riplinger,C.
     The ORCA quantum chemistry program package
     J. Chem. Phys., 2020 152 Art. No. L224108
     doi.org/10.1063/5.0004608

List of optional additional citations

  1. Neese,F.
     Approximate second-order SCF convergence for spin unrestricted wavefunctions
     Chem. Phys. Lett., 2000 325(1-3)93-98
     doi.org/10.1016/s0009-2614(00)00662-x

Timings for individual modules:

Sum of individual times          ...       12.972 sec (=   0.216 min)
Startup calculation              ...        1.033 sec (=   0.017 min)   8.0 %
SCF iterations                   ...        5.422 sec (=   0.090 min)  41.8 %
Property calculations            ...        0.098 sec (=   0.002 min)   0.8 %
SCF Gradient evaluation          ...        6.419 sec (=   0.107 min)  49.5 %
                             ****ORCA TERMINATED NORMALLY****
TOTAL RUN TIME: 0 days 0 hours 0 minutes 13 seconds 822 msec
  ------------------------------------------------------------------------
          * successful ORCA run, taking over control again...

         :::::::::::::::::::::::::::::::::::::::::::::::::::::
         ::                  ORCA SUMMARY                   ::
         :::::::::::::::::::::::::::::::::::::::::::::::::::::
         :: total energy            -272.909896304366 Eh    ::
         :: gradient norm              0.000535184433 Eh/a0 ::
         :: HOMO-LUMO gap              0.000000000000 eV    ::
         :::::::::::::::::::::::::::::::::::::::::::::::::::::

           -------------------------------------------------
          |                Property Printout                |
           -------------------------------------------------
           -------------------------------------------------
          |                Geometry Summary                 |
           -------------------------------------------------

      molecular mass/u    :       88.1483734
   center of mass at/Å    :        0.0258977       0.0268412       0.0776621
  moments of inertia/u·Å² :        0.1000059E+03   0.2242558E+03   0.2973978E+03
rotational constants/cm⁻¹ :        0.1685664E+00   0.7517145E-01   0.5668377E-01

 * 16 selected distances

     #   Z          #   Z                                           value/Å
     1   6 C        2   6 C                                       1.5270956
     2   6 C        3   6 C                                       1.5274536 (max)
     3   6 C        4   6 C                                       1.5204347
     4   6 C        5   6 C                                       1.5265506
     1   6 C        7   1 H                                       1.0941531
     1   6 C        8   1 H                                       1.0942835
     1   6 C        9   1 H                                       1.0960487
     2   6 C       10   1 H                                       1.0981995
     2   6 C       11   1 H                                       1.0977651
     3   6 C       12   1 H                                       1.1029745
     4   6 C       13   1 H                                       1.0983207
     4   6 C       14   1 H                                       1.0952443
     5   6 C       15   1 H                                       1.0946468
     5   6 C       16   1 H                                       1.0960194
     5   6 C       17   1 H                                       1.0937982
     6   8 O       18   1 H                                       0.9660245 (min)

 * 3 distinct bonds (by element types)

   Z      Z             #   av. dist./Å        max./Å        min./Å
   1 H    6 C          11     1.0964958     1.1029745     1.0937982
   6 C    6 C           4     1.5253836     1.5274536     1.5204347
   1 H    8 O           1     0.9660245     0.9660245     0.9660245


optimized geometry written to: xtbopt.coord


           -------------------------------------------------
          | TOTAL ENERGY             -272.909896304366 Eh   |
          | GRADIENT NORM               0.000535184433 Eh/α |
           -------------------------------------------------

------------------------------------------------------------------------
 * finished run on 2025/04/11 at 12:17:51.993     
------------------------------------------------------------------------
 total:
 * wall-time:     0 d,  0 h,  0 min, 47.816 sec
 *  cpu-time:     0 d,  0 h,  0 min,  5.064 sec
 * ratio c/w:     0.106 speedup
 SCF:
 * wall-time:     0 d,  0 h,  0 min, 15.947 sec
 *  cpu-time:     0 d,  0 h,  0 min,  2.101 sec
 * ratio c/w:     0.132 speedup
 ANC optimizer:
 * wall-time:     0 d,  0 h,  0 min, 31.853 sec
 *  cpu-time:     0 d,  0 h,  0 min,  2.938 sec
 * ratio c/w:     0.092 speedup

