22
 energy: -32.355876374109 gnorm: 0.036292647142 xtb: 6.7.1 (edcfbbe)
C           -3.35919993927390        0.50258204013573        0.51247245208777
C           -3.26423627313357        0.25429272527628       -0.85675886147260
C           -2.02707484443521       -0.01009572447035       -1.43357386460847
C           -0.86770559649902       -0.02853573222106       -0.65144724926252
C           -0.96659438858739        0.22041733824142        0.71693548816166
C           -2.20862761172509        0.48328179354592        1.29498128091472
C            0.45158166868834       -0.30974269366520       -1.33849648882263
N            1.58960136707392       -0.32173319592607       -0.43312244412778
C            1.99063235664116       -1.37909244838177        0.35474734471977
C            2.95751128258712       -0.87605575556383        1.18475747919807
N            3.14622221448734        0.47202931283845        0.94532574691609
C            2.29345532311241        0.76788798489934       -0.02281990582908
H           -4.32426200658416        0.70934182206596        0.96418936370525
H           -4.15599179942123        0.26797994564500       -1.47653853137090
H           -1.95561789501506       -0.20276773527235       -2.50117142909336
H           -0.07768218542540        0.21025047698407        1.34130701536985
H           -2.27243639277081        0.67454239505512        2.36194472455495
H            0.40989439737756       -1.27816924323571       -1.84789563575070
H            0.63855679082877        0.44919037043766       -2.10575071382846
H            1.56475856760981       -2.36515103099521        0.24112520845022
H            3.53002830164686       -1.40671071109280        1.93259445373774
H            2.15153490496641        1.74177822115861       -0.47333483488404
22
 energy: -32.357945705123 gnorm: 0.011739197475 xtb: 6.7.1 (edcfbbe)
C           -3.35080700099721        0.49943600413378        0.50696392328658
C           -3.25652367935434        0.25278529039429       -0.85473792466012
C           -2.02538100515180       -0.00899910766161       -1.42853534408094
C           -0.87075835390370       -0.02653512507106       -0.65035748864559
C           -0.97182494722556        0.22042514442809        0.71154801052362
C           -2.20696921723934        0.48119477400495        1.28607167708924
C            0.45048437923875       -0.30867907687962       -1.33087983120799
N            1.57359216437621       -0.31852219930921       -0.42295200034912
C            1.98557562498347       -1.37060502912877        0.35180790674689
C            2.95471204234925       -0.87406277749335        1.17334577452040
N            3.14231711659299        0.45929689351932        0.93242927153049
C            2.28937352565353        0.75639042203806       -0.01881060342651
H           -4.31144396094797        0.70520598052296        0.95680750128468
H           -4.14472536781959        0.26559729941227       -1.47053429364781
H           -1.95443887121194       -0.20093989490237       -2.49048966079159
H           -0.08827344016904        0.21316331384507        1.33518655435655
H           -2.27042976032498        0.67233538447457        2.34815542210054
H            0.40535710359330       -1.28073009441947       -1.83251999964307
H            0.63702671959515        0.45504423489812       -2.09294068364127
H            1.56680464951940       -2.35065000551501        0.24190633958941
H            3.52873714213068       -1.39216771496498        1.91807930496603
H            2.16194337846159        1.72653643913314       -0.46007325713487
22
 energy: -32.358187388783 gnorm: 0.003924258312 xtb: 6.7.1 (edcfbbe)
C           -3.35090964656548        0.49792178015401        0.50365714600168
C           -3.25568530921580        0.25133910255676       -0.85624794742564
C           -2.02529910077960       -0.00901583284840       -1.42857811421217
C           -0.87288400464561       -0.02490911113719       -0.65035777209958
C           -0.97542478098935        0.22246373087404        0.70983048149002
C           -2.20913915665936        0.48178177423719        1.28308076455311
C            0.45161468184537       -0.30803531657584       -1.32586906467697
N            1.56363023114129       -0.31546343106904       -0.41440258625474
C            1.98062030780679       -1.36628954410984        0.35250154543597
C            2.96085176050384       -0.87605040746678        1.16412177210718
N            3.14641962522803        0.45126994851331        0.92391312698743
C            2.28994769061681        0.75167372192655       -0.01703744903387
H           -4.31056387105408        0.70204395085733        0.95249123293930
H           -4.14233912982366        0.26273059693621       -1.47113837950042
H           -1.95307287223920       -0.20070179440798       -2.48861215888622
H           -0.09432996715768        0.21653938374068        1.33440626665251
H           -2.27278841226673        0.67225712278216        2.34360471075331
H            0.40357635731566       -1.28182170271067       -1.82313994442422
H            0.63726400549506        0.45640760553277       -2.08686566906351
H            1.56189594885512       -2.34450064090067        0.24841568494360
H            3.54093310525285       -1.38847416031637        1.90472320421515
H            2.17003077948458        1.72435337889097       -0.44902625173638
22
 energy: -32.358237425366 gnorm: 0.002480209801 xtb: 6.7.1 (edcfbbe)
C           -3.35483516149725        0.49701329788463        0.50137375869980
C           -3.25778897055712        0.25012597639177       -0.85845286755750
C           -2.02631940019026       -0.00907114596070       -1.42947632058832
C           -0.87517812603372       -0.02350386809112       -0.64964355806030
C           -0.97930177832199        0.22453475284460        0.71039202604337
C           -2.21385766535875        0.48275952497869        1.28242058643788
C            0.45210428854562       -0.30693693305707       -1.32162050981273
N            1.55996599214134       -0.31312615509632       -0.40818905323217
C            1.98003107658631       -1.36535196276535        0.35354327973903
C            2.96815167294198       -0.87905647764715        1.15924775959930
N            3.15730947459031        0.44644374870107        0.91626162638766
C            2.29366321620275        0.75095593691914       -0.01686514852915
H           -4.31514231789795        0.69998418769019        0.94914017650672
H           -4.14378224004315        0.26010499148662       -1.47411829211515
H           -1.95238066820793       -0.20128186046562       -2.48924851587471
H           -0.09905588604335        0.22025424746545        1.33614411819733
H           -2.27846333950560        0.67380356760504        2.34265823003044
H            0.40336959687454       -1.28122264567137       -1.81762920648276
H            0.63758753750215        0.45671637711748       -2.08328173331083
H            1.55849261888537       -2.34307768207163        0.25424635201746
H            3.55353087407526       -1.39108781343100        1.89581379907863
H            2.17624744746030        1.72654009063184       -0.44324590840848
22
 energy: -32.358282429509 gnorm: 0.002319204947 xtb: 6.7.1 (edcfbbe)
C           -3.36243405772841        0.49610507011389        0.49743827951667
C           -3.26191391696525        0.24775213642821       -0.86218220310363
C           -2.02833678927054       -0.00994633766677       -1.43057429258690
C           -0.87920046415991       -0.02143423851774       -0.64769629802840
C           -0.98637125660286        0.22845992709778        0.71209396950423
C           -2.22285236641118        0.48534408894901        1.28147517557772
C            0.45220810287063       -0.30466978686371       -1.31440267410805
N            1.55625271655497       -0.30943499475297       -0.39823991591201
C            1.98113593960812       -1.36480800363290        0.35547431528732
C            2.98267526622168       -0.88508076867591        1.15013104708527
N            3.17378335794492        0.44036632604197        0.90730751225330
C            2.30119895351129        0.75053549503462       -0.01695168913429
H           -4.32431734736113        0.69751055922938        0.94304239911320
H           -4.14686342135063        0.25536825746813       -1.47976122760706
H           -1.95148902542882       -0.20331425815147       -2.49021521279057
H           -0.10722168952601        0.22676916671238        1.33978877059212
H           -2.28976451297009        0.67780303441077        2.34146281790139
H            0.40396213466802       -1.27951673004808       -1.80932782463878
H            0.63803541545679        0.45752696973525       -2.07741387025067
H            1.55351669333433       -2.34136874410776        0.26414363716857
H            3.57642454665846       -1.39868891768300        1.87929543138988
H            2.18591996309451        1.73024190433811       -0.43541754846377
22
 energy: -32.358300686403 gnorm: 0.002150989488 xtb: 6.7.1 (edcfbbe)
C           -3.36752968356504        0.49579012214972        0.49481125312012
C           -3.26430184410521        0.24600610913722       -0.86440934694719
C           -2.02929658111867       -0.01087535513705       -1.43045386279045
C           -0.88151684189127       -0.02018015923762       -0.64542229913256
C           -0.99124736868841        0.23126486109233        0.71399822378137
C           -2.22920524606258        0.48740525960456        1.28094365181220
C            0.45146828059202       -0.30279200615793       -1.30963635165144
N            1.55559593059623       -0.30753146813306       -0.39274096508950
C            1.98353275643422       -1.36506661741302        0.35635343766196
C            2.99102966504795       -0.88855397213144        1.14517852996394
N            3.18541036543794        0.43673167573823        0.90094867690135
C            2.30601849633790        0.75028307579434       -0.01660320647696
H           -4.33063350376739        0.69646780026608        0.93851115942376
H           -4.14835517491056        0.25182594021261       -1.48362610676752
H           -1.95053513543018       -0.20535947541311       -2.48992100607362
H           -0.11281286731250        0.23129474833161        1.34290296242544
H           -2.29833757858360        0.68119344418971        2.34069353787357
H            0.40447752203675       -1.27766188931665       -1.80478735217736
H            0.63797559548538        0.45910285134584       -2.07286536097160
H            1.55226484834501       -2.34051783216983        0.26869158599354
H            3.58946407104547       -1.40460580275082        1.86898962270845
H            2.19088253622541        1.73129884545748       -0.43208618482198
22
 energy: -32.358315809573 gnorm: 0.001425545701 xtb: 6.7.1 (edcfbbe)
C           -3.37192133883460        0.49569288237120        0.49236329098008
C           -3.26598815937201        0.24403337390710       -0.86626375690805
C           -2.02968186225464       -0.01219969224921       -1.42966380129648
C           -0.88315827696374       -0.01904938446109       -0.64263212748837
C           -0.99559549745486        0.23417187732948        0.71622708737604
C           -2.23497692280923        0.48971151236631        1.28045517965871
C            0.45032516828434       -0.30068909893675       -1.30532573161297
N            1.55584684969821       -0.30626200430268       -0.38854199909291
C            1.98621442533302       -1.36562733111553        0.35699523130837
C            2.99877316208545       -0.89172535950905        1.14013781890244
N            3.19365582561737        0.43407733493937        0.89692281140159
C            2.31027209383999        0.74968684041333       -0.01615486227667
H           -4.33616474080085        0.69594993664271        0.93395966397602
H           -4.14898363093006        0.24790689401974       -1.48717603848480
H           -1.94910529715506       -0.20810590182017       -2.48878043089472
H           -0.11787888011977        0.23590697175418        1.34619566341620
H           -2.30660130380696        0.68505889526343        2.33983477330377
H            0.40478971292954       -1.27528415493563       -1.80127808910993
H            0.63770426676496        0.46165808434185       -2.06796904378712
H            1.55180889600900       -2.33975872299621        0.27151006911918
H            3.60053916206304       -1.41060284447720        1.85916661001735
H            2.19447459002576        1.73097004691400       -0.43051171974223
22
 energy: -32.358329936169 gnorm: 0.001187956733 xtb: 6.7.1 (edcfbbe)
C           -3.37873893388769        0.49545389230189        0.48826739546597
C           -3.26816869060570        0.24004386823664       -0.86919460622431
C           -2.02968399638880       -0.01504070442304       -1.42767373037524
C           -0.88529404853252       -0.01705973200417       -0.63730984076169
C           -1.00246324842768        0.23960765039945        0.72035048184445
C           -2.24425800370641        0.49401864296538        1.27966724922443
C            0.44827356243650       -0.29665117710316       -1.29819850471113
N            1.55625528066231       -0.30469397618053       -0.38243163372673
C            1.99023631131667       -1.36672525001991        0.35783510590004
C            3.01056096585827       -0.89666963297466        1.13228207583491
N            3.20741807018336        0.42905881354600        0.88954887923890
C            2.31672722296968        0.74816397156655       -0.01484356949777
H           -4.34481203273402        0.69500302543225        0.92607470934643
H           -4.14907779119559        0.24015527712293       -1.49303404560066
H           -1.94566109813586       -0.21371715208590       -2.48592328573492
H           -0.12614370599375        0.24462359180329        1.35221328549735
H           -2.32035425585382        0.69216052853037        2.33821092335449
H            0.40445844322326       -1.27015928188131       -1.79648031104143
H            0.63693353524148        0.46764824892509       -2.05862410810035
H            1.55159361705241       -2.33874274251638        0.27382626984084
H            3.61708386100742       -1.42022087142214        1.84378439122812
H            2.19946317765939        1.72926316524056       -0.42887653223620
22
 energy: -32.358333525674 gnorm: 0.000548476440 xtb: 6.7.1 (edcfbbe)
C           -3.38163199735811        0.49483282002513        0.48660128991397
C           -3.26913832734038        0.23765009705305       -0.87039999735395
C           -2.02961744626181       -0.01653195394998       -1.42678786532129
C           -0.88612264484100       -0.01578321467859       -0.63506196484804
C           -1.00518990151105        0.24270953385145        0.72202077165282
C           -2.24810410974414        0.49609284915115        1.27938684804824
C            0.44805043820994       -0.29439417692766       -1.29504091650450
N            1.55593636663299       -0.30411688158037       -0.37985907374270
C            1.99099469010498       -1.36720643816740        0.35808089460496
C            3.01550901738035       -0.89925825614265        1.12867665517840
N            3.21270492351879        0.42618779021781        0.88660080245387
C            2.31999872421570        0.74716536091278       -0.01466413643561
H           -4.34846617254892        0.69369059544094        0.92288850861395
H           -4.14915778255983        0.23550781607387       -1.49534675887722
H           -1.94369226476882       -0.21678770609313       -2.48454037888543
H           -0.12959382962766        0.24990724736313        1.35488211758097
H           -2.32594742421162        0.69568979613822        2.33746806517429
H            0.40381714315467       -1.26696067904839       -1.79502302963453
H            0.63678511092514        0.47125033254345       -2.05407075082383
H            1.55070083105961       -2.33856712912668        0.27436166857318
H            3.62384060045443       -1.42412912581785        1.83758007294225
H            2.20267229726565        1.72857147822093       -0.42828222354430
22
 energy: -32.358335276532 gnorm: 0.000254889859 xtb: 6.7.1 (edcfbbe)
C           -3.38355313954351        0.49386896436963        0.48566819321949
C           -3.26980222650582        0.23511901257907       -0.87096562594395
C           -2.02951369333993       -0.01803898617390       -1.42598517988661
C           -0.88654119819074       -0.01459360373195       -0.63347158009999
C           -1.00677355216739        0.24564899878773        0.72312073962059
C           -2.25057038735825        0.49787776781031        1.27924650933496
C            0.44821232648431       -0.29212725454849       -1.29314896987194
N            1.55594899754124       -0.30376733189595       -0.37846305855587
C            1.99098301202780       -1.36759931681211        0.35821742514253
C            3.01774783281038       -0.90129930275758        1.12690235242946
N            3.21722426190588        0.42347981367084        0.88388934215496
C            2.32249887108581        0.74640317103605       -0.01458150402233
H           -4.35100634104618        0.69170586475928        0.92102712092160
H           -4.14928840299404        0.23096220318556       -1.49659723919714
H           -1.94212489267012       -0.21948285778565       -2.48338678477197
H           -0.13166498959773        0.25500377344145        1.35665764305753
H           -2.32961429885855        0.69855045418283        2.33701503482980
H            0.40323594790303       -1.26352954048450       -1.79535236556481
H            0.63679408730441        0.47512206739800       -2.05062785640288
H            1.54951098935042       -2.33847270079077        0.27441035288566
H            3.62691449561706       -1.42712915063311        1.83432712963393
H            2.20573054239081        1.72781810985246       -0.42843108014754
22
 energy: -32.358336450781 gnorm: 0.000361965035 xtb: 6.7.1 (edcfbbe)
C           -3.38449390654480        0.49264017089139        0.48541559911361
C           -3.27022513283345        0.23290420355223       -0.87099959729515
C           -2.02952714213325       -0.01922449854919       -1.42552519322411
C           -0.88669509131655       -0.01359122798724       -0.63281220555564
C           -1.00732964388736        0.24791126934915        0.72346289325457
C           -2.25163701768665        0.49892310178436        1.27915952521452
C            0.44848673107470       -0.29005464364620       -1.29249990353472
N            1.55607371833172       -0.30340167478215       -0.37795328503377
C            1.99021306038170       -1.36775532120081        0.35838842577213
C            3.01850698153916       -0.90294019063046        1.12602191767701
N            3.21928542218039        0.42164609851633        0.88305145765633
C            2.32456381650592        0.74578751659038       -0.01491201930669
H           -4.35229990594906        0.68955787521293        0.92044786880851
H           -4.14960695359001        0.22701154085897       -1.49677887377519
H           -1.94150589847968       -0.22167279763612       -2.48269380543596
H           -0.13234596547841        0.25919986654584        1.35715773701632
H           -2.33115453279148        0.70061225189325        2.33670661998921
H            0.40311360786750       -1.26042974964160       -1.79669798952822
H            0.63706404245334        0.47864725731600       -2.04853185779512
H            1.54740983538215       -2.33810723467503        0.27498180303898
H            3.62761178339322       -1.42936068102914        1.83307199183347
H            2.20884043372980        1.72721702272628       -0.42899051012462
22
 energy: -32.358338217672 gnorm: 0.000472083783 xtb: 6.7.1 (edcfbbe)
C           -3.38481655835706        0.49091055787157        0.48566071571561
C           -3.27053665475792        0.23006449218706       -0.87054372224919
C           -2.02962433962498       -0.02080259995973       -1.42512766914084
C           -0.88661521651071       -0.01259237790940       -0.63270241534362
C           -1.00716732017536        0.25026320771340        0.72328359741476
C           -2.25176689259825        0.49980375090628        1.27907370533713
C            0.44887916736616       -0.28740859851476       -1.29272710257150
N            1.55627588884277       -0.30283122323852       -0.37808933715621
C            1.98838577781462       -1.36764103281574        0.35872481195231
C            3.01765299435560       -0.90450032706628        1.12608511725797
N            3.22079955711549        0.41968851349596        0.88267518832829
C            2.32686130889004        0.74508145092267       -0.01561641825128
H           -4.35283338087210        0.68664634940326        0.92077828417385
H           -4.15007270865094        0.22235983295801       -1.49608996015457
H           -1.94146751789833       -0.22410678112459       -2.48211646540282
H           -0.13206502759781        0.26365722763504        1.35675550626541
H           -2.33134464800199        0.70235808934601        2.33645147493368
H            0.40344235549044       -1.25644777707480       -1.79950688086707
H            0.63756435503398        0.48327432614374       -2.04671888067063
H            1.54381803060849       -2.33725804892563        0.27600077298481
H            3.62591185062263       -1.43149158212561        1.83345174803851
H            2.21306722105412        1.72649270563121       -0.43023147182912
22
 energy: -32.358341969666 gnorm: 0.000522395301 xtb: 6.7.1 (edcfbbe)
C           -3.38490932049510        0.48749623390040        0.48648816004199
C           -3.27101047066132        0.22465734255613       -0.86936954210564
C           -2.02987838984228       -0.02389120095326       -1.42451334411912
C           -0.88626896285271       -0.01097386512857       -0.63301057798177
C           -1.00635383613087        0.25417443157030        0.72255049814288
C           -2.25125794585825        0.50100037815299        1.27895127202549
C            0.44964742070197       -0.28225420314765       -1.29382307917162
N            1.55669430421612       -0.30146574376606       -0.37876941831559
C            1.98424916092670       -1.36711132414163        0.35951399829295
C            3.01491490440776       -0.90716690847360        1.12692223545726
N            3.22320987799791        0.41610860641896        0.88229469861441
C            2.33111191953063        0.74386481366331       -0.01704898093785
H           -4.35312859543520        0.68131972131462        0.92203784796065
H           -4.15107169121012        0.21345176243301       -1.49415882974888
H           -1.94202696729514       -0.22899402377990       -2.48118163174954
H           -0.13076648536050        0.27148648554876        1.35524978886013
H           -2.33052635557296        0.70537742942041        2.33601542123949
H            0.40466815588573       -1.24867986263381       -1.80565773135048
H            0.63855470925653        0.49240636950201       -2.04368942821845
H            1.53605334063781       -2.33517369720307        0.27815322986179
H            3.62097683272468       -1.43537563729403        1.83530813751718
H            2.22146663657751        1.72526304749985       -0.43279212554979
22
 energy: -32.358350188554 gnorm: 0.000662706546 xtb: 6.7.1 (edcfbbe)
C           -3.38491943497109        0.48010950785416        0.48840165293353
C           -3.27205054744770        0.21224675228062       -0.86657725088847
C           -2.03049163214418       -0.03114806585573       -1.42311195669615
C           -0.88539723941592       -0.00745595460848       -0.63390974479820
C           -1.00442095377566        0.26284812294229        0.72073583484536
C           -2.24981894239838        0.50393724705604        1.27860515427486
C            0.45135390626817       -0.27071059761753       -1.29635057791684
N            1.55756265266928       -0.29801247222677       -0.38023685673236
C            1.97476136421339       -1.36564586361903        0.36126981445982
C            3.00836768707540       -0.91289182246448        1.12897658637650
N            3.22865547898872        0.40811587776230        0.88141729111191
C            2.34071005099012        0.74133036458759       -0.02015047268449
H           -4.35352488991594        0.66967724487047        0.92502725729418
H           -4.15327435564164        0.19342263904293       -1.48962777007736
H           -1.94350078617054       -0.23992233294142       -2.47913604184896
H           -0.12770120440728        0.28830325544159        1.35162381625156
H           -2.32833617863322        0.71176823800182        2.33506441522410
H            0.40786786011235       -1.23145548915974       -1.81909191188895
H            0.64068273145842        0.51255932015695       -2.03723885281224
H            1.51822424038463       -2.33004715905919        0.28253351489190
H            3.60910092689697       -1.44424778097313        1.83960132826633
H            2.24049750801297        1.72273912398787       -0.43835463082058
22
 energy: -32.358365584397 gnorm: 0.001400547391 xtb: 6.7.1 (edcfbbe)
C           -3.38483234311145        0.46380057137661        0.49261398097258
C           -3.27400955858620        0.18578679787963       -0.86051738515292
C           -2.03153613980033       -0.04617353092117       -1.42015097030833
C           -0.88338714014612        0.00045798651576       -0.63602286339045
C           -1.00033830609601        0.28142661809620        0.71671538099118
C           -2.24673319410091        0.50970703485039        1.27789534191093
C            0.45510474393982       -0.24582616610196       -1.30167193696375
N            1.55931091016370       -0.29013833727400       -0.38329715316531
C            1.95402379889923       -1.36207007911254        0.36494168551136
C            2.99415678944653       -0.92517676839124        1.13320468901630
N            3.24053220381285        0.39059278162313        0.87943573052027
C            2.36132944851209        0.73598867450573       -0.02643302835957
H           -4.35416289381897        0.64440661252713        0.93157782451513
H           -4.15777984790668        0.14936693111824       -1.47959566639655
H           -1.94650110429592       -0.26379674263186       -2.47460759315343
H           -0.12112143161254        0.32510677001727        1.34349896183819
H           -2.32350054114698        0.72606435727026        2.33284605157881
H            0.41480725731787       -1.19450779223487       -1.84708622914719
H            0.64525591982918        0.55520344706286       -2.02372877548412
H            1.47915049666673       -2.31820722832529        0.29115305637341
H            3.58300082001184       -1.46383514753892        1.84849951050582
H            2.28157835417108        1.71734336514771       -0.44980001344697
22
 energy: -32.358377241026 gnorm: 0.001655797309 xtb: 6.7.1 (edcfbbe)
C           -3.38423320512573        0.45166041211003        0.49597790686400
C           -3.27496428693398        0.16557407203892       -0.85561422010053
C           -2.03195118000086       -0.05744366434576       -1.41790158498713
C           -0.88173367431644        0.00669350735190       -0.63796429246484
C           -0.99719189901053        0.29588554575831        0.71325758267623
C           -2.24402586931166        0.51465293765112        1.27718270626417
C            0.45792172973494       -0.22748439552040       -1.30562787112003
N            1.56049432091110       -0.28404679101158       -0.38576959828582
C            1.93847293875457       -1.35892331813098        0.36716499195911
C            2.98287867453528       -0.93405685972337        1.13627285489390
N            3.24846325378540        0.37736063865531        0.87833218529831
C            2.37626338491672        0.73182549779565       -0.03090761016812
H           -4.35402463516868        0.62487617509366        0.93702095785740
H           -4.16035440515429        0.11655286114268       -1.47157137226514
H           -1.94828682382444       -0.28080834597419       -2.47126704802800
H           -0.11638330925986        0.35258048037815        1.33679172578441
H           -2.31959357250760        0.73633620449667        2.33110939347090
H            0.41988983755103       -1.16724005812728       -1.86657530020596
H            0.64865660451180        0.58536376436348       -2.01427949422290
H            1.45000836558940       -2.30845014649296        0.29644086198976
H            3.56237774628999       -1.47824963894220        1.85508902766759
H            2.31166424618263        1.71286127689188       -0.45769120411187
22
 energy: -32.358389141473 gnorm: 0.001204790218 xtb: 6.7.1 (edcfbbe)
C           -3.38331576554773        0.44243417791654        0.49857655507174
C           -3.27489590171692        0.15127413348960       -0.85189213387762
C           -2.03161663197218       -0.06486300000991       -1.41628064884602
C           -0.88032349228189        0.01176106334250       -0.63959840129687
C           -0.99495016039712        0.30658753162746        0.71049990015156
C           -2.24192733189386        0.51792559941027        1.27662321374580
C            0.45987398343534       -0.21440355848096       -1.30840415248698
N            1.56106616443968       -0.27939858235185       -0.38751951316224
C            1.92691897557395       -1.35617741624525        0.36838843500398
C            2.97426732929956       -0.94026946524333        1.13816146028082
N            3.25363965988937        0.36748060420273        0.87765509176036
C            2.38645275281568        0.72863813053981       -0.03362106870631
H           -4.35330604759492        0.60995340936752        0.94127367279294
H           -4.16131421337238        0.09212139572679       -1.46530309871792
H           -1.94891807379898       -0.29285908259677       -2.46871333048431
H           -0.11309880960583        0.37339059212530        1.33135223743310