      -----------------------------------------------------------      
     |                   =====================                   |     
     |                           x T B                           |     
     |                   =====================                   |     
     |                         S. Grimme                         |     
     |          Mulliken Center for Theoretical Chemistry        |     
     |                    University of Bonn                     |     
      -----------------------------------------------------------      

   * xtb version 6.7.1 (edcfbbe) compiled by 'albert@albert-system' on 2024-07-22

   xtb is free software: you can redistribute it and/or modify it under
   the terms of the GNU Lesser General Public License as published by
   the Free Software Foundation, either version 3 of the License, or
   (at your option) any later version.
   
   xtb is distributed in the hope that it will be useful,
   but WITHOUT ANY WARRANTY; without even the implied warranty of
   MERCHANTABILITY or FITNESS FOR A PARTICULAR PURPOSE.  See the
   GNU Lesser General Public License for more details.
   
   Cite this work as:
   * C. Bannwarth, E. Caldeweyher, S. Ehlert, A. Hansen, P. Pracht,
     J. Seibert, S. Spicher, S. Grimme, WIREs Comput. Mol. Sci., 2020, 11,
     e01493. DOI: 10.1002/wcms.1493
   
   for GFN2-xTB:
   * C. Bannwarth, S. Ehlert and S. Grimme., J. Chem. Theory Comput., 2019,
     15, 1652-1671. DOI: 10.1021/acs.jctc.8b01176
   for GFN1-xTB:
   * S. Grimme, C. Bannwarth, P. Shushkov, J. Chem. Theory Comput., 2017,
     13, 1989-2009. DOI: 10.1021/acs.jctc.7b00118
   for GFN0-xTB:
   * P. Pracht, E. Caldeweyher, S. Ehlert, S. Grimme, ChemRxiv, 2019, preprint.
     DOI: 10.26434/chemrxiv.8326202.v1
   for GFN-FF:
   * S. Spicher and S. Grimme, Angew. Chem. Int. Ed., 2020, 59, 15665-15673.
     DOI: 10.1002/anie.202004239
   
   for ALPB and GBSA implicit solvation:
   * S. Ehlert, M. Stahn, S. Spicher, S. Grimme, J. Chem. Theory Comput.,
     2021, 17, 4250-4261. DOI: 10.1021/acs.jctc.1c00471
   
   for ddCOSMO and CPCM-X implicit solvation:
   * M. Stahn, S. Ehlert, S. Grimme, J. Phys. Chem. A,
     2023, XX, XXXX-XXXX. DOI: 10.1021/acs.jpca.3c04382
   
   for DFT-D4:
   * E. Caldeweyher, C. Bannwarth and S. Grimme, J. Chem. Phys., 2017,
     147, 034112. DOI: 10.1063/1.4993215
   * E. Caldeweyher, S. Ehlert, A. Hansen, H. Neugebauer, S. Spicher,
     C. Bannwarth and S. Grimme, J. Chem. Phys., 2019, 150, 154122.
     DOI: 10.1063/1.5090222
   * E. Caldeweyher, J.-M. Mewes, S. Ehlert and S. Grimme, Phys. Chem. Chem. Phys.
     2020, 22, 8499-8512. DOI: 10.1039/D0CP00502A
   
   for sTDA-xTB:
   * S. Grimme and C. Bannwarth, J. Chem. Phys., 2016, 145, 054103.
     DOI: 10.1063/1.4959605
   
   in the mass-spec context:
   * V. Asgeirsson, C. Bauer and S. Grimme, Chem. Sci., 2017, 8, 4879.
     DOI: 10.1039/c7sc00601b
   * J. Koopman and S. Grimme, ACS Omega 2019, 4, 12, 15120-15133.
     DOI: 10.1021/acsomega.9b02011
   
   for metadynamics refer to:
   * S. Grimme, J. Chem. Theory Comput., 2019, 155, 2847-2862
     DOI: 10.1021/acs.jctc.9b00143
   
   for SPH calculations refer to:
   * S. Spicher and S. Grimme, J. Chem. Theory Comput., 2021, 17, 1701-1714
     DOI: 10.1021/acs.jctc.0c01306
   
   for ONIOM refer to:
   * C. Plett, A. Katbashev, S. Ehlert, S. Grimme, M. Bursch,
     Phys. Chem. Chem. Phys., 2023, 25, 17860-17868. DOI: 10.1039/D3CP02178E
   
   for DIPRO refer to:
   * J. Kohn, N. Gildemeister, S. Grimme, D. Fazzi, A. Hansen,
     J. Chem. Phys., 2023, just accepted.
   
   for PTB refer to:
   * S. Grimme, M. Mueller, A. Hansen, J. Chem. Phys., 2023, 158, 124111.
     DOI: 10.1063/5.0137838
   
   with help from (in alphabetical order)
   P. Atkinson, C. Bannwarth, F. Bohle, G. Brandenburg, E. Caldeweyher
   M. Checinski, S. Dohm, S. Ehlert, S. Ehrlich, I. Gerasimov, C. Hölzer
   A. Katbashev, J. Kohn, J. Koopman, C. Lavigne, S. Lehtola, F. März, M. Müller,
   F. Musil, H. Neugebauer, J. Pisarek, C. Plett, P. Pracht, F. Pultar,
   J. Seibert, P. Shushkov, S. Spicher, M. Stahn, M. Steiner, T. Strunk,
   J. Stückrath, T. Rose, and J. Unsleber
   
 * started run on 2025/04/11 at 11:50:21.369     
   ID    Z sym.   atoms
    1    6 C      1-5
    2    1 H      6-17

           -------------------------------------------------
          |                Calculation Setup                |
           -------------------------------------------------

          program call               : /srv/scratch/z5358697/.xtb/bin/xtb gas.coord --gfn2 --sp --chrg 0 --norestart --parallel 1
          hostname                   : k062
          coordinate file            : gas.coord
          omp threads                :                     1


           -------------------------------------------------
          |                 G F N 2 - x T B                 |
           -------------------------------------------------

        Reference                      10.1021/acs.jctc.8b01176
      * Hamiltonian:
        H0-scaling (s, p, d)           1.850000    2.230000    2.230000
        zeta-weighting                 0.500000
      * Dispersion:
        s8                             2.700000
        a1                             0.520000
        a2                             5.000000
        s9                             5.000000
      * Repulsion:
        kExp                           1.500000    1.000000
        rExp                           1.000000
      * Coulomb:
        alpha                          2.000000
        third order                    shell-resolved
        anisotropic                    true
        a3                             3.000000
        a5                             4.000000
        cn-shift                       1.200000
        cn-exp                         4.000000
        max-rad                        5.000000


          ...................................................
          :                      SETUP                      :
          :.................................................:
          :  # basis functions                  32          :
          :  # atomic orbitals                  32          :
          :  # shells                           22          :
          :  # electrons                        32          :
          :  max. iterations                   250          :
          :  Hamiltonian                  GFN2-xTB          :
          :  restarted?                      false          :
          :  GBSA solvation                  false          :
          :  PC potential                    false          :
          :  electronic temp.          300.0000000     K    :
          :  accuracy                    1.0000000          :
          :  -> integral cutoff          0.2500000E+02      :
          :  -> integral neglect         0.1000000E-07      :
          :  -> SCF convergence          0.1000000E-05 Eh   :
          :  -> wf. convergence          0.1000000E-03 e    :
          :  Broyden damping             0.4000000          :
          :  net charge                          0          :
          :  unpaired electrons                  0          :
          ...................................................

 iter      E             dE          RMSdq      gap      omega  full diag
   1    -17.0345471 -0.170345E+02  0.250E+00   13.71       0.0  T
   2    -17.0813369 -0.467898E-01  0.129E+00   13.46       1.0  T
   3    -17.0818475 -0.510659E-03  0.689E-01   13.46       1.0  T
   4    -17.0819828 -0.135254E-03  0.875E-02   13.46       1.0  T
   5    -17.0819888 -0.598510E-05  0.468E-02   13.46       1.0  T
   6    -17.0819896 -0.845991E-06  0.414E-03   13.46       5.9  T
   7    -17.0819897 -0.664957E-07  0.172E-03   13.46      14.1  T
   8    -17.0819897 -0.616416E-08  0.221E-04   13.46     109.9  T
   9    -17.0819897 -0.335874E-10  0.101E-04   13.46     239.6  T

   *** convergence criteria satisfied after 9 iterations ***

         #    Occupation            Energy/Eh            Energy/eV
      -------------------------------------------------------------
         1        2.0000           -0.6192966             -16.8519
       ...           ...                  ...                  ...
        10        2.0000           -0.4666254             -12.6975
        11        2.0000           -0.4560346             -12.4093
        12        2.0000           -0.4448875             -12.1060
        13        2.0000           -0.4401719             -11.9777
        14        2.0000           -0.4238353             -11.5331
        15        2.0000           -0.4186237             -11.3913
        16        2.0000           -0.4154634             -11.3053 (HOMO)
        17                          0.0791532               2.1539 (LUMO)
        18                          0.1051456               2.8612
        19                          0.1218611               3.3160
        20                          0.1385998               3.7715
        21                          0.1417655               3.8576
       ...                                ...                  ...
        32                          0.3265050               8.8847
      -------------------------------------------------------------
                  HL-Gap            0.4946166 Eh           13.4592 eV
             Fermi-level           -0.1681551 Eh           -4.5757 eV

 SCC (total)                   0 d,  0 h,  0 min,  0.012 sec
 SCC setup                      ...        0 min,  0.000 sec (  3.149%)
 Dispersion                     ...        0 min,  0.000 sec (  1.363%)
 classical contributions        ...        0 min,  0.000 sec (  0.353%)
 integral evaluation            ...        0 min,  0.002 sec ( 18.310%)
 iterations                     ...        0 min,  0.006 sec ( 52.786%)
 molecular gradient             ...        0 min,  0.003 sec ( 22.808%)
 printout                       ...        0 min,  0.000 sec (  1.052%)

         :::::::::::::::::::::::::::::::::::::::::::::::::::::
         ::                     SUMMARY                     ::
         :::::::::::::::::::::::::::::::::::::::::::::::::::::
         :: total energy             -16.825068800128 Eh    ::
         :: gradient norm              0.001018825206 Eh/a0 ::
         :: HOMO-LUMO gap             13.459201582082 eV    ::
         ::.................................................::
         :: SCC energy               -17.081967411468 Eh    ::
         :: -> isotropic ES            0.003461103405 Eh    ::
         :: -> anisotropic ES          0.005826156907 Eh    ::
         :: -> anisotropic XC          0.010862777671 Eh    ::
         :: -> dispersion             -0.008736167110 Eh    ::
         :: repulsion energy           0.256898611340 Eh    ::
         :: add. restraining           0.000000000000 Eh    ::
         :: total charge               0.000000000000 e     ::
         :::::::::::::::::::::::::::::::::::::::::::::::::::::

           -------------------------------------------------
          |                Property Printout                |
           -------------------------------------------------

    * Orbital Energies and Occupations

         #    Occupation            Energy/Eh            Energy/eV
      -------------------------------------------------------------
         1        2.0000           -0.6192966             -16.8519
       ...           ...                  ...                  ...
         4        2.0000           -0.5615101             -15.2795
         5        2.0000           -0.5481505             -14.9159
         6        2.0000           -0.5120350             -13.9332
         7        2.0000           -0.5009297             -13.6310
         8        2.0000           -0.4936041             -13.4317
         9        2.0000           -0.4807550             -13.0820
        10        2.0000           -0.4666254             -12.6975
        11        2.0000           -0.4560346             -12.4093
        12        2.0000           -0.4448875             -12.1060
        13        2.0000           -0.4401719             -11.9777
        14        2.0000           -0.4238353             -11.5331
        15        2.0000           -0.4186237             -11.3913
        16        2.0000           -0.4154634             -11.3053 (HOMO)
        17                          0.0791532               2.1539 (LUMO)
        18                          0.1051456               2.8612
        19                          0.1218611               3.3160
        20                          0.1385998               3.7715
        21                          0.1417655               3.8576
        22                          0.1516862               4.1276
        23                          0.1661889               4.5222
        24                          0.1831123               4.9827
        25                          0.1889557               5.1417
        26                          0.2064339               5.6174
        27                          0.2253683               6.1326
       ...                                ...                  ...
        32                          0.3265050               8.8847
      -------------------------------------------------------------
                  HL-Gap            0.4946166 Eh           13.4592 eV
             Fermi-level           -0.1681551 Eh           -4.5757 eV

     #   Z          covCN         q      C6AA      α(0)
     1   6 C        3.752    -0.101    22.488     6.763
     2   6 C        3.800    -0.052    21.510     6.603
     3   6 C        3.801    -0.061    21.677     6.629
     4   6 C        3.799    -0.054    21.545     6.609
     5   6 C        3.751    -0.101    22.489     6.763
     6   1 H        0.925     0.030     2.593     2.518
     7   1 H        0.925     0.036     2.499     2.472
     8   1 H        0.925     0.032     2.553     2.499
     9   1 H        0.924     0.026     2.640     2.541
    10   1 H        0.924     0.028     2.617     2.530
    11   1 H        0.924     0.025     2.655     2.548
    12   1 H        0.924     0.037     2.496     2.471
    13   1 H        0.924     0.025     2.652     2.547
    14   1 H        0.924     0.034     2.531     2.488
    15   1 H        0.925     0.030     2.591     2.517
    16   1 H        0.925     0.031     2.568     2.506
    17   1 H        0.925     0.035     2.520     2.483

 Mol. C6AA /au·bohr⁶  :       1815.903783
 Mol. C8AA /au·bohr⁸  :      37109.381053
 Mol. α(0) /au        :         63.486600


Wiberg/Mayer (AO) data.
largest (>0.10) Wiberg bond orders for each atom

 ---------------------------------------------------------------------------
     #   Z sym  total        # sym  WBO       # sym  WBO       # sym  WBO
 ---------------------------------------------------------------------------
     1   6 C    3.997 --     2 C    1.020     8 H    0.988     6 H    0.988
                             7 H    0.985
     2   6 C    3.998 --     1 C    1.020     3 C    1.009     9 H    0.979
                            10 H    0.978
     3   6 C    3.997 --     2 C    1.009     4 C    1.002    11 H    0.982
                            12 H    0.977
     4   6 C    3.997 --     5 C    1.021     3 C    1.002    13 H    0.982
                            14 H    0.976
     5   6 C    3.997 --     4 C    1.021    16 H    0.988    17 H    0.988
                            15 H    0.987
     6   1 H    0.999 --     1 C    0.988
     7   1 H    0.999 --     1 C    0.985
     8   1 H    0.999 --     1 C    0.988
     9   1 H    0.999 --     2 C    0.979
    10   1 H    0.999 --     2 C    0.978
    11   1 H    0.999 --     3 C    0.982
    12   1 H    0.999 --     3 C    0.977
    13   1 H    0.999 --     4 C    0.982
    14   1 H    0.999 --     4 C    0.976
    15   1 H    0.999 --     5 C    0.987
    16   1 H    0.999 --     5 C    0.988
    17   1 H    0.999 --     5 C    0.988
 ---------------------------------------------------------------------------

Topologies differ in total number of bonds
Writing topology from bond orders to xtbtopo.mol

molecular dipole:
                 x           y           z       tot (Debye)
 q only:        0.005      -0.026      -0.011
   full:        0.004      -0.021      -0.008       0.058
molecular quadrupole (traceless):
                xx          xy          yy          xz          yz          zz
 q only:       -0.138       0.070       0.065       0.003      -0.004       0.073
  q+dip:       -0.546      -0.282       0.054      -0.010      -0.386       0.492
   full:       -0.282      -0.119       0.016       0.020      -0.189       0.267


           -------------------------------------------------
          | TOTAL ENERGY              -16.825068800128 Eh   |
          | GRADIENT NORM               0.001018825206 Eh/α |
          | HOMO-LUMO GAP              13.459201582082 eV   |
           -------------------------------------------------

------------------------------------------------------------------------
 * finished run on 2025/04/11 at 11:50:21.412     
------------------------------------------------------------------------
 total:
 * wall-time:     0 d,  0 h,  0 min,  0.042 sec
 *  cpu-time:     0 d,  0 h,  0 min,  0.020 sec
 * ratio c/w:     0.474 speedup
 SCF:
 * wall-time:     0 d,  0 h,  0 min,  0.012 sec
 *  cpu-time:     0 d,  0 h,  0 min,  0.012 sec
 * ratio c/w:     0.989 speedup

