      -----------------------------------------------------------      
     |                   =====================                   |     
     |                           x T B                           |     
     |                   =====================                   |     
     |                         S. Grimme                         |     
     |          Mulliken Center for Theoretical Chemistry        |     
     |                    University of Bonn                     |     
      -----------------------------------------------------------      

   * xtb version 6.7.1 (edcfbbe) compiled by 'albert@albert-system' on 2024-07-22

   xtb is free software: you can redistribute it and/or modify it under
   the terms of the GNU Lesser General Public License as published by
   the Free Software Foundation, either version 3 of the License, or
   (at your option) any later version.
   
   xtb is distributed in the hope that it will be useful,
   but WITHOUT ANY WARRANTY; without even the implied warranty of
   MERCHANTABILITY or FITNESS FOR A PARTICULAR PURPOSE.  See the
   GNU Lesser General Public License for more details.
   
   Cite this work as:
   * C. Bannwarth, E. Caldeweyher, S. Ehlert, A. Hansen, P. Pracht,
     J. Seibert, S. Spicher, S. Grimme, WIREs Comput. Mol. Sci., 2020, 11,
     e01493. DOI: 10.1002/wcms.1493
   
   for GFN2-xTB:
   * C. Bannwarth, S. Ehlert and S. Grimme., J. Chem. Theory Comput., 2019,
     15, 1652-1671. DOI: 10.1021/acs.jctc.8b01176
   for GFN1-xTB:
   * S. Grimme, C. Bannwarth, P. Shushkov, J. Chem. Theory Comput., 2017,
     13, 1989-2009. DOI: 10.1021/acs.jctc.7b00118
   for GFN0-xTB:
   * P. Pracht, E. Caldeweyher, S. Ehlert, S. Grimme, ChemRxiv, 2019, preprint.
     DOI: 10.26434/chemrxiv.8326202.v1
   for GFN-FF:
   * S. Spicher and S. Grimme, Angew. Chem. Int. Ed., 2020, 59, 15665-15673.
     DOI: 10.1002/anie.202004239
   
   for ALPB and GBSA implicit solvation:
   * S. Ehlert, M. Stahn, S. Spicher, S. Grimme, J. Chem. Theory Comput.,
     2021, 17, 4250-4261. DOI: 10.1021/acs.jctc.1c00471
   
   for ddCOSMO and CPCM-X implicit solvation:
   * M. Stahn, S. Ehlert, S. Grimme, J. Phys. Chem. A,
     2023, XX, XXXX-XXXX. DOI: 10.1021/acs.jpca.3c04382
   
   for DFT-D4:
   * E. Caldeweyher, C. Bannwarth and S. Grimme, J. Chem. Phys., 2017,
     147, 034112. DOI: 10.1063/1.4993215
   * E. Caldeweyher, S. Ehlert, A. Hansen, H. Neugebauer, S. Spicher,
     C. Bannwarth and S. Grimme, J. Chem. Phys., 2019, 150, 154122.
     DOI: 10.1063/1.5090222
   * E. Caldeweyher, J.-M. Mewes, S. Ehlert and S. Grimme, Phys. Chem. Chem. Phys.
     2020, 22, 8499-8512. DOI: 10.1039/D0CP00502A
   
   for sTDA-xTB:
   * S. Grimme and C. Bannwarth, J. Chem. Phys., 2016, 145, 054103.
     DOI: 10.1063/1.4959605
   
   in the mass-spec context:
   * V. Asgeirsson, C. Bauer and S. Grimme, Chem. Sci., 2017, 8, 4879.
     DOI: 10.1039/c7sc00601b
   * J. Koopman and S. Grimme, ACS Omega 2019, 4, 12, 15120-15133.
     DOI: 10.1021/acsomega.9b02011
   
   for metadynamics refer to:
   * S. Grimme, J. Chem. Theory Comput., 2019, 155, 2847-2862
     DOI: 10.1021/acs.jctc.9b00143
   
   for SPH calculations refer to:
   * S. Spicher and S. Grimme, J. Chem. Theory Comput., 2021, 17, 1701-1714
     DOI: 10.1021/acs.jctc.0c01306
   
   for ONIOM refer to:
   * C. Plett, A. Katbashev, S. Ehlert, S. Grimme, M. Bursch,
     Phys. Chem. Chem. Phys., 2023, 25, 17860-17868. DOI: 10.1039/D3CP02178E
   
   for DIPRO refer to:
   * J. Kohn, N. Gildemeister, S. Grimme, D. Fazzi, A. Hansen,
     J. Chem. Phys., 2023, just accepted.
   
   for PTB refer to:
   * S. Grimme, M. Mueller, A. Hansen, J. Chem. Phys., 2023, 158, 124111.
     DOI: 10.1063/5.0137838
   
   with help from (in alphabetical order)
   P. Atkinson, C. Bannwarth, F. Bohle, G. Brandenburg, E. Caldeweyher
   M. Checinski, S. Dohm, S. Ehlert, S. Ehrlich, I. Gerasimov, C. Hölzer
   A. Katbashev, J. Kohn, J. Koopman, C. Lavigne, S. Lehtola, F. März, M. Müller,
   F. Musil, H. Neugebauer, J. Pisarek, C. Plett, P. Pracht, F. Pultar,
   J. Seibert, P. Shushkov, S. Spicher, M. Stahn, M. Steiner, T. Strunk,
   J. Stückrath, T. Rose, and J. Unsleber
   
 * started run on 2025/04/11 at 12:06:01.981     
   ID    Z sym.   atoms
    1    6 C      1, 7
    2    8 O      2, 4-6
    3   16 S      3
    4    1 H      8-13

           -------------------------------------------------
          |                Calculation Setup                |
           -------------------------------------------------

          program call               : /srv/scratch/z5358697/.xtb/bin/xtb xtb_rrho.coord --gfn2 --ohess vtight --chrg 0 --enso --norestart -I rrho-xcontrol-inp --parallel 1 --alpb water
          hostname                   : k022
          coordinate file            : xtb_rrho.coord
          omp threads                :                     1


           -------------------------------------------------
          |                 G F N 2 - x T B                 |
           -------------------------------------------------

        Reference                      10.1021/acs.jctc.8b01176
      * Hamiltonian:
        H0-scaling (s, p, d)           1.850000    2.230000    2.230000
        zeta-weighting                 0.500000
      * Dispersion:
        s8                             2.700000
        a1                             0.520000
        a2                             5.000000
        s9                             5.000000
      * Repulsion:
        kExp                           1.500000    1.000000
        rExp                           1.000000
      * Coulomb:
        alpha                          2.000000
        third order                    shell-resolved
        anisotropic                    true
        a3                             3.000000
        a5                             4.000000
        cn-shift                       1.200000
        cn-exp                         4.000000
        max-rad                        5.000000

      * Solvation model:               ALPB
        Solvent                        water
        Parameter file                 internal GFN2-xTB/ALPB
        Dielectric constant                8.0200E+01
        Reference state                gsolv [1 M gas/solution]
        Free energy shift                  1.0808E-03 Eh       6.7819E-01 kcal/mol
        Temperature                        2.9815E+02 K
        Density                            1.0000E+00 kg/L
        Solvent mass                       1.8000E+01 g/mol
        Interaction kernel             P16
        Born radius scaling (c1)           1.4744E+00
        Born radii integrator          GBOBC
        Born offset                        0.0000E+00 a0       0.0000E+00 AA
        H-bond correction              true
        Ion screening                  false
        Surface tension                    1.0000E-05 Eh       1.5569E+01 dyn/cm
        Grid points                               974 per atom

          ...................................................
          :                      SETUP                      :
          :.................................................:
          :  # basis functions                  40          :
          :  # atomic orbitals                  39          :
          :  # shells                           21          :
          :  # electrons                        44          :
          :  max. iterations                   250          :
          :  Hamiltonian                  GFN2-xTB          :
          :  restarted?                      false          :
          :  GBSA solvation                   true          :
          :  PC potential                    false          :
          :  electronic temp.          300.0000000     K    :
          :  accuracy                    1.0000000          :
          :  -> integral cutoff          0.2500000E+02      :
          :  -> integral neglect         0.1000000E-07      :
          :  -> SCF convergence          0.1000000E-05 Eh   :
          :  -> wf. convergence          0.1000000E-03 e    :
          :  Broyden damping             0.4000000          :
          :  net charge                          0          :
          :  unpaired electrons                  0          :
          ...................................................

 iter      E             dE          RMSdq      gap      omega  full diag
   1    -27.0197886 -0.270198E+02  0.723E+00    7.41       0.0  T
   2    -27.0398139 -0.200252E-01  0.416E+00    7.56       1.0  T
   3    -27.0461332 -0.631931E-02  0.926E-01    7.47       1.0  T
   4    -27.0474402 -0.130706E-02  0.457E-01    7.42       1.0  T
   5    -27.0479960 -0.555779E-03  0.196E-01    7.39       1.0  T
   6    -27.0481169 -0.120876E-03  0.895E-02    7.39       1.0  T
   7    -27.0481429 -0.259711E-04  0.115E-02    7.38       2.4  T
   8    -27.0481429 -0.360858E-07  0.620E-03    7.38       4.5  T
   9    -27.0481430 -0.138378E-06  0.519E-04    7.38      53.4  T
  10    -27.0481430 -0.336549E-09  0.189E-04    7.38     146.9  T

   *** convergence criteria satisfied after 10 iterations ***

         #    Occupation            Energy/Eh            Energy/eV
      -------------------------------------------------------------
         1        2.0000           -0.8166056             -22.2210
       ...           ...                  ...                  ...
        16        2.0000           -0.5078650             -13.8197
        17        2.0000           -0.4932491             -13.4220
        18        2.0000           -0.4833153             -13.1517
        19        2.0000           -0.4832477             -13.1498
        20        2.0000           -0.4708144             -12.8115
        21        2.0000           -0.4706045             -12.8058
        22        2.0000           -0.4685386             -12.7496 (HOMO)
        23                         -0.1972621              -5.3678 (LUMO)
        24                         -0.1151355              -3.1330
        25                         -0.0648223              -1.7639
        26                         -0.0451472              -1.2285
        27                         -0.0377815              -1.0281
       ...                                ...                  ...
        39                          1.0897274              29.6530
      -------------------------------------------------------------
                  HL-Gap            0.2712766 Eh            7.3818 eV
             Fermi-level           -0.3329004 Eh           -9.0587 eV

 SCC (total)                   0 d,  0 h,  0 min,  0.012 sec
 SCC setup                      ...        0 min,  0.001 sec (  6.847%)
 Dispersion                     ...        0 min,  0.000 sec (  0.442%)
 classical contributions        ...        0 min,  0.000 sec (  0.117%)
 integral evaluation            ...        0 min,  0.003 sec ( 24.487%)
 iterations                     ...        0 min,  0.004 sec ( 36.858%)
 molecular gradient             ...        0 min,  0.004 sec ( 29.821%)
 printout                       ...        0 min,  0.000 sec (  1.302%)

         :::::::::::::::::::::::::::::::::::::::::::::::::::::
         ::                     SUMMARY                     ::
         :::::::::::::::::::::::::::::::::::::::::::::::::::::
         :: total energy             -26.890505468680 Eh    ::
         :: total w/o Gsasa/hb       -26.890669444458 Eh    ::
         :: gradient norm              0.058805693896 Eh/a0 ::
         :: HOMO-LUMO gap              7.381811020497 eV    ::
         ::.................................................::
         :: SCC energy               -27.048124384205 Eh    ::
         :: -> isotropic ES            0.090161827597 Eh    ::
         :: -> anisotropic ES         -0.019322725334 Eh    ::
         :: -> anisotropic XC          0.001630883185 Eh    ::
         :: -> dispersion             -0.009325364749 Eh    ::
         :: -> Gsolv                  -0.026527213062 Eh    ::
         ::    -> Gelec               -0.026691188841 Eh    ::
         ::    -> Gsasa                0.005599181231 Eh    ::
         ::    -> Ghb                 -0.006515965151 Eh    ::
         ::    -> Gshift               0.001080759698 Eh    ::
         :: repulsion energy           0.157618915525 Eh    ::
         :: add. restraining           0.000000000000 Eh    ::
         :: total charge               0.000000000000 e     ::
         :::::::::::::::::::::::::::::::::::::::::::::::::::::

      ----------------------------------------------------------- 
     |                   =====================                   |
     |                        A N C O P T                        |
     |                   =====================                   |
     |               Approximate Normal Coordinate               |
     |                Rational Function Optimizer                |
      ----------------------------------------------------------- 
      ----------------------------------------------------------- 
     |                   =====================                   |
     |                        A N C O P T                        |
     |                   =====================                   |
     |               Approximate Normal Coordinate               |
     |                Rational Function Optimizer                |
      ----------------------------------------------------------- 

          ...................................................
          :                      SETUP                      :
          :.................................................:
          :   optimization level         verytight          :
          :   max. optcycles                   260          :
          :   ANC micro-cycles                  20          :
          :   degrees of freedom                33          :
          :.................................................:
          :   RF solver                   davidson          :
          :   write xtbopt.log                true          :
          :   linear?                        false          :
          :   energy convergence         0.1000000E-06 Eh   :
          :   grad. convergence          0.2000000E-03 Eh/α :
          :   maxmium RF displ.          1.0000000          :
          :   Hlow (freq-cutoff)         0.1000000E-01      :
          :   Hmax (freq-cutoff)         5.0000000          :
          :   S6 in model hess.         20.0000000          :
          ...................................................

generating ANC from exact Hessian ...
Using Lindh-Hessian (1995)
 Shifting diagonal of input Hessian by   5.133482857959452E-003
 Lowest  eigenvalues of input Hessian
    0.000000    0.000000    0.000000    0.000000    0.000000    0.000000
    0.010000    0.011310    0.011518    0.025925    0.026050    0.035961
    0.061529    0.075887    0.086221    0.093882    0.111850    0.118578
 Highest eigenvalues
    1.164604    1.242143    1.317732    2.109511    2.694714    3.478071
 

........................................................................
.............................. CYCLE    1 ..............................
........................................................................

 iter      E             dE          RMSdq      gap      omega  full diag
   1    -27.0481430 -0.270481E+02  0.578E-05    7.38       0.0  T
   2    -27.0481430 -0.358114E-11  0.392E-05    7.38     707.8  T
   3    -27.0481430 -0.379075E-11  0.140E-05    7.38    1979.5  T
     SCC iter.                  ...        0 min,  0.001 sec
     gradient                   ...        0 min,  0.004 sec
 * total energy  :   -26.8905055 Eh     change       -0.8009593E-10 Eh
   gradient norm :     0.0588055 Eh/α   predicted     0.0000000E+00 (-100.00%)
   displ. norm   :     0.2022466 α      lambda       -0.5295933E-02
   maximum displ.:     0.1686597 α      in ANC's #4, #10, #24, ...

........................................................................
.............................. CYCLE    2 ..............................
........................................................................

 iter      E             dE          RMSdq      gap      omega  full diag
   1    -27.0612746 -0.270613E+02  0.190E-01    7.82       0.0  T
   2    -27.0613065 -0.319664E-04  0.118E-01    7.82       1.0  T
   3    -27.0613089 -0.241886E-05  0.448E-02    7.82       1.0  T
   4    -27.0613094 -0.484134E-06  0.659E-03    7.82       4.2  T
   5    -27.0613095 -0.358278E-07  0.282E-03    7.82       9.8  T
   6    -27.0613095 -0.930749E-08  0.136E-03    7.82      20.4  T
   7    -27.0613095 -0.215864E-08  0.191E-04    7.82     145.4  T
   8    -27.0613095 -0.495746E-10  0.510E-05    7.82     544.3  T
     SCC iter.                  ...        0 min,  0.002 sec
     gradient                   ...        0 min,  0.003 sec
 * total energy  :   -26.8945627 Eh     change       -0.4057271E-02 Eh
   gradient norm :     0.0350014 Eh/α   predicted    -0.2756274E-02 ( -32.07%)
   displ. norm   :     0.2294786 α      lambda       -0.3692592E-02
   maximum displ.:     0.1936040 α      in ANC's #4, #24, #1, ...

........................................................................
.............................. CYCLE    3 ..............................
........................................................................

 iter      E             dE          RMSdq      gap      omega  full diag
   1    -27.0743166 -0.270743E+02  0.227E-01    8.51       0.0  T
   2    -27.0743589 -0.423147E-04  0.139E-01    8.52       1.0  T
   3    -27.0743615 -0.252683E-05  0.535E-02    8.52       1.0  T
   4    -27.0743620 -0.498277E-06  0.652E-03    8.52       4.3  T
   5    -27.0743620 -0.334977E-07  0.303E-03    8.52       9.1  T
   6    -27.0743620 -0.121392E-07  0.127E-03    8.52      21.8  T
   7    -27.0743620 -0.303627E-08  0.263E-04    8.52     105.4  T
   8    -27.0743620 -0.188191E-09  0.783E-05    8.52     354.2  T
     SCC iter.                  ...        0 min,  0.002 sec
     gradient                   ...        0 min,  0.003 sec
 * total energy  :   -26.8965654 Eh     change       -0.2002651E-02 Eh
   gradient norm :     0.0098578 Eh/α   predicted    -0.1943528E-02 (  -2.95%)
   displ. norm   :     0.0912720 α      lambda       -0.2233889E-03
   maximum displ.:     0.0697512 α      in ANC's #1, #4, #10, ...

........................................................................
.............................. CYCLE    4 ..............................
........................................................................

 iter      E             dE          RMSdq      gap      omega  full diag
   1    -27.0744377 -0.270744E+02  0.933E-02    8.63       0.0  T
   2    -27.0744386 -0.923716E-06  0.517E-02    8.63       1.0  T
   3    -27.0744388 -0.177777E-06  0.987E-03    8.63       2.8  T
   4    -27.0744388 -0.133330E-07  0.186E-03    8.63      14.9  T
   5    -27.0744388 -0.165748E-08  0.392E-04    8.63      70.8  T
   6    -27.0744388 -0.193005E-09  0.219E-04    8.63     126.8  T
     SCC iter.                  ...        0 min,  0.002 sec
     gradient                   ...        0 min,  0.003 sec
 * total energy  :   -26.8967352 Eh     change       -0.1698574E-03 Eh
   gradient norm :     0.0069604 Eh/α   predicted    -0.1126249E-03 ( -33.69%)
   displ. norm   :     0.1300521 α      lambda       -0.1912797E-03
   maximum displ.:     0.0990024 α      in ANC's #1, #4, #3, ...

........................................................................
.............................. CYCLE    5 ..............................
........................................................................

 iter      E             dE          RMSdq      gap      omega  full diag
   1    -27.0737924 -0.270738E+02  0.128E-01    8.70       0.0  T
   2    -27.0737939 -0.151078E-05  0.688E-02    8.70       1.0  T
   3    -27.0737942 -0.332067E-06  0.136E-02    8.70       2.0  T
   4    -27.0737943 -0.199225E-07  0.225E-03    8.70      12.3  T
   5    -27.0737943 -0.252185E-08  0.511E-04    8.70      54.3  T
   6    -27.0737943 -0.306539E-09  0.201E-04    8.70     138.1  T
     SCC iter.                  ...        0 min,  0.002 sec
     gradient                   ...        0 min,  0.003 sec
 * total energy  :   -26.8968563 Eh     change       -0.1210832E-03 Eh
   gradient norm :     0.0042333 Eh/α   predicted    -0.9725830E-04 ( -19.68%)
   displ. norm   :     0.0760236 α      lambda       -0.5539487E-04
   maximum displ.:     0.0532450 α      in ANC's #1, #3, #4, ...

........................................................................
.............................. CYCLE    6 ..............................
........................................................................

 iter      E             dE          RMSdq      gap      omega  full diag
   1    -27.0737219 -0.270737E+02  0.656E-02    8.70       0.0  T
   2    -27.0737224 -0.431644E-06  0.348E-02    8.70       1.0  T
   3    -27.0737224 -0.642259E-07  0.715E-03    8.70       3.9  T
   4    -27.0737224 -0.324746E-08  0.123E-03    8.70      22.6  T
   5    -27.0737224 -0.429612E-09  0.970E-05    8.70     286.0  T
   6    -27.0737224 -0.443734E-11  0.538E-05    8.70     515.1  T
     SCC iter.                  ...        0 min,  0.002 sec
     gradient                   ...        0 min,  0.003 sec
 * total energy  :   -26.8968976 Eh     change       -0.4125384E-04 Eh
   gradient norm :     0.0032734 Eh/α   predicted    -0.2785619E-04 ( -32.48%)
   displ. norm   :     0.0875696 α      lambda       -0.4866876E-04
   maximum displ.:     0.0671502 α      in ANC's #3, #1, #4, ...

........................................................................
.............................. CYCLE    7 ..............................
........................................................................

 iter      E             dE          RMSdq      gap      omega  full diag
   1    -27.0738241 -0.270738E+02  0.650E-02    8.67       0.0  T
   2    -27.0738245 -0.459690E-06  0.346E-02    8.67       1.0  T
   3    -27.0738246 -0.669370E-07  0.726E-03    8.67       3.8  T
   4    -27.0738246 -0.440438E-08  0.124E-03    8.67      22.3  T
   5    -27.0738246 -0.606292E-09  0.252E-04    8.67     110.0  T
   6    -27.0738246 -0.400071E-10  0.146E-04    8.67     190.0  T
     SCC iter.                  ...        0 min,  0.002 sec
     gradient                   ...        0 min,  0.003 sec
 * total energy  :   -26.8969309 Eh     change       -0.3336523E-04 Eh
   gradient norm :     0.0026227 Eh/α   predicted    -0.2452314E-04 ( -26.50%)
   displ. norm   :     0.0567514 α      lambda       -0.1996635E-04
   maximum displ.:     0.0474970 α      in ANC's #3, #1, #7, ...

........................................................................
.............................. CYCLE    8 ..............................
........................................................................

 iter      E             dE          RMSdq      gap      omega  full diag
   1    -27.0738855 -0.270739E+02  0.373E-02    8.64       0.0  T
   2    -27.0738857 -0.131831E-06  0.202E-02    8.65       1.4  T
   3    -27.0738857 -0.314700E-07  0.398E-03    8.65       7.0  T
   4    -27.0738857 -0.258677E-08  0.672E-04    8.65      41.3  T
   5    -27.0738857 -0.344283E-09  0.281E-04    8.65      98.8  T
     SCC iter.                  ...        0 min,  0.001 sec
     gradient                   ...        0 min,  0.003 sec
 * total energy  :   -26.8969466 Eh     change       -0.1567350E-04 Eh
   gradient norm :     0.0022313 Eh/α   predicted    -0.1001481E-04 ( -36.10%)
   displ. norm   :     0.0545093 α      lambda       -0.1668428E-04
   maximum displ.:     0.0469033 α      in ANC's #3, #1, #19, ...

........................................................................
.............................. CYCLE    9 ..............................
........................................................................

 iter      E             dE          RMSdq      gap      omega  full diag
   1    -27.0738856 -0.270739E+02  0.351E-02    8.62       0.0  T
   2    -27.0738856 -0.902470E-07  0.192E-02    8.62       1.4  T
   3    -27.0738857 -0.288391E-07  0.346E-03    8.62       8.0  T
   4    -27.0738857 -0.212969E-08  0.424E-04    8.62      65.5  T
   5    -27.0738857 -0.124945E-09  0.280E-04    8.62      99.0  T
     SCC iter.                  ...        0 min,  0.001 sec
     gradient                   ...        0 min,  0.003 sec
 * total energy  :   -26.8969603 Eh     change       -0.1363443E-04 Eh
   gradient norm :     0.0016668 Eh/α   predicted    -0.8366084E-05 ( -38.64%)
   displ. norm   :     0.0860383 α      lambda       -0.1455901E-04
   maximum displ.:     0.0750127 α      in ANC's #3, #1, #4, ...

........................................................................
.............................. CYCLE   10 ..............................
........................................................................

 iter      E             dE          RMSdq      gap      omega  full diag
   1    -27.0737726 -0.270738E+02  0.536E-02    8.60       0.0  T
   2    -27.0737728 -0.189904E-06  0.297E-02    8.60       1.0  T
   3    -27.0737728 -0.472709E-07  0.499E-03    8.60       5.6  T
   4    -27.0737728 -0.306708E-08  0.792E-04    8.60      35.0  T
   5    -27.0737728 -0.283112E-09  0.273E-04    8.60     101.7  T
     SCC iter.                  ...        0 min,  0.001 sec
     gradient                   ...        0 min,  0.003 sec
 * total energy  :   -26.8969758 Eh     change       -0.1553727E-04 Eh
   gradient norm :     0.0014694 Eh/α   predicted    -0.7302720E-05 ( -53.00%)
   displ. norm   :     0.0511089 α      lambda       -0.6560522E-05
   maximum displ.:     0.0464214 α      in ANC's #3, #1, #4, ...

........................................................................
.............................. CYCLE   11 ..............................
........................................................................

 iter      E             dE          RMSdq      gap      omega  full diag
   1    -27.0738174 -0.270738E+02  0.264E-02    8.60       0.0  T
   2    -27.0738175 -0.486371E-07  0.152E-02    8.60       1.8  T
   3    -27.0738175 -0.580118E-08  0.213E-03    8.60      13.0  T
   4    -27.0738175 -0.869466E-09  0.429E-04    8.60      64.7  T
   5    -27.0738175 -0.493188E-10  0.625E-05    8.60     444.0  T
     SCC iter.                  ...        0 min,  0.001 sec
     gradient                   ...        0 min,  0.003 sec
 * total energy  :   -26.8969840 Eh     change       -0.8207060E-05 Eh
   gradient norm :     0.0011693 Eh/α   predicted    -0.3284816E-05 ( -59.98%)
   displ. norm   :     0.0404911 α      lambda       -0.5489173E-05
   maximum displ.:     0.0394392 α      in ANC's #3, #1, #4, ...

........................................................................
.............................. CYCLE   12 ..............................
........................................................................

 iter      E             dE          RMSdq      gap      omega  full diag
   1    -27.0739653 -0.270740E+02  0.167E-02    8.60       0.0  T
   2    -27.0739654 -0.293018E-07  0.982E-03    8.60       2.8  T
   3    -27.0739654 -0.431315E-08  0.154E-03    8.60      18.0  T
   4    -27.0739654 -0.707633E-09  0.295E-04    8.60      94.1  T
   5    -27.0739654 -0.687166E-10  0.108E-04    8.60     256.1  T
     SCC iter.                  ...        0 min,  0.001 sec
     gradient                   ...        0 min,  0.003 sec
 * total energy  :   -26.8969908 Eh     change       -0.6758104E-05 Eh
   gradient norm :     0.0006948 Eh/α   predicted    -0.2746198E-05 ( -59.36%)
   displ. norm   :     0.0365178 α      lambda       -0.3845765E-05
   maximum displ.:     0.0357133 α      in ANC's #3, #1, #4, ...

........................................................................
.............................. CYCLE   13 ..............................
........................................................................

 iter      E             dE          RMSdq      gap      omega  full diag
   1    -27.0739998 -0.270740E+02  0.120E-02    8.61       0.0  T
   2    -27.0739998 -0.101274E-07  0.710E-03    8.61       3.9  T
   3    -27.0739998 -0.329390E-08  0.939E-04    8.61      29.5  T
   4    -27.0739998 -0.245148E-09  0.222E-04    8.61     124.8  T
     SCC iter.                  ...        0 min,  0.001 sec
     gradient                   ...        0 min,  0.003 sec
 * total energy  :   -26.8969957 Eh     change       -0.4897586E-05 Eh
   gradient norm :     0.0005116 Eh/α   predicted    -0.1925477E-05 ( -60.69%)
   displ. norm   :     0.0317360 α      lambda       -0.2869773E-05
   maximum displ.:     0.0291345 α      in ANC's #3, #1, #7, ...

........................................................................
.............................. CYCLE   14 ..............................
........................................................................

 iter      E             dE          RMSdq      gap      omega  full diag
   1    -27.0740518 -0.270741E+02  0.942E-03    8.61       0.0  T
   2    -27.0740518 -0.504840E-08  0.548E-03    8.61       5.1  T
   3    -27.0740518 -0.159231E-08  0.755E-04    8.61      36.7  T
   4    -27.0740518 -0.854747E-10  0.139E-04    8.61     200.1  T
     SCC iter.                  ...        0 min,  0.001 sec
     gradient                   ...        0 min,  0.003 sec
 * total energy  :   -26.8969996 Eh     change       -0.3936135E-05 Eh
   gradient norm :     0.0005356 Eh/α   predicted    -0.1434173E-05 ( -63.56%)
   displ. norm   :     0.0347065 α      lambda       -0.3082767E-05
   maximum displ.:     0.0302291 α      in ANC's #3, #1, #4, ...

........................................................................
.............................. CYCLE   15 ..............................
........................................................................

 iter      E             dE          RMSdq      gap      omega  full diag
   1    -27.0740143 -0.270740E+02  0.104E-02    8.61       0.0  T
   2    -27.0740143 -0.824569E-08  0.596E-03    8.61       4.7  T
   3    -27.0740143 -0.153930E-08  0.940E-04    8.61      29.5  T
   4    -27.0740143 -0.112589E-09  0.171E-04    8.61     162.2  T
     SCC iter.                  ...        0 min,  0.001 sec
     gradient                   ...        0 min,  0.003 sec
 * total energy  :   -26.8970039 Eh     change       -0.4309025E-05 Eh
   gradient norm :     0.0005109 Eh/α   predicted    -0.1541625E-05 ( -64.22%)
   displ. norm   :     0.0479298 α      lambda       -0.4017730E-05
   maximum displ.:     0.0402854 α      in ANC's #3, #1, #7, ...

........................................................................
.............................. CYCLE   16 ..............................
........................................................................

 iter      E             dE          RMSdq      gap      omega  full diag
   1    -27.0740119 -0.270740E+02  0.145E-02    8.61       0.0  T
   2    -27.0740120 -0.129212E-07  0.848E-03    8.61       3.3  T
   3    -27.0740120 -0.271872E-08  0.114E-03    8.61      24.3  T
   4    -27.0740120 -0.221373E-09  0.191E-04    8.61     145.3  T
   5    -27.0740120 -0.166658E-10  0.509E-05    8.61     544.6  T
     SCC iter.                  ...        0 min,  0.001 sec
     gradient                   ...        0 min,  0.003 sec
 * total energy  :   -26.8970094 Eh     change       -0.5448756E-05 Eh
   gradient norm :     0.0003894 Eh/α   predicted    -0.2010849E-05 ( -63.10%)
   displ. norm   :     0.0637806 α      lambda       -0.4468017E-05
   maximum displ.:     0.0531497 α      in ANC's #3, #1, #4, ...

........................................................................
.............................. CYCLE   17 ..............................
........................................................................

 iter      E             dE          RMSdq      gap      omega  full diag
   1    -27.0738863 -0.270739E+02  0.184E-02    8.60       0.0  T
   2    -27.0738864 -0.130694E-07  0.108E-02    8.60       2.6  T
   3    -27.0738864 -0.462731E-08  0.109E-03    8.60      25.5  T
   4    -27.0738864 -0.199911E-09  0.198E-04    8.60     140.3  T
   5    -27.0738864 -0.223217E-10  0.705E-05    8.60     393.4  T
     SCC iter.                  ...        0 min,  0.001 sec
     gradient                   ...        0 min,  0.003 sec
 * total energy  :   -26.8970150 Eh     change       -0.5648556E-05 Eh
   gradient norm :     0.0003502 Eh/α   predicted    -0.2236319E-05 ( -60.41%)
   displ. norm   :     0.0835140 α      lambda       -0.4366537E-05
   maximum displ.:     0.0704481 α      in ANC's #3, #1, #7, ...

........................................................................
.............................. CYCLE   18 ..............................
........................................................................

 iter      E             dE          RMSdq      gap      omega  full diag
   1    -27.0738337 -0.270738E+02  0.241E-02    8.59       0.0  T
   2    -27.0738337 -0.161447E-07  0.144E-02    8.59       1.9  T
   3    -27.0738337 -0.720445E-08  0.110E-03    8.59      25.3  T
   4    -27.0738337 -0.203752E-09  0.168E-04    8.59     165.2  T
   5    -27.0738337 -0.160583E-10  0.803E-05    8.59     345.4  T
     SCC iter.                  ...        0 min,  0.001 sec
     gradient                   ...        0 min,  0.003 sec
 * total energy  :   -26.8970198 Eh     change       -0.4761695E-05 Eh
   gradient norm :     0.0004733 Eh/α   predicted    -0.2191106E-05 ( -53.98%)
   displ. norm   :     0.0563478 α      lambda       -0.1855897E-05
   maximum displ.:     0.0496877 α      in ANC's #3, #1, #4, ...

........................................................................
.............................. CYCLE   19 ..............................
........................................................................

 iter      E             dE          RMSdq      gap      omega  full diag
   1    -27.0738424 -0.270738E+02  0.153E-02    8.59       0.0  T
   2    -27.0738424 -0.719061E-08  0.913E-03    8.59       3.0  T
   3    -27.0738424 -0.333617E-08  0.662E-04    8.59      41.9  T
   4    -27.0738424 -0.845333E-10  0.952E-05    8.59     291.3  T
     SCC iter.                  ...        0 min,  0.001 sec
     gradient                   ...        0 min,  0.003 sec
 * total energy  :   -26.8970218 Eh     change       -0.2058637E-05 Eh
   gradient norm :     0.0005187 Eh/α   predicted    -0.9308908E-06 ( -54.78%)
   displ. norm   :     0.0547086 α      lambda       -0.1536174E-05
   maximum displ.:     0.0508052 α      in ANC's #3, #1, #17, ...

........................................................................
.............................. CYCLE   20 ..............................
........................................................................

 iter      E             dE          RMSdq      gap      omega  full diag
   1    -27.0739273 -0.270739E+02  0.152E-02    8.58       0.0  T
   2    -27.0739274 -0.825574E-08  0.915E-03    8.58       3.0  T
   3    -27.0739274 -0.283143E-08  0.562E-04    8.58      49.3  T
   4    -27.0739274 -0.953762E-10  0.205E-04    8.58     135.0  T
     SCC iter.                  ...        0 min,  0.001 sec
     gradient                   ...        0 min,  0.003 sec
 * total energy  :   -26.8970235 Eh     change       -0.1647193E-05 Eh
   gradient norm :     0.0003553 Eh/α   predicted    -0.7694830E-06 ( -53.29%)
   displ. norm   :     0.0512511 α      lambda       -0.1170074E-05
   maximum displ.:     0.0495505 α      in ANC's #3, #1, #4, ...
 * RMSD in coord.:     0.2944993 α      energy gain  -0.6517999E-02 Eh

generating ANC from exact Hessian ...
Using Lindh-Hessian (1995)
 Shifting diagonal of input Hessian by   3.105048528273042E-003
 Lowest  eigenvalues of input Hessian
    0.000000    0.000000    0.000000    0.000000    0.000000    0.000000
    0.010000    0.011491    0.011650    0.027821    0.028356    0.041357
    0.069052    0.084340    0.095257    0.108227    0.122963    0.124818
 Highest eigenvalues
    1.228482    1.360760    1.446799    2.480376    3.118138    3.828149
 

........................................................................
.............................. CYCLE   21 ..............................
........................................................................

 iter      E             dE          RMSdq      gap      omega  full diag
   1    -27.0739681 -0.270740E+02  0.159E-02    8.58       0.0  T
   2    -27.0739681 -0.604295E-08  0.948E-03    8.58       2.9  T
   3    -27.0739681 -0.263429E-08  0.601E-04    8.58      46.1  T
   4    -27.0739681 -0.572804E-10  0.811E-05    8.58     342.1  T
     SCC iter.                  ...        0 min,  0.001 sec
     gradient                   ...        0 min,  0.003 sec
 * total energy  :   -26.8970247 Eh     change       -0.1239887E-05 Eh
   gradient norm :     0.0002297 Eh/α   predicted     0.0000000E+00 (-100.00%)
   displ. norm   :     0.0076733 α      lambda       -0.3605253E-06
   maximum displ.:     0.0068198 α      in ANC's #1, #3, #4, ...

........................................................................
.............................. CYCLE   22 ..............................
........................................................................

 iter      E             dE          RMSdq      gap      omega  full diag
   1    -27.0740137 -0.270740E+02  0.419E-03    8.58       0.0  T
   2    -27.0740137 -0.423871E-09  0.248E-03    8.58      11.2  T
   3    -27.0740137 -0.143334E-09  0.121E-04    8.58     229.9  T
   4    -27.0740137 -0.763123E-11  0.383E-05    8.58     724.9  T
     SCC iter.                  ...        0 min,  0.001 sec
     gradient                   ...        0 min,  0.003 sec
 * total energy  :   -26.8970252 Eh     change       -0.4470248E-06 Eh
   gradient norm :     0.0001547 Eh/α   predicted    -0.1807975E-06 ( -59.56%)
   displ. norm   :     0.0111971 α      lambda       -0.3952181E-06
   maximum displ.:     0.0090024 α      in ANC's #1, #3, #4, ...

........................................................................
.............................. CYCLE   23 ..............................
........................................................................

 iter      E             dE          RMSdq      gap      omega  full diag
   1    -27.0740170 -0.270740E+02  0.566E-03    8.58       0.0  T
   2    -27.0740170 -0.111320E-08  0.334E-03    8.58       8.3  T
   3    -27.0740170 -0.162910E-09  0.217E-04    8.58     127.7  T
   4    -27.0740170 -0.139018E-10  0.809E-05    8.58     342.8  T
     SCC iter.                  ...        0 min,  0.001 sec
     gradient                   ...        0 min,  0.003 sec
 * total energy  :   -26.8970256 Eh     change       -0.4621686E-06 Eh
   gradient norm :     0.0001307 Eh/α   predicted    -0.1990934E-06 ( -56.92%)
   displ. norm   :     0.0105851 α      lambda       -0.2275019E-06
   maximum displ.:     0.0084054 α      in ANC's #1, #3, #23, ...

........................................................................
.............................. CYCLE   24 ..............................
........................................................................

 iter      E             dE          RMSdq      gap      omega  full diag
   1    -27.0740083 -0.270740E+02  0.611E-03    8.58       0.0  T
   2    -27.0740083 -0.674710E-09  0.359E-03    8.58       7.7  T
   3    -27.0740083 -0.186496E-09  0.273E-04    8.58     101.6  T
   4    -27.0740083 -0.121538E-10  0.410E-05    8.58     675.8  T
     SCC iter.                  ...        0 min,  0.001 sec
     gradient                   ...        0 min,  0.003 sec
 * total energy  :   -26.8970259 Eh     change       -0.2605139E-06 Eh
   gradient norm :     0.0001283 Eh/α   predicted    -0.1146629E-06 ( -55.99%)
   displ. norm   :     0.0082283 α      lambda       -0.1184954E-06
   maximum displ.:     0.0063260 α      in ANC's #1, #3, #4, ...

........................................................................
.............................. CYCLE   25 ..............................
........................................................................

 iter      E             dE          RMSdq      gap      omega  full diag
   1    -27.0740127 -0.270740E+02  0.523E-03    8.58       0.0  T
   2    -27.0740127 -0.709157E-09  0.301E-03    8.58       9.2  T
   3    -27.0740127 -0.183825E-09  0.356E-04    8.58      77.9  T
   4    -27.0740127 -0.140936E-10  0.230E-05    8.58    1204.9  T
     SCC iter.                  ...        0 min,  0.001 sec
     gradient                   ...        0 min,  0.003 sec
 * total energy  :   -26.8970260 Eh     change       -0.1353746E-06 Eh
   gradient norm :     0.0001088 Eh/α   predicted    -0.5806015E-07 ( -57.11%)
   displ. norm   :     0.0075484 α      lambda       -0.8147298E-07
   maximum displ.:     0.0055902 α      in ANC's #1, #3, #4, ...

........................................................................
.............................. CYCLE   26 ..............................
........................................................................

 iter      E             dE          RMSdq      gap      omega  full diag
   1    -27.0740137 -0.270740E+02  0.517E-03    8.58       0.0  T
   2    -27.0740137 -0.113265E-08  0.293E-03    8.58       9.5  T
   3    -27.0740137 -0.251148E-09  0.419E-04    8.58      66.1  T
   4    -27.0740137 -0.180336E-10  0.449E-05    8.58     617.9  T
     SCC iter.                  ...        0 min,  0.001 sec
     gradient                   ...        0 min,  0.003 sec
 * total energy  :   -26.8970261 Eh     change       -0.8634266E-07 Eh
   gradient norm :     0.0000747 Eh/α   predicted    -0.3961712E-07 ( -54.12%)
   displ. norm   :     0.0055749 α      lambda       -0.4036902E-07
   maximum displ.:     0.0039238 α      in ANC's #3, #1, #4, ...

   *** GEOMETRY OPTIMIZATION CONVERGED AFTER 26 ITERATIONS ***

------------------------------------------------------------------------
 total energy gain   :        -0.0065206 Eh       -4.0918 kcal/mol
 total RMSD          :         0.3027952 a0        0.1602 Å
 total power (kW/mol):        -0.6584582 (step)  -94.4776 (real)
------------------------------------------------------------------------

 ANCopt (total)                0 d,  0 h,  0 min,  0.181 sec
 optimizer setup                ...        0 min,  0.000 sec (  0.148%)
 model hessian                  ...        0 min,  0.004 sec (  2.169%)
 ANC generation                 ...        0 min,  0.000 sec (  0.211%)
 coordinate transformation      ...        0 min,  0.000 sec (  0.055%)
 single point calculation       ...        0 min,  0.167 sec ( 92.103%)
 optimization log               ...        0 min,  0.007 sec (  3.711%)
 hessian update                 ...        0 min,  0.000 sec (  0.060%)
 rational function              ...        0 min,  0.002 sec (  1.017%)

================
 final structure:
================
$coord
        3.53063587605464       -2.33326091489709       -0.00680784234882      C
        1.77386315738872       -0.92545856903227       -1.51807578712627      O
       -0.00041302120103        0.90129794470693        0.00131167426851      S
       -1.41730226199583        2.28387819767717       -1.83683207375320      O
        1.41599437518747        2.28207223140285        1.84118167529889      O
       -1.77404910281163       -0.92797379155259        1.51841429932715      O
       -3.53035673034052       -2.33450721677252        0.00542157574274      C
        4.87421774148653       -3.15691466061525       -1.32406321927607      H
        2.52238618541715       -3.78937951919461        1.04316148644653      H
        4.45549989607399       -1.04236075261540        1.30230648633310      H
       -4.45521893463453       -1.04240140695706       -1.30250345726603      H
       -4.87402261278982       -3.15973068760419        1.32160871791691      H
       -2.52170920286155       -3.78939177927381       -1.04587557688005      H
$end
 
 Bond Distances (Angstroems)
 ---------------------------
C1-O2=1.4349         C1-H8=1.0869         C1-H9=1.0896         C1-H10=1.0891        O2-C1=1.4349         O2-S3=1.5692         
S3-O2=1.5692         S3-O4=1.4296         S3-O5=1.4295         S3-O6=1.5692         O4-S3=1.4296         O5-S3=1.4295         
O6-S3=1.5692         O6-C7=1.4349         C7-O6=1.4349         C7-H11=1.0891        C7-H12=1.0869        C7-H13=1.0896        
H8-C1=1.0869         H9-C1=1.0896         H10-C1=1.0891        H11-C7=1.0891        H12-C7=1.0869        H13-C7=1.0896        
 C  H  Rav=1.0885 sigma=0.0011  Rmin=1.0869  Rmax=1.0896     6
 O  C  Rav=1.4349 sigma=0.0000  Rmin=1.4349  Rmax=1.4349     2
 S  O  Rav=1.4994 sigma=0.0698  Rmin=1.4295  Rmax=1.5692     4
 
 selected bond angles (degree)
 --------------------
H8-C1-O2=105.94                H9-C1-O2=109.52                H9-C1-H8=111.33                H10-C1-O2=108.66               
H10-C1-H8=111.44               H10-C1-H9=109.83               S3-O2-C1=114.96                O4-S3-O2=106.29                
O5-S3-O2=110.49                O5-S3-O4=118.48                O6-S3-O2=103.89                O6-S3-O4=110.49                
O6-S3-O5=106.29                C7-O6-S3=114.96                H11-C7-O6=108.66               H12-C7-O6=105.94               
H12-C7-H11=111.44              H13-C7-O6=109.52               H13-C7-H11=109.83              H13-C7-H12=111.33              
 
 selected dihedral angles (degree)
 ---------------------------------
S3-O2-C1-H8=192.49            S3-O2-C1-H9= 72.31            S3-O2-C1-H10=312.33           O4-S3-O2-C1=174.65            
O5-S3-O2-C1= 44.89            O6-S3-O2-C1=291.26            C7-O6-S3-O2=291.26            C7-O6-S3-O4= 44.89            
C7-O6-S3-O5=174.65            H11-C7-O6-S3=312.35           H12-C7-O6-S3=192.51           H13-C7-O6-S3= 72.33           
           -------------------------------------------------
          |                Final Singlepoint                |
           -------------------------------------------------

          ...................................................
          :                      SETUP                      :
          :.................................................:
          :  # basis functions                  40          :
          :  # atomic orbitals                  39          :
          :  # shells                           21          :
          :  # electrons                        44          :
          :  max. iterations                   250          :
          :  Hamiltonian                  GFN2-xTB          :
          :  restarted?                      false          :
          :  GBSA solvation                   true          :
          :  PC potential                    false          :
          :  electronic temp.          300.0000000     K    :
          :  accuracy                    1.0000000          :
          :  -> integral cutoff          0.2500000E+02      :
          :  -> integral neglect         0.1000000E-07      :
          :  -> SCF convergence          0.1000000E-05 Eh   :
          :  -> wf. convergence          0.1000000E-03 e    :
          :  Broyden damping             0.4000000          :
          :  net charge                          0          :
          :  unpaired electrons                  0          :
          ...................................................

 iter      E             dE          RMSdq      gap      omega  full diag
   1    -27.0740137 -0.270740E+02  0.109E-05    8.58       0.0  T
   2    -27.0740137 -0.675016E-13  0.739E-06    8.58    3754.4  T
   3    -27.0740137 -0.497380E-13  0.154E-06    8.58   18052.3  T

   *** convergence criteria satisfied after 3 iterations ***

         #    Occupation            Energy/Eh            Energy/eV
      -------------------------------------------------------------
         1        2.0000           -0.8171640             -22.2362
       ...           ...                  ...                  ...
        16        2.0000           -0.5088504             -13.8465
        17        2.0000           -0.4959772             -13.4962
        18        2.0000           -0.4858997             -13.2220
        19        2.0000           -0.4842236             -13.1764
        20        2.0000           -0.4716250             -12.8336
        21        2.0000           -0.4700776             -12.7915
        22        2.0000           -0.4665015             -12.6942 (HOMO)
        23                         -0.1512634              -4.1161 (LUMO)
        24                         -0.0889860              -2.4214
        25                         -0.0388710              -1.0577
        26                         -0.0239956              -0.6530
        27                          0.0012524               0.0341
       ...                                ...                  ...
        39                          1.2455690              33.8937
      -------------------------------------------------------------
                  HL-Gap            0.3152381 Eh            8.5781 eV
             Fermi-level           -0.3088824 Eh           -8.4051 eV

 SCC (total)                   0 d,  0 h,  0 min,  0.006 sec
 SCC setup                      ...        0 min,  0.001 sec ( 10.821%)
 Dispersion                     ...        0 min,  0.000 sec (  0.508%)
 classical contributions        ...        0 min,  0.000 sec (  0.159%)
 integral evaluation            ...        0 min,  0.001 sec ( 20.125%)
 iterations                     ...        0 min,  0.001 sec ( 16.658%)
 molecular gradient             ...        0 min,  0.003 sec ( 49.873%)
 printout                       ...        0 min,  0.000 sec (  1.654%)

         :::::::::::::::::::::::::::::::::::::::::::::::::::::
         ::                     SUMMARY                     ::
         :::::::::::::::::::::::::::::::::::::::::::::::::::::
         :: total energy             -26.897026099213 Eh    ::
         :: total w/o Gsasa/hb       -26.897262452814 Eh    ::
         :: gradient norm              0.000074687714 Eh/a0 ::
         :: HOMO-LUMO gap              8.578066031643 eV    ::
         ::.................................................::
         :: SCC energy               -27.073997513330 Eh    ::
         :: -> isotropic ES            0.084798735585 Eh    ::
         :: -> anisotropic ES         -0.023358050812 Eh    ::
         :: -> anisotropic XC         -0.000319143747 Eh    ::
         :: -> dispersion             -0.009447080002 Eh    ::
         :: -> Gsolv                  -0.023995781924 Eh    ::
         ::    -> Gelec               -0.024232135525 Eh    ::
         ::    -> Gsasa                0.005327472403 Eh    ::
         ::    -> Ghb                 -0.006171878501 Eh    ::
         ::    -> Gshift               0.001080759698 Eh    ::
         :: repulsion energy           0.176971414116 Eh    ::
         :: add. restraining           0.000000000000 Eh    ::
         :: total charge               0.000000000000 e     ::
         :::::::::::::::::::::::::::::::::::::::::::::::::::::

           ------------------------------------------------- 
          |                Numerical Hessian                |
           ------------------------------------------------- 
step length          :   0.00500
SCC accuracy         :   0.30000
Hessian scale factor :   1.00000
frozen atoms in %    :   0.00000    0
RMS gradient         :   0.00007
estimated CPU  time      0.01 min
estimated wall time      0.01 min

writing file <hessian>.

 projected vibrational frequencies (cm⁻¹)
eigval :       -0.00    -0.00    -0.00     0.00     0.00     0.00
eigval :       79.36    80.58    94.65   121.65   220.14   221.06
eigval :      366.90   386.41   428.42   491.55   496.55   706.58
eigval :      727.96  1002.18  1010.79  1085.55  1096.86  1105.68
eigval :     1105.81  1107.68  1239.75  1354.84  1355.53  1410.42
eigval :     1410.46  1441.40  1446.55  2974.85  2975.42  2989.31
eigval :     2989.72  3017.52  3017.74
           -------------------------------------------------
          |                Property Printout                |
           -------------------------------------------------

    * Orbital Energies and Occupations

         #    Occupation            Energy/Eh            Energy/eV
      -------------------------------------------------------------
         1        2.0000           -0.8171639             -22.2362
       ...           ...                  ...                  ...
        10        2.0000           -0.5798381             -15.7782
        11        2.0000           -0.5719249             -15.5629
        12        2.0000           -0.5656043             -15.3909
        13        2.0000           -0.5601570             -15.2426
        14        2.0000           -0.5311625             -14.4537
        15        2.0000           -0.5105291             -13.8922
        16        2.0000           -0.5088504             -13.8465
        17        2.0000           -0.4959772             -13.4962
        18        2.0000           -0.4858997             -13.2220
        19        2.0000           -0.4842236             -13.1764
        20        2.0000           -0.4716250             -12.8336
        21        2.0000           -0.4700776             -12.7915
        22        2.0000           -0.4665015             -12.6942 (HOMO)
        23                         -0.1512634              -4.1161 (LUMO)
        24                         -0.0889860              -2.4214
        25                         -0.0388710              -1.0577
        26                         -0.0239956              -0.6530
        27                          0.0012524               0.0341
        28                          0.0875248               2.3817
        29                          0.1172824               3.1914
        30                          0.1397016               3.8015
        31                          0.1511086               4.1119
        32                          0.2007587               5.4629
        33                          0.2011909               5.4747
       ...                                ...                  ...
        39                          1.2455690              33.8937
      -------------------------------------------------------------
                  HL-Gap            0.3152381 Eh            8.5781 eV
             Fermi-level           -0.3088824 Eh           -8.4051 eV

     #   Z          covCN         q      C6AA      α(0)
     1   6 C        3.833    -0.017    20.862     6.498
     2   8 O        1.706    -0.459    22.011     6.334
     3  16 S        3.860     1.694    88.914    15.870
     4   8 O        0.860    -0.699    28.688     7.181
     5   8 O        0.860    -0.699    28.687     7.181
     6   8 O        1.706    -0.459    22.011     6.334
     7   6 C        3.833    -0.017    20.862     6.498
     8   1 H        0.925     0.140     1.458     1.888
     9   1 H        0.925     0.099     1.793     2.094
    10   1 H        0.925     0.089     1.885     2.147
    11   1 H        0.925     0.089     1.885     2.147
    12   1 H        0.925     0.140     1.458     1.888
    13   1 H        0.925     0.099     1.793     2.094

 Mol. C6AA /au·bohr⁶  :       2141.190713
 Mol. C8AA /au·bohr⁸  :      53571.077762
 Mol. α(0) /au        :         68.155841


Wiberg/Mayer (AO) data.
largest (>0.10) Wiberg bond orders for each atom

 ---------------------------------------------------------------------------
     #   Z sym  total        # sym  WBO       # sym  WBO       # sym  WBO
 ---------------------------------------------------------------------------
     1   6 C    3.854 --    10 H    0.978     9 H    0.977     8 H    0.965
                             2 O    0.909
     2   8 O    2.111 --     3 S    0.957     1 C    0.909
     3  16 S    4.871 --     5 O    1.457     4 O    1.457     6 O    0.957
                             2 O    0.957
     4   8 O    1.763 --     3 S    1.457     5 O    0.119
     5   8 O    1.763 --     3 S    1.457     4 O    0.119
     6   8 O    2.111 --     3 S    0.957     7 C    0.909
     7   6 C    3.854 --    11 H    0.978    13 H    0.977    12 H    0.965
                             6 O    0.909
     8   1 H    0.980 --     1 C    0.965
     9   1 H    0.990 --     1 C    0.977
    10   1 H    0.992 --     1 C    0.978
    11   1 H    0.992 --     7 C    0.978
    12   1 H    0.980 --     7 C    0.965
    13   1 H    0.990 --     7 C    0.977
 ---------------------------------------------------------------------------

Topologies differ in total number of bonds
Writing topology from bond orders to xtbtopo.mol

molecular dipole:
                 x           y           z       tot (Debye)
 q only:        0.000      -2.559      -0.002
   full:        0.000      -2.512      -0.002       6.385
molecular quadrupole (traceless):
                xx          xy          yy          xz          yz          zz
 q only:        8.796       0.004      -0.808      -2.132       0.001      -7.988
  q+dip:        7.615       0.005      -0.904      -4.022       0.000      -6.711
   full:        8.058       0.005      -0.971      -3.363       0.001      -7.087

           -------------------------------------------------
          |                Geometry Summary                 |
           -------------------------------------------------

      molecular mass/u    :      126.1315234
   center of mass at/Å    :       -0.0001369       0.0005378       0.0003986
  moments of inertia/u·Å² :        0.1662026E+03   0.2117531E+03   0.2709154E+03
rotational constants/cm⁻¹ :        0.1014282E+00   0.7960985E-01   0.6222471E-01

 * 12 selected distances

     #   Z          #   Z                                           value/Å
     1   6 C        2   8 O                                       1.4348501
     2   8 O        3  16 S                                       1.5692255 (max)
     3  16 S        4   8 O                                       1.4295502
     3  16 S        5   8 O                                       1.4295495
     3  16 S        6   8 O                                       1.5692243
     6   8 O        7   6 C                                       1.4348512
     1   6 C        8   1 H                                       1.0869125 (min)
     1   6 C        9   1 H                                       1.0895507
     1   6 C       10   1 H                                       1.0890742
     7   6 C       11   1 H                                       1.0890740
     7   6 C       12   1 H                                       1.0869126
     7   6 C       13   1 H                                       1.0895507

 * 3 distinct bonds (by element types)

   Z      Z             #   av. dist./Å        max./Å        min./Å
   1 H    6 C           6     1.0885125     1.0895507     1.0869125
   6 C    8 O           2     1.4348507     1.4348512     1.4348501
   8 O   16 S           4     1.4993874     1.5692255     1.4295495

           -------------------------------------------------
          |               Frequency Printout                |
           -------------------------------------------------
 projected vibrational frequencies (cm⁻¹)
eigval :       -0.00    -0.00    -0.00     0.00     0.00     0.00
eigval :       79.36    80.58    94.65   121.65   220.14   221.06
eigval :      366.90   386.41   428.42   491.55   496.55   706.58
eigval :      727.96  1002.18  1010.79  1085.55  1096.86  1105.68
eigval :     1105.81  1107.68  1239.75  1354.84  1355.53  1410.42
eigval :     1410.46  1441.40  1446.55  2974.85  2975.42  2989.31
eigval :     2989.72  3017.52  3017.74
 reduced masses (amu)
   1: 12.44   2: 13.73   3: 12.78   4: 18.72   5: 19.31   6: 17.68   7:  1.44   8:  4.82
   9:  6.45  10: 12.64  11: 12.32  12: 12.22  13: 15.55  14: 13.51  15: 17.17  16: 19.65
  17: 20.06  18: 17.45  19: 21.93  20: 13.82  21: 13.82  22: 14.96  23:  4.09  24:  4.15
  25:  8.41  26:  4.71  27: 22.96  28:  2.40  29:  2.46  30:  1.55  31:  1.57  32:  1.63
  33:  1.62  34:  1.57  35:  1.58  36:  1.68  37:  1.68  38:  1.92  39:  1.93
 IR intensities (km·mol⁻¹)
   1:  6.56   2:  5.69   3:  1.80   4:  0.04   5:  1.22   6:  1.43   7:  0.25   8:  1.85
   9:  4.25  10:  3.59  11:  8.10  12:  8.31  13:  2.23  14: 30.57  15:122.69  16:167.83
  17:142.08  18:160.04  19:615.49  20:262.81  21:159.41  22:325.69  23: 13.68  24: 13.01
  25:105.25  26: 13.29  27:695.62  28: 10.71  29: 15.77  30: 28.26  31: 17.32  32: 25.44
  33:  0.00  34:  9.33  35:  8.91  36:  0.56  37: 13.47  38:  1.12  39:  0.73
 Raman intensities (Ä⁴*amu⁻¹)
   1:  0.00   2:  0.00   3:  0.00   4:  0.00   5:  0.00   6:  0.00   7:  0.00   8:  0.00
   9:  0.00  10:  0.00  11:  0.00  12:  0.00  13:  0.00  14:  0.00  15:  0.00  16:  0.00
  17:  0.00  18:  0.00  19:  0.00  20:  0.00  21:  0.00  22:  0.00  23:  0.00  24:  0.00
  25:  0.00  26:  0.00  27:  0.00  28:  0.00  29:  0.00  30:  0.00  31:  0.00  32:  0.00
  33:  0.00  34:  0.00  35:  0.00  36:  0.00  37:  0.00  38:  0.00  39:  0.00
 output can be read by thermo (or use thermo option).
 writing <g98.out> molden fake output.
 recommended (thermochemical) frequency scaling factor: 1.0
           -------------------------------------------------
          |             Thermodynamic Functions             |
           -------------------------------------------------

Molecule has the following symmetry elements: (C2) 
It seems to be the C2 point group
c2  symmetry found (for desy threshold:  0.10E+00) used in thermo

          ...................................................
          :                      SETUP                      :
          :.................................................:
          :  # frequencies                          33      :
          :  # imaginary freq.                       0      :
          :  linear?                             false      :
          :  only rotor calc.                    false      :
          :  symmetry                               c2      :
          :  rotational number                       2      :
          :  scaling factor                  1.0000000      :
          :  rotor cutoff                    0.0000000 cm⁻¹ :
          :  imag. cutoff                 -100.0000000 cm⁻¹ :
          :.................................................:

    mode    ω/cm⁻¹     T·S(HO)/kcal·mol⁻¹    T·S(FR)/kcal·mol⁻¹   T·S(vib)
   ------------------------------------------------------------------------
       1     79.36    -1.16476 (100.00%)    -0.91940 (  0.00%)    -1.16476
       2     80.58    -1.15582 (100.00%)    -0.91488 (  0.00%)    -1.15582
       3     94.65    -1.06187 (100.00%)    -0.86725 (  0.00%)    -1.06187
       4    121.65    -0.91652 (100.00%)    -0.79297 (  0.00%)    -0.91652
       5    220.14    -0.58376 (100.00%)    -0.61735 (  0.00%)    -0.58376
       6    221.06    -0.58150 (100.00%)    -0.61611 (  0.00%)    -0.58150
   ------------------------------------------------------------------------

   temp. (K)  partition function   enthalpy   heat capacity  entropy
                                   cal/mol     cal/K/mol   cal/K/mol   J/K/mol
 298.15  VIB   310.                 3713.359     22.951     23.854
         ROT  0.118E+06              888.752      2.981     26.188
         INT  0.366E+08             4602.111     25.932     50.042
         TR   0.137E+28             1481.254      4.968     40.392
         TOT                        6083.3649    30.8998    90.4339   378.3755

       T/K    H(0)-H(T)+PV         H(T)/Eh          T*S/Eh         G(T)/Eh
   ------------------------------------------------------------------------
    298.15    0.969446E-02    0.998184E-01    0.429681E-01    0.568503E-01
   ------------------------------------------------------------------------

         :::::::::::::::::::::::::::::::::::::::::::::::::::::
         ::                  THERMODYNAMIC                  ::
         :::::::::::::::::::::::::::::::::::::::::::::::::::::
         :: total free energy         -26.840175766350 Eh   ::
         ::.................................................::
         :: total energy              -26.897026099195 Eh   ::
         :: zero point energy           0.090123946715 Eh   ::
         :: G(RRHO) w/o ZPVE           -0.033273613869 Eh   ::
         :: G(RRHO) contrib.            0.056850332845 Eh   ::
         :::::::::::::::::::::::::::::::::::::::::::::::::::::

optimized geometry written to: xtbopt.coord


           -------------------------------------------------
          | TOTAL ENERGY              -26.897026099195 Eh   |
          | TOTAL ENTHALPY            -26.797207693488 Eh   |
          | TOTAL FREE ENERGY         -26.840175766350 Eh   |
          | GRADIENT NORM               0.000074684213 Eh/α |
          | HOMO-LUMO GAP               8.578066094930 eV   |
           -------------------------------------------------

------------------------------------------------------------------------
 * finished run on 2025/04/11 at 12:06:02.763     
------------------------------------------------------------------------
 total:
 * wall-time:     0 d,  0 h,  0 min,  0.782 sec
 *  cpu-time:     0 d,  0 h,  0 min,  0.711 sec
 * ratio c/w:     0.909 speedup
 SCF:
 * wall-time:     0 d,  0 h,  0 min,  0.012 sec
 *  cpu-time:     0 d,  0 h,  0 min,  0.012 sec
 * ratio c/w:     0.948 speedup
 ANC optimizer:
 * wall-time:     0 d,  0 h,  0 min,  0.198 sec
 *  cpu-time:     0 d,  0 h,  0 min,  0.183 sec
 * ratio c/w:     0.925 speedup
 analytical hessian:
 * wall-time:     0 d,  0 h,  0 min,  0.515 sec
 *  cpu-time:     0 d,  0 h,  0 min,  0.505 sec
 * ratio c/w:     0.981 speedup

