
                                 *****************
                                 * O   R   C   A *
                                 *****************

                                            #,                                       
                                            ###                                      
                                            ####                                     
                                            #####                                    
                                            ######                                   
                                           ########,                                 
                                     ,,################,,,,,                         
                               ,,#################################,,                 
                          ,,##########################################,,             
                       ,#########################################, ''#####,          
                    ,#############################################,,   '####,        
                  ,##################################################,,,,####,       
                ,###########''''           ''''###############################       
              ,#####''   ,,,,##########,,,,          '''####'''          '####       
            ,##' ,,,,###########################,,,                        '##       
           ' ,,###''''                  '''############,,,                           
         ,,##''                                '''############,,,,        ,,,,,,###''
      ,#''                                            '''#######################'''  
     '                                                          ''''####''''         
             ,#######,   #######,   ,#######,      ##                                
            ,#'     '#,  ##    ##  ,#'     '#,    #''#        ,####,   ,####,        
            ##       ##  ##   ,#'  ##            #'  '#       #'       #'  '#        
            ##       ##  #######   ##           ,######,      #####,   #    #        
            '#,     ,#'  ##    ##  '#,     ,#' ,#      #,     #,   #   #,  ,#        
             '#######'   ##     ##  '#######'  #'      '#     '####' # '####'        



                #########################################################
                #                        -***-                          #
                #          Department of theory and spectroscopy        #
                #                                                       #
                #                      Frank Neese                      #
                #                                                       #
                #     Directorship, Architecture, Infrastructure        #
                #                    SHARK, DRIVERS                     #
                #        Core code/Algorithms in most modules           #
                #                                                       #
                #        Max Planck Institute fuer Kohlenforschung      #
                #                Kaiser Wilhelm Platz 1                 #
                #                 D-45470 Muelheim/Ruhr                 #
                #                      Germany                          #
                #                                                       #
                #                  All rights reserved                  #
                #                        -***-                          #
                #########################################################


                         Program Version 6.0.0  -   RELEASE  -


 With contributions from (in alphabetic order):
   Daniel Aravena         : Magnetic Suceptibility
   Michael Atanasov       : Ab Initio Ligand Field Theory (pilot matlab implementation)
   Alexander A. Auer      : GIAO ZORA, VPT2 properties, NMR spectrum
   Ute Becker             : All parallelization in ORCA, NUMFREQ, NUMCALC
   Giovanni Bistoni       : ED, misc. LED, open-shell LED, HFLD
   Martin Brehm           : Molecular dynamics
   Dmytro Bykov           : pre 5.0 version of the SCF Hessian
   Marcos Casanova-Páez   : Triplet and SCS-CIS(D). UHF-(DLPNO)-IP/EA/STEOM-CCSD. UHF-CVS-IP/STEOM-CCSD
   Vijay G. Chilkuri      : MRCI spin determinant printing, contributions to CSF-ICE
   Pauline Colinet        : FMM embedding
   Dipayan Datta          : RHF DLPNO-CCSD density
   Achintya Kumar Dutta   : EOM-CC, STEOM-CC
   Nicolas Foglia         : Exact transition moments, OPA infrastructure, MCD improvements
   Dmitry Ganyushin       : Spin-Orbit,Spin-Spin,Magnetic field MRCI
   Miquel Garcia          : C-PCM and meta-GGA Hessian, CCSD/C-PCM, Gaussian charge scheme
   Tiago L. C. Gouveia    : GS-ROHF, GS-ROCIS
   Yang Guo               : DLPNO-NEVPT2, F12-NEVPT2, CIM, IAO-localization
   Andreas Hansen         : Spin unrestricted coupled pair/coupled cluster methods
   Ingolf Harden          : AUTO-CI MPn and infrastructure 
   Benjamin Helmich-Paris : MC-RPA, TRAH-(SCF,CASSCF), AVAS, COSX integrals, SCF dyn. polar.
   Lee Huntington         : MR-EOM, pCC
   Robert Izsak           : Overlap fitted RIJCOSX, COSX-SCS-MP3, EOM
   Riya Kayal             : Wick's Theorem for AUTO-CI, AUTO-CI UHF-CCSDT
   Emily Kempfer          : AUTO-CI, RHF CISDT and CCSDT
   Christian Kollmar      : KDIIS, OOCD, Brueckner-CCSD(T), CCSD density, CASPT2, CASPT2-K, improved NEVPT2
   Axel Koslowski         : Symmetry handling
   Simone Kossmann        : Meta GGA functionals, TD-DFT gradient, OOMP2, (MP2 Hessian; deprecated post 5.0)
   Lucas Lang             : DCDCAS
   Marvin Lechner         : AUTO-CI (C++ implementation), FIC-MRCC
   Spencer Leger          : CASSCF response
   Dagmar Lenk            : GEPOL surface, SMD, ORCA-2-JSON
   Dimitrios Liakos       : Extrapolation schemes; Compound Job, initial MDCI parallelization
   Dimitrios Manganas     : Further ROCIS development; embedding schemes. LFT, Crystal Embedding
   Dimitrios Pantazis     : SARC Basis sets
   Anastasios Papadopoulos: AUTO-CI, single reference methods and gradients
   Taras Petrenko         : pre 6.0 DFT Hessian and TD-DFT gradient, (ASA, deprecated), ECA, 1-Electron XAS/XES, NRVS
   Peter Pinski           : DLPNO-MP2, DLPNO-MP2 Gradient
   Christoph Reimann      : Effective Core Potentials
   Marius Retegan         : Local ZFS, SOC
   Christoph Riplinger    : Optimizer, TS searches, QM/MM, DLPNO-CCSD(T), (RO)-DLPNO pert. Triples
   Michael Roemelt        : Original ROCIS implementation
   Masaaki Saitow         : Open-shell DLPNO-CCSD energy and density
   Barbara Sandhoefer     : DKH picture change effects
   Kantharuban Sivalingam : CASSCF convergence/infrastructure, NEVPT2 and variants, FIC-MRCI
   Bernardo de Souza      : ESD, SOC TD-DFT
   Georgi Stoychev        : AutoAux, RI-MP2 NMR, DLPNO-MP2 response, X2C
   Van Anh Tran           : RI-MP2 g-tensors
   Willem Van den Heuvel  : Paramagnetic NMR
   Zikuan Wang            : NOTCH, Electric field optimization 
   Frank Wennmohs         : Technical directorship and infrastructure
   Hang Xu                : AUTO-CI-Response properties 


 We gratefully acknowledge several colleagues who have allowed us to
 interface, adapt or use parts of their codes:
   Stefan Grimme, W. Hujo, H. Kruse, P. Pracht,  : VdW corrections, initial TS optimization,
                  C. Bannwarth, S. Ehlert,         DFT functionals, gCP, sTDA/sTD-DF
                  L. Wittmann, M. Mueller
   Ed Valeev, F. Pavosevic, A. Kumar             : LibInt (2-el integral package), F12 methods
   Garnet Chan, S. Sharma, J. Yang, R. Olivares  : DMRG
   Ulf Ekstrom                                   : XCFun DFT Library
   Mihaly Kallay                                 : mrcc  (arbitrary order and MRCC methods)
   Frank Weinhold                                : gennbo (NPA and NBO analysis)
   Simon Mueller                                 : openCOSMO-RS
   Christopher J. Cramer and Donald G. Truhlar   : smd solvation model
   Lars Goerigk                                  : TD-DFT with DH, B97 family of functionals
   V. Asgeirsson, H. Jonsson                     : NEB implementation
   FAccTs GmbH                                   : IRC, NEB, NEB-TS, DLPNO-Multilevel, CI-OPT
                                                   MM, QMMM, 2- and 3-layer-ONIOM, Crystal-QMMM,
                                                   LR-CPCM, SF, NACMEs, symmetry and pop. for TD-DFT,
                                                   nearIR, NL-DFT gradient (VV10), updates on ESD,
                                                   ML-optimized integration grids, MBIS, APM,
                                                   GOAT, DOCKER, SOLVATOR, interface openCOSMO-RS
   S Lehtola, MJT Oliveira, MAL Marques          : LibXC Library
   Liviu Ungur et al                             : ANISO software


 Your calculation uses the libint2 library for the computation of 2-el integrals
 For citations please refer to: http://libint.valeyev.net

 Your ORCA version has been built with support for libXC version: 6.2.2
 For citations please refer to: https://libxc.gitlab.io

 This ORCA versions uses:
   CBLAS   interface :  Fast vector & matrix operations
   LAPACKE interface :  Fast linear algebra routines
   SCALAPACK package :  Parallel linear algebra routines
   Shared memory     :  Shared parallel matrices
   BLAS/LAPACK       :  OpenBLAS 0.3.27  USE64BITINT DYNAMIC_ARCH NO_AFFINITY SkylakeX SINGLE_THREADED
        Core in use  :  SkylakeX
   Copyright (c) 2011-2014, The OpenBLAS Project


Your calculation utilizes the geometrical counterpoise correction gCP
Please cite in your paper:
H.Kruse, S. Grimme J.Chem.Phys., 136, (2012), 154101 
   

Your calculation utilizes the atom-pairwise dispersion correction
based on EEQ partial charges (D4)


Your calculation utilizes the SMD solvation module
Please cite in your paper:
A.V. Marenich, C.J. Cramer, D.G. Truhlar J. Phys. Chem. B, 113, (2009), 6378 

================================================================================

----- Orbital basis set information -----
Your calculation utilizes the basis: def2-mTZVPP
   Stefan Grimme, Andreas Hansen, Sebastian Ehlert, and Jan-Michael Mewes 
   J. Chem. Phys. 154, 064103 (2021). DOI: 10.1063/5.0040021

----- AuxJ basis set information -----
Your calculation utilizes the auxiliary basis: def2/J
   F. Weigend, Phys. Chem. Chem. Phys. 8, 1057 (2006).

================================================================================
                                        WARNINGS
                       Please study these warnings very carefully!
================================================================================

Using LibXC functional ID 497 : Re-regularized SCAN exchange by Furness et al
[ 1]  J. W. Furness, A. D. Kaplan, J. Ning, J. P. Perdew, and J. Sun.,  J. Phys. Chem. Lett. 11, 8208-8215 (2020)
[ 2]  J. W. Furness, A. D. Kaplan, J. Ning, J. P. Perdew, and J. Sun.,  J. Phys. Chem. Lett. 11, 9248-9248 (2020)
Using LibXC functional ID 498 : Re-regularized SCAN correlation by Furness et al
[ 1]  J. W. Furness, A. D. Kaplan, J. Ning, J. P. Perdew, and J. Sun.,  J. Phys. Chem. Lett. 11, 8208-8215 (2020)
[ 2]  J. W. Furness, A. D. Kaplan, J. Ning, J. P. Perdew, and J. Sun.,  J. Phys. Chem. Lett. 11, 9248-9248 (2020)
Using LibXC functional ID 497 : Re-regularized SCAN exchange by Furness et al
[ 1]  J. W. Furness, A. D. Kaplan, J. Ning, J. P. Perdew, and J. Sun.,  J. Phys. Chem. Lett. 11, 8208-8215 (2020)
[ 2]  J. W. Furness, A. D. Kaplan, J. Ning, J. P. Perdew, and J. Sun.,  J. Phys. Chem. Lett. 11, 9248-9248 (2020)
Using LibXC functional ID 498 : Re-regularized SCAN correlation by Furness et al
[ 1]  J. W. Furness, A. D. Kaplan, J. Ning, J. P. Perdew, and J. Sun.,  J. Phys. Chem. Lett. 11, 8208-8215 (2020)
[ 2]  J. W. Furness, A. D. Kaplan, J. Ning, J. P. Perdew, and J. Sun.,  J. Phys. Chem. Lett. 11, 9248-9248 (2020)

================================================================================
                                       INPUT FILE
================================================================================
NAME = sp_solv.inp
|  1> ! r2scan-3c def2/J RI DEFGRID2 scfconv6 printgap
|  2> %output
|  3>     printlevel normal
|  4> end
|  5> %cpcm
|  6>     smd true
|  7>     smdsolvent "water"
|  8> end
|  9> * xyz 0 1
| 10> C 2.2045647721 0.8053215328 0.4396904148
| 11> C 1.41540193 -0.4467070847 0.069203164
| 12> C 0.3166579357 -0.1822948009 -0.9708671494
| 13> C -1.1079157335 -0.014410451 -0.4183673691
| 14> C -1.21460471 1.1149934479 0.6032387125
| 15> C -1.643935292 -1.3186542622 0.1706004696
| 16> H 2.6921980426 1.2193015828 -0.4405288718
| 17> H 1.557022121 1.5681849347 0.8617779409
| 18> H 2.9722329919 0.5639670856 1.1720484526
| 19> H 2.1147833603 -1.1829315248 -0.3329438823
| 20> H 0.9815664714 -0.8787098552 0.9712249858
| 21> H 0.5776604416 0.7160120815 -1.5348978893
| 22> H 0.291733378 -1.0111399148 -1.6822473472
| 23> H -1.743360347 0.246938579 -1.2739839255
| 24> H -2.2543216331 1.2657700894 0.8861322689
| 25> H -0.8363243746 2.0454116078 0.1861920069
| 26> H -0.6516295988 0.8780731363 1.5021641337
| 27> H -2.6833320736 -1.1973341457 0.467006142
| 28> H -1.5868960602 -2.1208430346 -0.5615631079
| 29> H -1.0758397983 -1.6151525654 1.0487852917
| 30> *
| 31> 
| 32>                          ****END OF INPUT****
================================================================================

                       ****************************
                       * Single Point Calculation *
                       ****************************

---------------------------------
CARTESIAN COORDINATES (ANGSTROEM)
---------------------------------
  C      2.204565    0.805322    0.439690
  C      1.415402   -0.446707    0.069203
  C      0.316658   -0.182295   -0.970867
  C     -1.107916   -0.014410   -0.418367
  C     -1.214605    1.114993    0.603239
  C     -1.643935   -1.318654    0.170600
  H      2.692198    1.219302   -0.440529
  H      1.557022    1.568185    0.861778
  H      2.972233    0.563967    1.172048
  H      2.114783   -1.182932   -0.332944
  H      0.981566   -0.878710    0.971225
  H      0.577660    0.716012   -1.534898
  H      0.291733   -1.011140   -1.682247
  H     -1.743360    0.246939   -1.273984
  H     -2.254322    1.265770    0.886132
  H     -0.836324    2.045412    0.186192
  H     -0.651630    0.878073    1.502164
  H     -2.683332   -1.197334    0.467006
  H     -1.586896   -2.120843   -0.561563
  H     -1.075840   -1.615153    1.048785

----------------------------
CARTESIAN COORDINATES (A.U.)
----------------------------
  NO LB      ZA    FRAG     MASS         X           Y           Z
   0 C     6.0000    0    12.011    4.166024    1.521837    0.830894
   1 C     6.0000    0    12.011    2.674722   -0.844154    0.130775
   2 C     6.0000    0    12.011    0.598397   -0.344487   -1.834673
   3 C     6.0000    0    12.011   -2.093657   -0.027232   -0.790600
   4 C     6.0000    0    12.011   -2.295270    2.107032    1.139956
   5 C     6.0000    0    12.011   -3.106587   -2.491895    0.322388
   6 H     1.0000    0     1.008    5.087517    2.304146   -0.832479
   7 H     1.0000    0     1.008    2.942345    2.963440    1.628524
   8 H     1.0000    0     1.008    5.616706    1.065743    2.214851
   9 H     1.0000    0     1.008    3.996361   -2.235417   -0.629173
  10 H     1.0000    0     1.008    1.854892   -1.660521    1.835349
  11 H     1.0000    0     1.008    1.091620    1.353067   -2.900537
  12 H     1.0000    0     1.008    0.551296   -1.910778   -3.178987
  13 H     1.0000    0     1.008   -3.294474    0.466646   -2.407481
  14 H     1.0000    0     1.008   -4.260051    2.391959    1.674547
  15 H     1.0000    0     1.008   -1.580424    3.865268    0.351852
  16 H     1.0000    0     1.008   -1.231401    1.659318    2.838679
  17 H     1.0000    0     1.008   -5.070763   -2.262634    0.882514
  18 H     1.0000    0     1.008   -2.998799   -4.007813   -1.061200
  19 H     1.0000    0     1.008   -2.033043   -3.052196    1.981917

--------------------------------
INTERNAL COORDINATES (ANGSTROEM)
--------------------------------
 C      0   0   0     0.000000000000     0.00000000     0.00000000
 C      1   0   0     1.525652140363     0.00000000     0.00000000
 C      2   1   0     1.535870592742   113.15432005     0.00000000
 C      3   2   1     1.537156888919   116.00147857   260.94319543
 C      4   3   2     1.526635087544   112.71152899    57.53297389
 C      4   3   2     1.528153134071   111.73945099   292.49145246
 H      1   2   3     1.088095437358   110.34028640   299.87176737
 H      1   2   3     1.086015623571   111.24893050    60.12891603
 H      1   2   3     1.088078471621   110.26462191   180.37563805
 H      2   1   3     1.092191859564   108.14185746   120.78809240
 H      2   1   3     1.090175658260   109.27583910   236.92502305
 H      3   2   1     1.092340715439   108.68159796    23.45616007
 H      3   2   1     1.092550796180   109.06521458   139.83074147
 H      4   3   2     1.097348105158   106.40473128   175.43868545
 H      5   4   3     1.088013621264   110.07800518   174.00815378
 H      5   4   3     1.087520997073   110.60950527    54.39666188
 H      5   4   3     1.086802246390   110.85652415   293.52298854
 H      6   4   3     1.087621516383   110.18441750   185.37125016
 H      6   4   3     1.087577033937   110.58893393   305.21193701
 H      6   4   3     1.087130312120   111.15010343    65.63662304

---------------------------
INTERNAL COORDINATES (A.U.)
---------------------------
 C      0   0   0     0.000000000000     0.00000000     0.00000000
 C      1   0   0     2.883064720918     0.00000000     0.00000000
 C      2   1   0     2.902374797426   113.15432005     0.00000000
 C      3   2   1     2.904805544927   116.00147857   260.94319543
 C      4   3   2     2.884922221892   112.71152899    57.53297389
 C      4   3   2     2.887790914088   111.73945099   292.49145246
 H      1   2   3     2.056202384176   110.34028640   299.87176737
 H      1   2   3     2.052272105710   111.24893050    60.12891603
 H      1   2   3     2.056170323579   110.26462191   180.37563805
 H      2   1   3     2.063943500273   108.14185746   120.78809240
 H      2   1   3     2.060133431978   109.27583910   236.92502305
 H      3   2   1     2.064224797111   108.68159796    23.45616007
 H      3   2   1     2.064621792179   109.06521458   139.83074147
 H      4   3   2     2.073687392326   106.40473128   175.43868545
 H      5   4   3     2.056047774164   110.07800518   174.00815378
 H      5   4   3     2.055116849356   110.60950527    54.39666188
 H      5   4   3     2.053758607408   110.85652415   293.52298854
 H      6   4   3     2.055306803324   110.18441750   185.37125016
 H      6   4   3     2.055222743683   110.58893393   305.21193701
 H      6   4   3     2.054378561791   111.15010343    65.63662304

---------------------
BASIS SET INFORMATION
---------------------
There are 2 groups of distinct atoms

 Group   1 Type C   : 11s6p1d contracted to 5s3p1d pattern {62111/411/1}
 Group   2 Type H   : 4s1p contracted to 2s1p pattern {31/1}

Atom   0C    basis set group =>   1
Atom   1C    basis set group =>   1
Atom   2C    basis set group =>   1
Atom   3C    basis set group =>   1
Atom   4C    basis set group =>   1
Atom   5C    basis set group =>   1
Atom   6H    basis set group =>   2
Atom   7H    basis set group =>   2
Atom   8H    basis set group =>   2
Atom   9H    basis set group =>   2
Atom  10H    basis set group =>   2
Atom  11H    basis set group =>   2
Atom  12H    basis set group =>   2
Atom  13H    basis set group =>   2
Atom  14H    basis set group =>   2
Atom  15H    basis set group =>   2
Atom  16H    basis set group =>   2
Atom  17H    basis set group =>   2
Atom  18H    basis set group =>   2
Atom  19H    basis set group =>   2
---------------------------------
AUXILIARY/J BASIS SET INFORMATION
---------------------------------
There are 2 groups of distinct atoms

 Group   1 Type C   : 12s5p4d2f1g contracted to 6s4p3d1f1g pattern {711111/2111/211/2/1}
 Group   2 Type H   : 5s2p1d contracted to 3s1p1d pattern {311/2/1}

Atom   0C    basis set group =>   1
Atom   1C    basis set group =>   1
Atom   2C    basis set group =>   1
Atom   3C    basis set group =>   1
Atom   4C    basis set group =>   1
Atom   5C    basis set group =>   1
Atom   6H    basis set group =>   2
Atom   7H    basis set group =>   2
Atom   8H    basis set group =>   2
Atom   9H    basis set group =>   2
Atom  10H    basis set group =>   2
Atom  11H    basis set group =>   2
Atom  12H    basis set group =>   2
Atom  13H    basis set group =>   2
Atom  14H    basis set group =>   2
Atom  15H    basis set group =>   2
Atom  16H    basis set group =>   2
Atom  17H    basis set group =>   2
Atom  18H    basis set group =>   2
Atom  19H    basis set group =>   2

Checking for AutoStart:
The File: sp_solv.gbw exists
Trying to determine its content:
     ... Fine, the file contains calculation information
     ... Fine, the calculation information was read
     ... Fine, the file contains a basis set
     ... Fine, the basis set was read
     ... Fine, the file contains a geometry
     ... Fine, the geometry was read
     ... Fine, the file contains a set of orbitals
     ... Fine, the orbitals can be read
     => possible old guess file was deleted
     => GBW file was renamed to GES file
     => GES file is set as startup file
     => Guess is set to MORead
     ... now leaving AutoStart

------------------------------------------------------------------------------
                             ORCA STARTUP CALCULATIONS
                           -- RI-GTO INTEGRALS CHOSEN --
------------------------------------------------------------------------------
------------------------------------------------------------------------------
                   ___                                                        
                  /   \      - P O W E R E D   B Y -                         
                 /     \                                                     
                 |  |  |   _    _      __       _____    __    __             
                 |  |  |  | |  | |    /  \     |  _  \  |  |  /  |          
                  \  \/   | |  | |   /    \    | | | |  |  | /  /          
                 / \  \   | |__| |  /  /\  \   | |_| |  |  |/  /          
                |  |  |   |  __  | /  /__\  \  |    /   |      \           
                |  |  |   | |  | | |   __   |  |    \   |  |\   \          
                \     /   | |  | | |  |  |  |  | |\  \  |  | \   \       
                 \___/    |_|  |_| |__|  |__|  |_| \__\ |__|  \__/        
                                                                              
                      - O R C A' S   B I G   F R I E N D -                    
                                      &                                       
                       - I N T E G R A L  F E E D E R -                       
                                                                              
 v1 FN, 2020, v2 2021, v3 2022-2024                                           
------------------------------------------------------------------------------


----------------------
SHARK INTEGRAL PACKAGE
----------------------

Number of atoms                             ...     20
Number of basis functions                   ...    184
Number of shells                            ...     96
Maximum angular momentum                    ...      2
Integral batch strategy                     ... SHARK/LIBINT Hybrid
RI-J (if used) integral strategy            ... SPLIT-RIJ (Revised 2003 algorithm where possible)
Printlevel                                  ...      1
Contraction scheme used                     ... SEGMENTED contraction
Prescreening option                         ... SCHWARTZ
   Thresh                                   ... 1.000e-10
   Tcut                                     ... 1.000e-11
   Tpresel                                  ... 1.000e-11 
Coulomb Range Separation                    ... NOT USED
Exchange Range Separation                   ... NOT USED
Multipole approximations                    ... NOT USED
Finite Nucleus Model                        ... NOT USED
CABS basis                                  ... NOT available
Auxiliary Coulomb fitting basis             ... AVAILABLE
   # of basis functions in Aux-J            ...    448
   # of shells in Aux-J                     ...    160
   Maximum angular momentum in Aux-J        ...      4
Auxiliary J/K fitting basis                 ... NOT available
Auxiliary Correlation fitting basis         ... NOT available
Auxiliary 'external' fitting basis          ... NOT available

Checking pre-screening integrals            ... done (  0.0 sec) Dimension = 96
Check shell pair data                       ... done (  0.0 sec)
Shell pair information
Shell pair cut-off parameter TPreSel        ...   1.0e-11
Total number of shell pairs                 ...      4656
Shell pairs after pre-screening             ...      4374
Total number of primitive shell pairs       ...     16105
Primitive shell pairs kept                  ...     11109
          la=0 lb=0:   1599 shell pairs
          la=1 lb=0:   1736 shell pairs
          la=1 lb=1:    496 shell pairs
          la=2 lb=0:    336 shell pairs
          la=2 lb=1:    186 shell pairs
          la=2 lb=2:     21 shell pairs

Calculating one electron integrals          ... done (  0.0 sec)
Calculating RI/J V-Matrix + Cholesky decomp.... done (  0.1 sec)
Calculating Nuclear repulsion               ... done (  0.0 sec) ENN=    260.397946016129 Eh

Diagonalization of the overlap matrix:
Smallest eigenvalue                        ... 1.865e-04
Time for diagonalization                   ...    0.003 sec
Threshold for overlap eigenvalues          ... 1.000e-07
Number of eigenvalues below threshold      ... 0
Time for construction of square roots      ...    0.020 sec
Total time needed                          ...    0.036 sec

-------------------
DFT GRID GENERATION
-------------------

General Integration Accuracy     IntAcc      ... 4.388
Radial Grid Type                 RadialGrid  ... OptM3 with GC (2021)
Angular Grid (max. ang.)         AngularGrid ... 4 (Lebedev-302)
Angular grid pruning method      GridPruning ... 4 (adaptive)
Weight generation scheme         WeightScheme... mBecke (2022)
Basis function cutoff            BFCut       ... 1.0000e-10
Integration weight cutoff        WCut        ... 1.0000e-14
Partially contracted basis set               ... off
Rotationally invariant grid construction     ... off
Angular grids for H and He will be reduced by one unit

Total number of grid points                  ...    80670
Total number of batches                      ...     1269
Average number of points per batch           ...       63
Average number of grid points per atom       ...     4034
Initializing property integral containers    ... done (  0.0 sec)

SHARK setup successfully completed in   1.2 seconds

Maximum memory used throughout the entire STARTUP-calculation: 33.5 MB
-------------------------------------------------------------------------------
                                 ORCA GUESS
                   Start orbitals & Density for SCF / CASSCF
-------------------------------------------------------------------------------

------------
SCF SETTINGS
------------
Hamiltonian:
 Density Functional     Method          .... DFT(GTOs)
  Functional kind                       .... Exchange
  Functional name                       .... Re-regularized SCAN exchange by Furness et al
  Functional family                     .... MGGA
  Functional refs                              
    [ 0] J. W. Furness, A. D. Kaplan, J. Ning, J. P. Perdew, and J. Sun.,  J. Phys. Chem. Lett. 11, 8208-8215 (2020), doi: 10.1021/acs.jpclett.0c02405
    [ 1] J. W. Furness, A. D. Kaplan, J. Ning, J. P. Perdew, and J. Sun.,  J. Phys. Chem. Lett. 11, 9248-9248 (2020), doi: 10.1021/acs.jpclett.0c03077
  Functional external parameters        .... 6
    Parameter  0 _c1        =  6.670000e-01 : c1 parameter        
    Parameter  1 _c2        =  8.000000e-01 : c2 parameter        
    Parameter  2 _d         =  1.240000e+00 : d parameter         
    Parameter  3 _k1        =  6.500000e-02 : k1 parameter        
    Parameter  4 _eta       =  1.000000e-03 : eta parameter       
    Parameter  5 _dp2       =  3.610000e-01 : dp2 parameter       
  Functional kind                       .... Correlation
  Functional name                       .... Re-regularized SCAN correlation by Furness et al
  Functional family                     .... MGGA
  Functional refs                              
    [ 0] J. W. Furness, A. D. Kaplan, J. Ning, J. P. Perdew, and J. Sun.,  J. Phys. Chem. Lett. 11, 8208-8215 (2020), doi: 10.1021/acs.jpclett.0c02405
    [ 1] J. W. Furness, A. D. Kaplan, J. Ning, J. P. Perdew, and J. Sun.,  J. Phys. Chem. Lett. 11, 9248-9248 (2020), doi: 10.1021/acs.jpclett.0c03077
  Functional external parameters        .... 1
    Parameter  0 _eta       =  1.000000e-03 : Regularization parameter
 Gradients option       PostSCFGGA      .... off
 RI-approximation to the Coulomb term is turned on
   Number of AuxJ basis functions       .... 448


General Settings:
 Integral files         IntName         .... sp_solv
 Hartree-Fock type      HFTyp           .... RHF
 Total Charge           Charge          ....    0
 Multiplicity           Mult            ....    1
 Number of Electrons    NEL             ....   50
 Basis Dimension        Dim             ....  184
 Nuclear Repulsion      ENuc            ....    260.3979460161 Eh

Convergence Acceleration:
 AO-DIIS                CNVDIIS         .... on
   Start iteration      DIISMaxIt       ....    12
   Startup error        DIISStart       ....  0.200000
   # of expansion vecs  DIISMaxEq       ....     5
   Bias factor          DIISBfac        ....   1.050
   Max. coefficient     DIISMaxC        ....  10.000
 MO-DIIS                CNVKDIIS        .... off
 Trust-Rad. Augm. Hess. CNVTRAH         .... auto
   Auto Start mean grad. ratio tolernc. ....  1.125000
   Auto Start start iteration           ....     1
   Auto Start num. interpolation iter.  ....    10
   Max. Number of Micro iterations      ....    24
   Max. Number of Macro iterations      .... Maxiter - #DIIS iter
   Number of Davidson start vectors     ....     2
   Converg. threshold    (grad. norm)   ....   3.330e-04
   Grad. Scal. Fac. for Micro threshold ....   0.100
   Minimum threshold for Micro iter.    ....   1.000e-02
   NR start threshold (gradient norm)   ....   1.000e-04
   Initial trust radius                 ....   0.400
   Minimum AH scaling param. (alpha)    ....   1.000
   Maximum AH scaling param. (alpha)    .... 1000.000
   Quad. conv. algorithm                .... NR
   White noise on init. David. guess    .... on
   Maximum white noise                  ....   0.010
   Pseudo random numbers                .... off
   Inactive MOs                         .... canonical
   Orbital update algorithm             .... Taylor
   Preconditioner                       .... Diag
   Full preconditioner red. dimension   ....   250
   COSX micro iterations for RIJONX calc.... off
 SOSCF                  CNVSOSCF        .... on
   Start iteration      SOSCFMaxIt      ....   150
   Startup grad/error   SOSCFStart      ....  0.003300
   Hessian update       SOSCFHessUp     .... L-BFGS
 Level Shifting         CNVShift        .... on
   Level shift para.    LevelShift      ....    0.2500
   Turn off err/grad.   ShiftErr        ....    0.0010
 Zerner damping         CNVZerner       .... off
 Static damping         CNVDamp         .... on
   Fraction old density DampFac         ....    0.7000
   Max. Damping (<1)    DampMax         ....    0.9800
   Min. Damping (>=0)   DampMin         ....    0.0000
   Turn off err/grad.   DampErr         ....    0.1000

SCF Procedure:
 Maximum # iterations   MaxIter         ....   125
 SCF integral mode      SCFMode         .... Direct
   Integral package                     .... SHARK and LIBINT hybrid scheme
 Reset frequency        DirectResetFreq ....    20
 Integral Threshold     Thresh          ....  1.000e-10 Eh
 Primitive CutOff       TCut            ....  1.000e-11 Eh

Convergence Tolerance:
 Convergence Check Mode ConvCheckMode   .... Total+1el-Energy
 Convergence forced     ConvForced      .... 0
 Energy Change          TolE            ....  1.000e-06 Eh
 1-El. energy change                    ....  1.000e-03 Eh
 Orbital Gradient       TolG            ....  3.330e-04
 Orbital Rotation angle TolX            ....  3.330e-04
 DIIS Error             TolErr          ....  1.000e-06

---------------------
INITIAL GUESS: MOREAD
---------------------
Guess MOs are being read from file: sp_solv.ges
Input Geometry matches current geometry (good)
Atom 0: N(Shells)= 9 and 6 - projection required
Input basis set needs projection
NBasis(read)= 112
NBasis(calc)= 184
Basis set overlap was calculated
Using GuessMode=FMatrix for the initial guess
C*T matrix was formed
Effective Fockian was calculated
Effective Fockian was diagonalized
Initial density was built
                      ------------------
                      INITIAL GUESS DONE (   0.0 sec)
                      ------------------
             **** ENERGY FILE WAS UPDATED (sp_solv.en.tmp) ****
Finished Guess after   0.3 sec
Maximum memory used throughout the entire GUESS-calculation: 12.7 MB

-------------------------------------------------------------------------------------------
                                      ORCA LEAN-SCF
                              memory conserving SCF solver
-------------------------------------------------------------------------------------------

--------------------
CPCM SOLVATION MODEL
--------------------
CPCM parameters:
  Epsilon                                         ...      78.3550
  Refrac                                          ...       1.3328
  Rsolv                                           ...       1.3000
  Surface type                                    ... GAUSSIAN VDW
  Discretization scheme                           ... Constant charge density
    Threshold for H atoms                         ...       5.0000 (charges/Ang^2)
    Threshold for non-H atoms                     ...       5.0000 (charges/Ang^2)
  Epsilon function type                           ...         CPCM
Solvent:                                          ... WATER
SMD-CDS solvent descriptors:
  Soln                                            ...       1.3328
  Soln25                                          ...       1.3323
  Sola                                            ...       0.0000
  Solb                                            ...       0.0000
  Solg                                            ...       0.0000
  Solc                                            ...       0.0000
  Solh                                            ...       0.0000
Radii:
  Scheme                                          ... Element-dependent radii
  Radius for C  used is    3.4960 Bohr (=   1.8500 Ang.)
  Radius for H  used is    2.2677 Bohr (=   1.2000 Ang.)
Calculating surface                               ...        done! (  0.0s)
Cavity surface points                             ...         1480
Cavity Volume                                     ...     798.4134
Cavity Surface-area                               ...     522.9090
Calculating surface distance matrix               ...        done! (  0.0s)
Performing Cholesky decomposition & store         ...        done! (  0.1s)
Overall time for CPCM initialization              ...                 0.1s

----------------------------------------D-I-I-S--------------------------------------------
Iteration    Energy (Eh)           Delta-E    RMSDP     MaxDP     DIISErr   Damp  Time(sec)
-------------------------------------------------------------------------------------------
               ***  Starting incremental Fock matrix formation  ***
    1    -236.8619448602055400     0.00e+00  4.10e-03  1.45e-01  2.84e-01  0.700   2.7
    2    -236.9000601913737114    -3.81e-02  3.30e-03  9.16e-02  2.00e-01  0.700   2.3
                               ***Turning on AO-DIIS***
    3    -236.9270802344477715    -2.70e-02  2.45e-03  6.70e-02  1.40e-01  0.700   2.3
    4    -236.9460663570371253    -1.90e-02  1.76e-03  4.77e-02  9.80e-02  0.700   2.2
    5    -236.9593922778709043    -1.33e-02  4.16e-03  1.12e-01  6.86e-02  0.000   2.3
                              *** Initializing SOSCF ***
---------------------------------------S-O-S-C-F--------------------------------------
Iteration    Energy (Eh)           Delta-E    RMSDP     MaxDP     MaxGrad    Time(sec)
--------------------------------------------------------------------------------------
    6    -236.9906167614785204    -3.12e-02  6.51e-05  2.07e-03  1.94e-04     2.3
               *** Restarting incremental Fock matrix formation ***
    7    -236.9906178116365822    -1.05e-06  2.51e-05  4.42e-04  3.98e-05     2.6
                  *** Gradient check signals convergence ***

               *****************************************************
               *                     SUCCESS                       *
               *           SCF CONVERGED AFTER   7 CYCLES          *
               *****************************************************


SMD CDS free energy correction energy :                 3.44675     Kcal/mol
Total Energy after SMD CDS correction =              -236.985125063 Eh
             **** ENERGY FILE WAS UPDATED (sp_solv.en.tmp) ****

----------------
TOTAL SCF ENERGY
----------------

Total Energy       :       -236.98512506283291 Eh           -6448.69310 eV

Components:
Nuclear Repulsion  :        260.39794601612880 Eh            7085.78835 eV
Electronic Energy  :       -497.38626800720499 Eh          -13534.56844 eV
One Electron Energy:       -833.13203852351376 Eh          -22670.67532 eV
Two Electron Energy:        335.74577051630877 Eh            9136.10689 eV
CPCM Dielectric    :         -0.00229582056040 Eh              -0.06247 eV
SMD CDS (Gcds)     :          0.00549274880366 Eh               0.14947 eV

Virial components:
Potential Energy   :       -472.83182740902168 Eh          -12866.40814 eV
Kinetic Energy     :        235.84670234618875 Eh            6417.71504 eV
Virial Ratio       :          2.00482696050154

DFT components:
N(Alpha)           :       25.000043749559 electrons
N(Beta)            :       25.000043749559 electrons
N(Total)           :       50.000087499119 electrons
E(X)               :      -36.214480706692 Eh       
E(C)               :       -1.530475775488 Eh       
E(XC)              :      -37.744956482180 Eh       

CPCM Solvation Model Properties:
Surface-charge          :         -0.04902127550524
Corrected charge        :         -0.00000000000000
Outlying charge corr.   :          0.00019442307893 Eh               0.00529 eV
Free-energy (cav+disp)  :          0.00549274880366 Eh               0.14947 eV

---------------
SCF CONVERGENCE
---------------

  Last Energy change         ...    1.0502e-06  Tolerance :   1.0000e-06
  Last MAX-Density change    ...    4.4225e-04  Tolerance :   1.0000e-05
  Last RMS-Density change    ...    2.5100e-05  Tolerance :   1.0000e-06
  Last DIIS Error            ...    1.9367e-04  Tolerance :   1.0000e-06
  Last Orbital Gradient      ...    3.9774e-05  Tolerance :   3.3300e-04
  Last Orbital Rotation      ...    9.7936e-05  Tolerance :   3.3300e-04


----------------
ORBITAL ENERGIES
----------------

  NO   OCC          E(Eh)            E(eV) 
   0   2.0000     -10.022759      -272.7331 
   1   2.0000     -10.013334      -272.4767 
   2   2.0000     -10.010230      -272.3922 
   3   2.0000     -10.005653      -272.2676 
   4   2.0000     -10.004327      -272.2316 
   5   2.0000     -10.004230      -272.2289 
   6   2.0000      -0.770972       -20.9792 
   7   2.0000      -0.716670       -19.5016 
   8   2.0000      -0.641569       -17.4580 
   9   2.0000      -0.634562       -17.2673 
  10   2.0000      -0.559598       -15.2274 
  11   2.0000      -0.499072       -13.5804 
  12   2.0000      -0.435756       -11.8575 
  13   2.0000      -0.408586       -11.1182 
  14   2.0000      -0.397738       -10.8230 
  15   2.0000      -0.374228       -10.1832 
  16   2.0000      -0.367740       -10.0067 
  17   2.0000      -0.346381        -9.4255 
  18   2.0000      -0.336637        -9.1604 
  19   2.0000      -0.317724        -8.6457 
  20   2.0000      -0.308920        -8.4061 
  21   2.0000      -0.300814        -8.1856 
  22   2.0000      -0.277142        -7.5414 
  23   2.0000      -0.269819        -7.3421 
  24   2.0000      -0.265214        -7.2169 
  25   0.0000       0.090638         2.4664 
  26   0.0000       0.112168         3.0522 
  27   0.0000       0.128181         3.4880 
  28   0.0000       0.133679         3.6376 
  29   0.0000       0.136219         3.7067 
  30   0.0000       0.143249         3.8980 
  31   0.0000       0.146727         3.9927 
  32   0.0000       0.156849         4.2681 
  33   0.0000       0.164676         4.4811 
  34   0.0000       0.181045         4.9265 
  35   0.0000       0.184962         5.0331 
*Only the first 10 virtual orbitals were printed.

                    ********************************
                    * MULLIKEN POPULATION ANALYSIS *
                    ********************************

-----------------------
MULLIKEN ATOMIC CHARGES
-----------------------
   0 C :   -0.532346
   1 C :   -0.254276
   2 C :   -0.296527
   3 C :   -0.016094
   4 C :   -0.548668
   5 C :   -0.537150
   6 H :    0.156712
   7 H :    0.160777
   8 H :    0.152130
   9 H :    0.149853
  10 H :    0.152900
  11 H :    0.155007
  12 H :    0.154567
  13 H :    0.148650
  14 H :    0.155400
  15 H :    0.161300
  16 H :    0.166262
  17 H :    0.155679
  18 H :    0.155965
  19 H :    0.159858
Sum of atomic charges:    0.0000000

--------------------------------
MULLIKEN REDUCED ORBITAL CHARGES
--------------------------------
  0 C s       :     3.355267  s :     3.355267
      pz      :     1.098374  p :     3.149667
      px      :     1.061101
      py      :     0.990192
      dz2     :     0.002775  d :     0.027412
      dxz     :     0.007563
      dyz     :     0.005654
      dx2y2   :     0.003916
      dxy     :     0.007504

  1 C s       :     3.204713  s :     3.204713
      pz      :     1.021428  p :     3.013091
      px      :     1.012445
      py      :     0.979218
      dz2     :     0.005659  d :     0.036472
      dxz     :     0.008737
      dyz     :     0.007238
      dx2y2   :     0.005023
      dxy     :     0.009815

  2 C s       :     3.229954  s :     3.229954
      pz      :     0.983163  p :     3.030418
      px      :     0.927417
      py      :     1.119838
      dz2     :     0.003850  d :     0.036155
      dxz     :     0.008928
      dyz     :     0.009536
      dx2y2   :     0.008957
      dxy     :     0.004883

  3 C s       :     3.082271  s :     3.082271
      pz      :     1.006780  p :     2.887123
      px      :     0.983009
      py      :     0.897333
      dz2     :     0.006487  d :     0.046701
      dxz     :     0.010530
      dyz     :     0.010824
      dx2y2   :     0.010909
      dxy     :     0.007951

  4 C s       :     3.347346  s :     3.347346
      pz      :     1.030556  p :     3.174186
      px      :     1.119121
      py      :     1.024508
      dz2     :     0.005158  d :     0.027136
      dxz     :     0.005598
      dyz     :     0.006284
      dx2y2   :     0.006885
      dxy     :     0.003211

  5 C s       :     3.342280  s :     3.342280
      pz      :     1.077027  p :     3.167817
      px      :     1.092234
      py      :     0.998556
      dz2     :     0.003490  d :     0.027053
      dxz     :     0.004612
      dyz     :     0.008085
      dx2y2   :     0.007561
      dxy     :     0.003305

  6 H s       :     0.825043  s :     0.825043
      pz      :     0.008358  p :     0.018245
      px      :     0.005121
      py      :     0.004766

  7 H s       :     0.820751  s :     0.820751
      pz      :     0.004810  p :     0.018472
      px      :     0.006370
      py      :     0.007292

  8 H s       :     0.829583  s :     0.829583
      pz      :     0.007016  p :     0.018287
      px      :     0.007343
      py      :     0.003929

  9 H s       :     0.832179  s :     0.832179
      pz      :     0.004518  p :     0.017967
      px      :     0.006494
      py      :     0.006956

 10 H s       :     0.828773  s :     0.828773
      pz      :     0.008706  p :     0.018327
      px      :     0.004834
      py      :     0.004788

 11 H s       :     0.827045  s :     0.827045
      pz      :     0.005509  p :     0.017948
      px      :     0.003898
      py      :     0.008542

 12 H s       :     0.827500  s :     0.827500
      pz      :     0.006704  p :     0.017933
      px      :     0.003472
      py      :     0.007757

 13 H s       :     0.833937  s :     0.833937
      pz      :     0.007851  p :     0.017414
      px      :     0.005854
      py      :     0.003708

 14 H s       :     0.826311  s :     0.826311
      pz      :     0.004245  p :     0.018290
      px      :     0.010279
      py      :     0.003766

 15 H s       :     0.820422  s :     0.820422
      pz      :     0.004626  p :     0.018278
      px      :     0.004598
      py      :     0.009054

 16 H s       :     0.815374  s :     0.815374
      pz      :     0.008683  p :     0.018364
      px      :     0.005758
      py      :     0.003923

 17 H s       :     0.825998  s :     0.825998
      pz      :     0.004329  p :     0.018323
      px      :     0.010338
      py      :     0.003656

 18 H s       :     0.825736  s :     0.825736
      pz      :     0.006886  p :     0.018299
      px      :     0.003698
      py      :     0.007715

 19 H s       :     0.821643  s :     0.821643
      pz      :     0.008514  p :     0.018499
      px      :     0.005828
      py      :     0.004157


------------------------
MULLIKEN OVERLAP CHARGES
------------------------
B(  0-C ,  1-C ) :   0.4144 B(  0-C ,  2-C ) :  -0.1443 B(  0-C ,  6-H ) :   0.8650 
B(  0-C ,  7-H ) :   0.8487 B(  0-C ,  8-H ) :   0.8074 B(  0-C ,  9-H ) :  -0.0580 
B(  1-C ,  2-C ) :   0.2251 B(  1-C ,  3-C ) :  -0.0620 B(  1-C ,  6-H ) :  -0.0949 
B(  1-C ,  7-H ) :  -0.1028 B(  1-C ,  8-H ) :  -0.0821 B(  1-C ,  9-H ) :   0.8139 
B(  1-C , 10-H ) :   0.8689 B(  1-C , 11-H ) :  -0.1344 B(  1-C , 12-H ) :  -0.0661 
B(  2-C ,  3-C ) :   0.3288 B(  2-C ,  4-C ) :  -0.2038 B(  2-C ,  5-C ) :  -0.2068 
B(  2-C ,  9-H ) :  -0.0570 B(  2-C , 10-H ) :  -0.1670 B(  2-C , 11-H ) :   0.8292 
B(  2-C , 12-H ) :   0.8273 B(  2-C , 13-H ) :  -0.1355 B(  3-C ,  4-C ) :   0.3807 
B(  3-C ,  5-C ) :   0.5849 B(  3-C , 12-H ) :  -0.0919 B(  3-C , 13-H ) :   0.9055 
B(  3-C , 14-H ) :  -0.0757 B(  3-C , 15-H ) :  -0.0834 B(  3-C , 16-H ) :  -0.0761 
B(  3-C , 17-H ) :  -0.0913 B(  3-C , 18-H ) :  -0.0910 B(  3-C , 19-H ) :  -0.0742 
B(  4-C ,  5-C ) :  -0.2621 B(  4-C , 13-H ) :  -0.0779 B(  4-C , 14-H ) :   0.7934 
B(  4-C , 15-H ) :   0.7997 B(  4-C , 16-H ) :   0.8416 B(  5-C , 13-H ) :  -0.0649 
B(  5-C , 17-H ) :   0.8093 B(  5-C , 18-H ) :   0.8084 B(  5-C , 19-H ) :   0.8571 



                     *******************************
                     * LOEWDIN POPULATION ANALYSIS *
                     *******************************

----------------------
LOEWDIN ATOMIC CHARGES
----------------------
   0 C :   -0.434645
   1 C :   -0.322585
   2 C :   -0.310419
   3 C :   -0.244239
   4 C :   -0.427402
   5 C :   -0.428687
   6 H :    0.150819
   7 H :    0.152545
   8 H :    0.150999
   9 H :    0.154459
  10 H :    0.155458
  11 H :    0.159117
  12 H :    0.158543
  13 H :    0.156053
  14 H :    0.154486
  15 H :    0.155703
  16 H :    0.155831
  17 H :    0.155103
  18 H :    0.155203
  19 H :    0.153658

-------------------------------
LOEWDIN REDUCED ORBITAL CHARGES
-------------------------------
  0 C s       :     2.975916  s :     2.975916
      pz      :     1.154449  p :     3.395114
      px      :     1.132499
      py      :     1.108167
      dz2     :     0.006635  d :     0.063615
      dxz     :     0.018438
      dyz     :     0.012764
      dx2y2   :     0.007992
      dxy     :     0.017787

  1 C s       :     2.935302  s :     2.935302
      pz      :     1.119056  p :     3.308867
      px      :     1.087820
      py      :     1.101992
      dz2     :     0.012079  d :     0.078416
      dxz     :     0.020002
      dyz     :     0.015060
      dx2y2   :     0.009403
      dxy     :     0.021872

  2 C s       :     2.935977  s :     2.935977
      pz      :     1.098291  p :     3.296406
      px      :     1.058503
      py      :     1.139611
      dz2     :     0.007088  d :     0.078036
      dxz     :     0.019243
      dyz     :     0.022085
      dx2y2   :     0.020675
      dxy     :     0.008945

  3 C s       :     2.908198  s :     2.908198
      pz      :     1.098449  p :     3.240323
      px      :     1.076360
      py      :     1.065514
      dz2     :     0.012387  d :     0.095718
      dxz     :     0.022436
      dyz     :     0.023284
      dx2y2   :     0.022808
      dxy     :     0.014802

  4 C s       :     2.969619  s :     2.969619
      pz      :     1.124441  p :     3.394359
      px      :     1.157376
      py      :     1.112542
      dz2     :     0.011381  d :     0.063423
      dxz     :     0.013206
      dyz     :     0.015207
      dx2y2   :     0.016533
      dxy     :     0.007096

  5 C s       :     2.970770  s :     2.970770
      pz      :     1.148666  p :     3.394661
      px      :     1.146077
      py      :     1.099918
      dz2     :     0.008014  d :     0.063256
      dxz     :     0.011311
      dyz     :     0.019053
      dx2y2   :     0.017803
      dxy     :     0.007075

  6 H s       :     0.805591  s :     0.805591
      pz      :     0.020672  p :     0.043590
      px      :     0.011889
      py      :     0.011029

  7 H s       :     0.802954  s :     0.802954
      pz      :     0.011194  p :     0.044501
      px      :     0.015357
      py      :     0.017950

  8 H s       :     0.805357  s :     0.805357
      pz      :     0.016865  p :     0.043644
      px      :     0.017698
      py      :     0.009081

  9 H s       :     0.802076  s :     0.802076
      pz      :     0.010896  p :     0.043466
      px      :     0.015817
      py      :     0.016753

 10 H s       :     0.800175  s :     0.800175
      pz      :     0.021475  p :     0.044367
      px      :     0.011459
      py      :     0.011434

 11 H s       :     0.797162  s :     0.797162
      pz      :     0.013243  p :     0.043721
      px      :     0.009318
      py      :     0.021160

 12 H s       :     0.797770  s :     0.797770
      pz      :     0.016244  p :     0.043686
      px      :     0.008373
      py      :     0.019069

 13 H s       :     0.801018  s :     0.801018
      pz      :     0.019279  p :     0.042929
      px      :     0.014573
      py      :     0.009076

 14 H s       :     0.801601  s :     0.801601
      pz      :     0.009700  p :     0.043913
      px      :     0.025659
      py      :     0.008554

 15 H s       :     0.800459  s :     0.800459
      pz      :     0.010993  p :     0.043838
      px      :     0.010457
      py      :     0.022388

 16 H s       :     0.799792  s :     0.799792
      pz      :     0.021692  p :     0.044378
      px      :     0.013554
      py      :     0.009132

 17 H s       :     0.800921  s :     0.800921
      pz      :     0.009820  p :     0.043976
      px      :     0.025723
      py      :     0.008433

 18 H s       :     0.800947  s :     0.800947
      pz      :     0.016839  p :     0.043851
      px      :     0.008174
      py      :     0.018838

 19 H s       :     0.801665  s :     0.801665
      pz      :     0.020994  p :     0.044677
      px      :     0.014003
      py      :     0.009681


---------------------------------
LOEWDIN BOND ORDERS (THRESH 0.050000)
---------------------------------
B(  0-C ,  1-C ) :   1.1441 B(  0-C ,  2-C ) :   0.0695 B(  0-C ,  6-H ) :   0.9292 
B(  0-C ,  7-H ) :   0.9264 B(  0-C ,  8-H ) :   0.9304 B(  1-C ,  2-C ) :   1.0910 
B(  1-C ,  3-C ) :   0.0566 B(  1-C ,  9-H ) :   0.8988 B(  1-C , 10-H ) :   0.8904 
B(  2-C ,  3-C ) :   1.0857 B(  2-C ,  4-C ) :   0.0613 B(  2-C ,  5-C ) :   0.0646 
B(  2-C , 11-H ) :   0.8859 B(  2-C , 12-H ) :   0.8879 B(  3-C ,  4-C ) :   1.1108 
B(  3-C ,  5-C ) :   1.1102 B(  3-C , 13-H ) :   0.8614 B(  4-C ,  5-C ) :   0.0705 
B(  4-C , 14-H ) :   0.9231 B(  4-C , 15-H ) :   0.9230 B(  4-C , 16-H ) :   0.9194 
B(  5-C , 17-H ) :   0.9242 B(  5-C , 18-H ) :   0.9245 B(  5-C , 19-H ) :   0.9217 


------------------------------------------
LOEWDIN REDUCED ORBITAL POPULATIONS PER MO
-------------------------------------------
THRESHOLD FOR PRINTING IS 0.1%%
                      0         1         2         3         4         5   
                 -10.02276 -10.01333 -10.01023 -10.00565 -10.00433 -10.00423
                   2.00000   2.00000   2.00000   2.00000   2.00000   2.00000
                  --------  --------  --------  --------  --------  --------
 0 C  s               0.0       0.0       0.0      99.7       0.0       0.0
 1 C  s               0.0      99.6       0.1       0.0       0.0       0.0
 2 C  s               0.0       0.1      99.6       0.0       0.0       0.0
 3 C  s              99.6       0.0       0.0       0.0       0.0       0.0
 4 C  s               0.0       0.0       0.0       0.0      99.7       0.0
 5 C  s               0.0       0.0       0.0       0.0       0.0      99.7

                      6         7         8         9        10        11   
                  -0.77097  -0.71667  -0.64157  -0.63456  -0.55960  -0.49907
                   2.00000   2.00000   2.00000   2.00000   2.00000   2.00000
                  --------  --------  --------  --------  --------  --------
 0 C  s               3.7      18.4       2.8      13.5       8.8       0.4
 0 C  pz              0.1       0.2       0.1       0.2       0.1       0.3
 0 C  px              0.6       0.4       0.0       0.4       1.5       0.1
 0 C  py              0.6       1.3       0.1       0.2       5.5       3.2
 1 C  s              10.0      19.4       0.1       0.0      12.3       3.3
 1 C  pz              0.4       0.0       0.8       3.3       0.1       4.4
 1 C  px              0.9       0.8       0.9       4.3       0.2       1.0
 1 C  py              0.4       1.2       0.7       1.1       5.8       2.2
 1 C  dxz             0.0       0.0       0.0       0.0       0.0       0.1
 2 C  s              16.7       1.8       3.5      15.2       1.2       5.6
 2 C  pz              1.5       0.4       0.2       0.6       2.5       4.2
 2 C  px              0.6       6.7       0.0       0.0       5.9       2.7
 2 C  py              0.0       0.0       0.9       0.0       1.5       0.2
 2 C  dxz             0.0       0.1       0.0       0.0       0.1       0.0
 2 C  dx2y2           0.1       0.0       0.0       0.0       0.0       0.2
 3 C  s              21.8       7.2       0.0       0.1       4.7      10.3
 3 C  pz              0.2       0.9       2.2       2.6       5.0       0.8
 3 C  px              0.8       1.8       0.2       5.9       0.2       2.8
 3 C  py              0.1       0.0      12.4       2.4       0.1       0.2
 3 C  dyz             0.0       0.0       0.3       0.0       0.0       0.0
 3 C  dx2y2           0.0       0.1       0.0       0.2       0.0       0.0
 4 C  s               8.6       5.9      27.4       0.0       2.6       2.2
 4 C  pz              1.1       0.2       0.2       0.2       2.1       4.4
 4 C  px              0.1       0.1       0.0       0.2       0.1       0.1
 4 C  py              1.6       0.5       0.8       0.1       0.4       3.6
 4 C  dyz             0.1       0.0       0.0       0.0       0.0       0.2
 5 C  s               8.4       6.8      11.2      16.3       1.6       2.6
 5 C  pz              0.3       0.1       0.1       0.2       1.3       1.8
 5 C  px              0.6       0.0       0.0       0.4       0.1       0.3
 5 C  py              1.9       0.7       0.8       0.3       0.9       6.3
 6 H  s               0.5       2.9       0.6       3.1       4.0       0.8
 6 H  pz              0.0       0.2       0.0       0.2       0.2       0.0
 7 H  s               0.5       2.8       0.9       3.2       3.7       0.7
 7 H  px              0.0       0.1       0.0       0.1       0.2       0.0
 7 H  py              0.0       0.1       0.0       0.1       0.1       0.0
 8 H  s               0.4       3.0       0.7       3.7       3.4       0.0
 8 H  pz              0.0       0.1       0.0       0.1       0.1       0.0
 8 H  px              0.0       0.1       0.0       0.1       0.1       0.0
 9 H  s               1.2       3.3       0.0       0.0       5.4       2.0
 9 H  px              0.0       0.1       0.0       0.0       0.2       0.0
 9 H  py              0.0       0.1       0.0       0.0       0.1       0.0
10 H  s               1.3       2.8       0.0       0.0       5.7       3.5
10 H  pz              0.1       0.2       0.0       0.0       0.3       0.1
11 H  s               2.1       0.4       0.5       3.6       1.1       5.1
11 H  py              0.1       0.0       0.0       0.2       0.0       0.2
12 H  s               2.1       0.3       1.2       3.7       0.4       3.6
12 H  pz              0.1       0.0       0.1       0.1       0.0       0.0
12 H  py              0.1       0.0       0.1       0.2       0.0       0.2
13 H  s               2.7       1.2       0.0       0.0       2.8       6.9
13 H  pz              0.1       0.1       0.0       0.0       0.1       0.3
13 H  px              0.1       0.0       0.0       0.0       0.1       0.1
14 H  s               1.0       1.1       6.5       0.0       1.3       1.2
14 H  px              0.1       0.1       0.5       0.0       0.1       0.1
15 H  s               1.0       0.8       6.8       0.0       0.7       1.9
15 H  py              0.1       0.1       0.4       0.0       0.0       0.0
16 H  s               1.1       0.8       6.3       0.0       1.5       2.3
16 H  pz              0.1       0.1       0.4       0.0       0.1       0.1
16 H  px              0.0       0.0       0.1       0.0       0.0       0.0
17 H  s               1.0       1.2       2.3       4.4       0.8       1.5
17 H  px              0.1       0.1       0.2       0.3       0.0       0.1
18 H  s               1.0       1.0       3.2       3.7       0.5       2.0
18 H  pz              0.0       0.0       0.1       0.2       0.0       0.1
18 H  py              0.1       0.1       0.1       0.2       0.0       0.0
19 H  s               1.1       1.0       2.5       3.9       1.3       2.3
19 H  pz              0.1       0.1       0.1       0.2       0.0       0.1

                     12        13        14        15        16        17   
                  -0.43576  -0.40859  -0.39774  -0.37423  -0.36774  -0.34638
                   2.00000   2.00000   2.00000   2.00000   2.00000   2.00000
                  --------  --------  --------  --------  --------  --------
 0 C  s               0.0       0.2       0.0       0.0       0.0       0.0
 0 C  pz              3.1       6.6       3.9       8.3      13.7       0.0
 0 C  px              2.7       6.8       3.9      10.6       5.3       0.0
 0 C  py              1.5       0.1       0.5       2.1       5.2      10.5
 0 C  dxz             0.0       0.0       0.0       0.0       0.2       0.1
 1 C  s               0.3       0.4       0.2       0.0       0.3       0.0
 1 C  pz              6.0       1.1       7.1       2.2       4.2       0.5
 1 C  px             10.0       0.2       0.2       6.6       1.0       5.0
 1 C  py              1.0       8.5       0.2       0.7       1.3       3.3
 2 C  s               0.1       0.1       0.1       0.4       0.6       0.0
 2 C  pz              8.7       1.8       0.0       0.6       5.5       1.4
 2 C  px              2.4       4.3       1.6       1.4       0.5       0.4
 2 C  py              0.1      20.3       3.0       1.3       2.8       4.1
 2 C  dx2y2           0.0       0.0       0.0       0.0       0.1       0.0
 3 C  s               0.1       0.1       0.4       0.3       0.1       0.0
 3 C  pz              4.8       1.2      11.5       0.1       0.2       0.2
 3 C  px             11.6       0.6       0.2       5.5       0.4       0.1
 3 C  py              0.7       5.1       1.9       0.9       4.1       2.0
 3 C  dxy             0.0       0.1       0.0       0.0       0.0       0.2
 4 C  s               0.2       0.5       0.1       0.1       0.0       0.0
 4 C  pz              0.8       3.9       3.7       3.6       0.7      17.6
 4 C  px              8.6       0.1       2.0       9.2       0.1       7.4
 4 C  py              2.1       1.8      14.6       0.6       1.4       3.8
 4 C  dxz             0.0       0.0       0.0       0.0       0.0       0.2
 4 C  dx2y2           0.0       0.0       0.0       0.1       0.0       0.0
 5 C  s               0.1       0.1       0.3       0.1       0.0       0.0
 5 C  pz              1.7       3.6       3.6       0.5      18.1       8.1
 5 C  px              7.2       5.0       1.3       7.2       1.3       2.0
 5 C  py              0.0       0.4      12.1       4.0       0.2       0.1
 5 C  dx2y2           0.0       0.0       0.0       0.0       0.1       0.0
 6 H  s               0.7       0.0       3.3       4.1       3.5       1.1
 6 H  px              0.0       0.1       0.0       0.0       0.2       0.0
 6 H  py              0.0       0.0       0.0       0.1       0.0       0.0
 7 H  s               2.2       0.0       0.7       6.8       1.2       2.2
 7 H  pz              0.0       0.0       0.0       0.0       0.2       0.0
 7 H  py              0.1       0.0       0.0       0.2       0.0       0.0
 8 H  s               0.0       5.5       0.0       0.1       9.8       0.2
 8 H  px              0.0       0.1       0.0       0.0       0.1       0.0
 9 H  s               5.0       0.7       0.5       2.9       0.0       0.0
 9 H  py              0.2       0.0       0.0       0.1       0.0       0.0
10 H  s               2.0       0.6       2.2       1.4       0.9       0.6
11 H  s               0.8       3.9       0.3       0.0       3.9       1.8
11 H  pz              0.0       0.2       0.0       0.0       0.0       0.0
11 H  py              0.1       0.0       0.0       0.0       0.1       0.0
12 H  s               1.4       7.7       0.7       1.6       0.3       0.3
12 H  pz              0.0       0.2       0.0       0.0       0.0       0.0
13 H  s               3.8       0.0       1.9       0.3       0.1       0.0
13 H  pz              0.1       0.0       0.0       0.0       0.0       0.0
14 H  s               3.1       0.9       0.4       4.7       0.0       1.5
14 H  pz              0.0       0.0       0.0       0.0       0.0       0.2
14 H  py              0.0       0.0       0.1       0.0       0.0       0.0
15 H  s               0.3       0.2       8.2       2.9       0.3       2.6
15 H  px              0.1       0.0       0.0       0.0       0.0       0.1
15 H  py              0.0       0.0       0.2       0.1       0.0       0.0
16 H  s               1.5       1.2       0.7       0.0       0.2      14.1
16 H  pz              0.1       0.0       0.0       0.0       0.0       0.2
17 H  s               1.9       3.2       0.2       2.7       2.6       0.1
17 H  px              0.0       0.1       0.0       0.0       0.1       0.0
18 H  s               0.3       1.0       6.6       0.8       4.3       1.4
18 H  pz              0.0       0.0       0.1       0.1       0.0       0.0
18 H  py              0.0       0.0       0.1       0.0       0.2       0.1
19 H  s               1.7       0.1       0.1       3.1       3.7       4.9
19 H  pz              0.0       0.0       0.0       0.1       0.0       0.0
19 H  px              0.0       0.1       0.0       0.0       0.1       0.0
19 H  py              0.0       0.0       0.1       0.0       0.0       0.0

                     18        19        20        21        22        23   
                  -0.33664  -0.31772  -0.30892  -0.30081  -0.27714  -0.26982
                   2.00000   2.00000   2.00000   2.00000   2.00000   2.00000
                  --------  --------  --------  --------  --------  --------
 0 C  s               0.1       0.0       0.1       0.3       0.6       0.0
 0 C  pz              0.7       0.7      12.1       2.8       0.9       3.7
 0 C  px              0.4      12.3       5.0       0.4       2.6       0.1
 0 C  py              5.9       2.1       3.2       8.3       3.6       0.2
 0 C  dxz             0.0       0.2       0.2       0.0       0.0       0.1
 0 C  dyz             0.0       0.1       0.3       0.0       0.0       0.1
 0 C  dx2y2           0.0       0.1       0.0       0.0       0.0       0.0
 0 C  dxy             0.1       0.0       0.1       0.2       0.0       0.1
 1 C  s               0.0       0.1       0.1       0.1       0.1       0.2
 1 C  pz              2.1       0.4       7.9       1.2       0.1      13.4
 1 C  px              0.2       7.4       4.0       0.3       0.7       0.1
 1 C  py              6.3       1.1       3.4       8.8       6.2       0.1
 1 C  dz2             0.0       0.0       0.0       0.0       0.1       0.1
 1 C  dxz             0.0       0.2       0.2       0.0       0.0       0.1
 1 C  dyz             0.0       0.0       0.3       0.0       0.1       0.1
 1 C  dx2y2           0.0       0.2       0.0       0.0       0.0       0.0
 1 C  dxy             0.1       0.0       0.0       0.3       0.2       0.2
 2 C  s               0.0       1.3       0.0       0.1       0.0       0.5
 2 C  pz              0.1      12.2       0.1       0.0       0.2      14.8
 2 C  px              0.2       0.3       4.0       2.0       3.0       0.6
 2 C  py              3.5       0.0       0.7       2.8      13.2       0.9
 2 C  dz2             0.0       0.0       0.0       0.0       0.0       0.1
 2 C  dyz             0.0       0.0       0.0       0.1       0.7       0.1
 2 C  dx2y2           0.0       0.0       0.0       0.0       0.0       0.5
 3 C  s               0.0       0.1       0.2       0.0       0.0       0.1
 3 C  pz              0.3       3.2       6.5       0.8       0.5      12.1
 3 C  px              0.0       2.5       0.7       0.2       2.3       1.9
 3 C  py              0.5       0.0       0.3       9.5      11.7       0.4
 3 C  dz2             0.0       0.2       0.0       0.0       0.1       0.0
 3 C  dyz             0.0       0.1       0.0       0.2       0.4       0.2
 3 C  dx2y2           0.0       0.0       0.3       0.0       0.1       0.4
 3 C  dxy             0.1       0.0       0.0       0.0       0.3       0.0
 4 C  s               0.0       0.1       0.1       0.2       0.3       0.5
 4 C  pz              0.9       2.1       5.8       0.0       0.4       8.1
 4 C  px             22.2       2.5       0.4       0.4       0.1       0.7
 4 C  py              0.0       0.0       0.1      15.3       6.6       2.1
 4 C  dxz             0.1       0.1       0.0       0.0       0.0       0.0
 4 C  dyz             0.0       0.0       0.0       0.2       0.1       0.0
 4 C  dx2y2           0.2       0.0       0.1       0.0       0.0       0.2
 5 C  s               0.0       0.0       0.3       0.1       0.8       0.0
 5 C  pz              0.0       6.7       1.2       3.4       2.5       3.7
 5 C  px             16.7       5.6       4.2       0.3       3.0       0.2
 5 C  py              2.1       0.0       0.7      12.3      11.3       0.3
 5 C  dxz             0.1       0.1       0.0       0.0       0.0       0.0
 5 C  dyz             0.0       0.1       0.0       0.3       0.1       0.1
 5 C  dx2y2           0.1       0.0       0.1       0.2       0.0       0.1
 6 H  s               0.1       0.0      13.1       0.0       0.1       2.2
 6 H  pz              0.0       0.0       0.1       0.0       0.0       0.0
 7 H  s               2.0       5.5       1.7       2.5       0.1       0.8
 7 H  px              0.0       0.0       0.0       0.1       0.0       0.0
 7 H  py              0.0       0.0       0.1       0.0       0.0       0.0
 8 H  s               0.0       7.1       1.2       0.3       0.8       1.3
 8 H  pz              0.0       0.1       0.0       0.0       0.0       0.0
 8 H  px              0.0       0.0       0.1       0.0       0.0       0.0
 9 H  s               2.3       3.3       0.7       3.0       0.7       2.9
10 H  s               0.1       0.1      10.4       0.1       1.8       6.2
10 H  pz              0.0       0.0       0.1       0.0       0.0       0.0
11 H  s               1.6       0.4       0.1       1.7      11.1       1.3
11 H  pz              0.0       0.1       0.0       0.0       0.1       0.1
12 H  s               0.8       1.2       0.4       1.0       5.7       7.2
12 H  pz              0.0       0.0       0.0       0.0       0.1       0.0
13 H  s               0.0       4.1       1.5       0.1       0.2       3.7
13 H  px              0.0       0.0       0.1       0.0       0.0       0.1
13 H  py              0.0       0.0       0.0       0.1       0.1       0.0
14 H  s              11.6       1.2       0.8       0.0       0.0       1.5
14 H  px              0.2       0.0       0.0       0.0       0.0       0.0
14 H  py              0.0       0.0       0.0       0.1       0.1       0.0
15 H  s               2.4       0.0       1.3       7.0       2.9       0.4
16 H  s               1.3       2.8       1.7       0.4       0.1       1.1
16 H  pz              0.1       0.0       0.0       0.0       0.0       0.0
16 H  py              0.0       0.0       0.0       0.1       0.1       0.1
17 H  s               8.9       1.7       2.5       1.9       1.0       0.4
17 H  px              0.1       0.0       0.0       0.1       0.0       0.0
17 H  py              0.0       0.0       0.0       0.1       0.1       0.0
18 H  s               1.0       1.8       0.2       9.1       0.7       1.3
18 H  px              0.1       0.1       0.0       0.0       0.0       0.0
19 H  s               3.1       7.1       0.0       0.1       0.2       1.4
19 H  pz              0.1       0.0       0.0       0.0       0.0       0.0
19 H  py              0.0       0.0       0.0       0.1       0.1       0.0

                     24        25        26        27        28        29   
                  -0.26521   0.09064   0.11217   0.12818   0.13368   0.13622
                   2.00000   0.00000   0.00000   0.00000   0.00000   0.00000
                  --------  --------  --------  --------  --------  --------
 0 C  s               0.0       5.8      18.0       3.7       2.5       0.1
 0 C  pz              0.1       0.8       4.3       0.4       3.4       1.7
 0 C  px              3.7       0.8       1.8       4.9       1.4       2.6
 0 C  py              0.9       1.4       0.1       6.7       2.1       3.9
 0 C  dz2             0.0       0.0       0.0       0.3       0.0       0.1
 0 C  dxz             0.1       0.0       0.2       0.0       0.0       0.0
 0 C  dyz             0.0       0.0       0.0       0.1       0.4       0.1
 0 C  dx2y2           0.1       0.2       0.0       0.0       0.0       0.2
 0 C  dxy             0.1       0.3       0.0       0.5       0.2       0.0
 1 C  s               0.1       8.1       2.7       8.2       0.5       2.9
 1 C  pz              0.7       0.4       0.6       2.5       4.5       1.6
 1 C  px             10.6       0.2       5.3       0.4       4.0       2.2
 1 C  py              2.7       2.6       4.2      10.1       4.9       1.8
 1 C  dz2             0.2       0.2       0.7       0.0       0.4       0.0
 1 C  dxz             0.1       0.0       0.1       0.2       0.7       0.6
 1 C  dyz             0.1       0.0       0.2       0.1       0.1       0.1
 1 C  dx2y2           0.0       0.0       0.2       0.1       0.0       0.1
 1 C  dxy             0.1       0.0       0.3       0.6       0.0       0.2
 2 C  s               0.1       5.4       1.3       1.9       1.0       6.1
 2 C  pz              0.1       3.6       0.2       5.9       3.7       9.7
 2 C  px             16.3       0.1       6.8       2.3       0.7       3.3
 2 C  py              1.6       0.0       0.0       0.4       1.6       1.0
 2 C  dz2             0.0       0.0       0.0       0.5       0.0       0.1
 2 C  dxz             0.4       0.1       0.3       0.3       0.0       0.1
 2 C  dyz             0.0       0.1       0.4       0.2       0.0       0.1
 2 C  dx2y2           0.0       0.6       0.5       0.0       0.8       0.2
 2 C  dxy             0.0       0.1       0.0       0.0       0.1       0.0
 3 C  s               0.3       5.2       5.8       2.9       1.2       0.1
 3 C  pz              1.8       1.0       2.9       2.2       1.2       0.5
 3 C  px             15.9       1.5       0.1       1.1       3.0       2.9
 3 C  py              1.0       0.3       0.2       0.9       0.3       2.7
 3 C  dz2             0.1       0.0       0.1       0.2       0.0       0.1
 3 C  dxz             0.7       0.2       0.0       0.0       0.0       0.5
 3 C  dyz             0.0       0.0       0.0       0.3       0.0       0.1
 3 C  dx2y2           0.0       0.1       0.0       0.0       0.2       0.1
 3 C  dxy             0.0       0.0       0.0       0.0       0.1       0.0
 4 C  s               0.0      10.9       1.6       2.0       0.7      11.0
 4 C  pz              0.3       0.4       4.5       0.2       4.2       4.3
 4 C  px              3.7       0.1       2.5       0.1       3.6       1.1
 4 C  py              0.1       0.9       3.1       1.0       5.4       7.0
 4 C  dz2             0.1       0.1       0.0       0.1       0.0       0.1
 4 C  dxz             0.3       0.0       0.0       0.1       0.0       0.1
 4 C  dyz             0.0       0.2       0.3       0.0       0.5       0.0
 4 C  dx2y2           0.0       0.1       0.0       0.0       0.0       0.2
 4 C  dxy             0.0       0.0       0.1       0.0       0.1       0.3
 5 C  s               0.1      10.1       1.1       4.6       4.0       0.4
 5 C  pz              0.4       0.2       0.8       3.6       3.2       2.3
 5 C  px              2.0       0.4       0.6       0.8       1.9       0.1
 5 C  py              0.4       1.0       0.5       7.7       3.7       0.3
 5 C  dz2             0.1       0.0       0.0       0.0       0.4       0.0
 5 C  dxz             0.1       0.0       0.0       0.0       0.2       0.0
 5 C  dyz             0.0       0.2       0.2       0.6       0.1       0.2
 5 C  dx2y2           0.1       0.2       0.1       0.0       0.1       0.3
 6 H  s               0.1       0.4       3.0       0.1       0.5       0.7
 6 H  pz              0.0       0.3       0.9       0.0       0.5       0.3
 6 H  px              0.0       0.0       0.4       0.5       0.0       0.0
 6 H  py              0.0       0.0       0.0       0.2       0.1       0.0
 7 H  s               2.7       1.2       2.2       0.4       0.5       1.5
 7 H  pz              0.0       0.0       0.7       0.1       0.1       0.0
 7 H  px              0.0       0.8       0.5       0.0       0.4       0.1
 7 H  py              0.0       0.0       0.5       0.3       0.1       0.6
 8 H  s               2.7       1.7       0.7       0.1       1.8       0.4
 8 H  pz              0.0       0.1       0.5       0.0       0.1       0.2
 8 H  px              0.0       0.2       0.3       0.2       0.0       0.0
 8 H  py              0.0       0.3       0.1       0.2       0.6       0.0
 9 H  s               6.3       1.7       0.5       1.2       0.3       3.2
 9 H  pz              0.1       0.1       0.2       0.0       0.2       0.8
 9 H  px              0.0       0.4       0.6       0.0       0.1       0.3
 9 H  py              0.0       0.4       0.0       0.2       0.5       0.4
10 H  s               0.3       0.9       3.5       1.6       5.6       0.8
10 H  pz              0.0       0.4       1.4       0.8       0.8       0.1
10 H  px              0.1       0.3       0.0       0.1       0.4       0.3
10 H  py              0.0       0.1       0.1       1.4       0.0       0.0
11 H  s               0.1       2.1       2.2       0.7       4.0       0.3
11 H  pz              0.0       0.0       0.1       0.1       0.0       0.2
11 H  px              0.2       0.1       0.2       0.2       0.1       0.2
11 H  py              0.0       1.0       0.6       0.0       1.0       0.0
12 H  s               0.2       3.1       0.1       1.3       0.5       0.7
12 H  pz              0.0       0.1       0.0       0.7       0.1       1.0
12 H  px              0.2       0.0       0.2       0.1       0.0       0.0
12 H  py              0.0       1.1       0.1       0.1       0.3       0.2
13 H  s              10.6       1.2       0.3       1.4       0.5       0.7
13 H  pz              0.1       0.4       0.6       0.9       0.3       0.4
13 H  px              0.0       0.5       0.1       0.0       0.0       0.0
13 H  py              0.0       0.1       0.0       0.2       0.0       0.2
14 H  s               3.2       2.4       0.2       0.5       0.2       1.0
14 H  px              0.0       1.0       0.0       0.2       0.3       0.4
14 H  py              0.0       0.1       0.2       0.0       0.0       0.1
15 H  s               0.1       2.3       0.6       0.4       0.3       4.2
15 H  pz              0.0       0.4       0.1       0.1       0.2       0.2
15 H  px              0.0       0.4       0.0       0.1       0.3       0.3
15 H  py              0.0       0.3       0.0       0.2       0.1       1.4
16 H  s               2.7       1.2       1.9       0.1       2.5       1.0
16 H  pz              0.0       0.2       0.5       0.0       0.2       1.3
16 H  px              0.0       0.3       0.5       0.0       0.2       0.0
16 H  py              0.0       0.2       0.0       0.0       0.6       0.0
17 H  s               1.9       2.2       0.7       1.0       0.2       0.2
17 H  px              0.0       0.7       0.1       0.4       0.4       0.0
17 H  py              0.0       0.3       0.1       0.0       0.1       0.1
18 H  s               0.0       1.9       0.5       1.0       0.8       1.7
18 H  pz              0.0       0.7       0.2       0.0       0.7       0.0
18 H  px              0.0       0.1       0.1       0.0       0.0       0.1
18 H  py              0.0       0.1       0.0       0.0       0.0       0.1
19 H  s               2.4       1.2       0.1       2.4       4.4       0.3
19 H  pz              0.0       0.3       0.0       0.5       1.1       0.0
19 H  px              0.0       0.5       0.0       0.6       0.5       0.0
19 H  py              0.0       0.0       0.0       0.7       0.1       0.0

                     30        31        32        33        34        35   
                   0.14325   0.14673   0.15685   0.16468   0.18104   0.18496
                   0.00000   0.00000   0.00000   0.00000   0.00000   0.00000
                  --------  --------  --------  --------  --------  --------
 0 C  s               3.2       0.3       5.4       0.4       0.2       0.4
 0 C  pz              0.6       2.4       0.1       0.3       0.2       4.3
 0 C  px              3.7       0.4       0.8       1.0       3.1       1.0
[...]
 4 C  py              1.0       0.0       0.1       0.1       0.0       0.0
 4 C  dz2             2.1       0.6       1.4       0.1       0.0       0.0
 4 C  dxz             1.6       1.5       2.4       0.2       0.0       0.0
 4 C  dyz             0.3       0.6       0.2       0.4       0.0       0.0
 4 C  dx2y2           5.4       0.0       0.1       0.1       0.0       0.0
 4 C  dxy             0.5       0.0       0.2       0.0       0.0       0.0
 5 C  s               0.1       0.5       0.1       0.1      24.2      46.0
 5 C  pz              2.2       0.9       0.5       0.0       0.0       0.0
 5 C  px              1.4       1.5       0.2       0.0       0.0       0.0
 5 C  py              0.1       0.5       0.6       0.4       0.0       0.0
 5 C  dz2             1.2       0.0       0.8       0.0       0.0       0.0
 5 C  dxz             3.4       0.0       1.6       0.0       0.0       0.0
 5 C  dyz             4.2       0.1       0.1       0.4       0.0       0.0
 5 C  dx2y2           0.0       3.4       0.2       0.0       0.0       0.0
 5 C  dxy             0.1       0.5       0.3       0.0       0.0       0.0
 6 H  s               0.1       1.1       1.5       0.0       0.0       0.0
 6 H  pz              0.3       2.0       2.5       0.0       0.0       0.0
 6 H  px              0.0       1.2       0.5       0.0       0.0       0.0
 6 H  py              0.1       0.2       0.7       0.1       0.0       0.0
 7 H  s               1.0       0.2       0.9       0.8       0.0       0.0
 7 H  pz              0.5       0.3       0.3       0.8       0.0       0.0
 7 H  px              0.8       0.4       0.4       0.3       0.0       0.0
 7 H  py              1.4       0.1       1.3       1.0       0.0       0.0
 8 H  s               0.9       0.4       0.0       0.3       0.0       0.0
 8 H  pz              1.5       0.4       0.1       0.1       0.0       0.0
 8 H  px              0.6       0.3       0.0       0.6       0.0       0.0
 8 H  py              0.1       0.0       0.1       0.0       0.0       0.0
 9 H  s               0.4       0.2       0.1       4.8       0.0       0.0
 9 H  pz              0.0       0.0       0.1       1.2       0.0       0.0
 9 H  px              0.6       0.0       0.2       3.8       0.0       0.0
 9 H  py              0.3       0.5       0.0       4.8       0.0       0.0
10 H  s               0.5       1.7       1.0       2.8       0.0       0.0
10 H  pz              0.7       3.4       1.9       3.2       0.0       0.0
10 H  px              0.2       0.3       0.9       0.8       0.0       0.0
10 H  py              0.7       0.7       0.2       1.8       0.0       0.0
11 H  s               0.5       4.7       0.1       2.1       0.0       0.0
11 H  pz              0.1       3.7       0.0       2.1       0.0       0.0
11 H  px              0.1       0.6       0.0       0.3       0.0       0.0
11 H  py              1.4       7.7       0.4       1.8       0.0       0.0
12 H  s               0.4       0.5       0.1       4.8       0.0       0.0
12 H  pz              0.3       1.1       0.0       4.9       0.0       0.0
12 H  px              0.0       0.1       0.2       0.0       0.0       0.0
12 H  py              0.8       0.1       0.4       5.5       0.0       0.0
13 H  s               0.3       0.6       5.6       0.6       0.0       0.0
13 H  pz              0.4       0.5      10.4       0.7       0.0       0.0
13 H  px              0.4       1.3       4.4       0.9       0.0       0.0
13 H  py              0.7       0.1       0.6       0.0       0.0       0.0
14 H  s               4.1       0.6       0.3       0.0       0.0       0.0
14 H  pz              0.6       0.1       0.1       0.0       0.0       0.0
14 H  px             10.3       1.0       0.6       0.0       0.0       0.0
15 H  s               0.1       0.0       0.2       0.0       0.0       0.0
15 H  pz              0.0       0.1       0.0       0.0       0.0       0.0
15 H  px              0.1       0.0       0.1       0.0       0.0       0.0
15 H  py              0.4       0.0       0.5       0.0       0.0       0.0
16 H  s               0.4       1.1       1.5       0.1       0.0       0.0
16 H  pz              0.7       2.5       2.7       0.1       0.0       0.0
16 H  px              0.0       0.3       1.0       0.1       0.0       0.0
16 H  py              0.0       0.1       0.1       0.0       0.0       0.0
17 H  s               0.5       1.2       0.1       0.0       0.0       0.0
17 H  pz              0.3       0.2       0.0       0.0       0.0       0.0
17 H  px              0.9       2.9       0.3       0.0       0.0       0.0
17 H  py              0.1       0.2       0.1       0.0       0.0       0.0
18 H  s               1.3       0.1       0.0       0.1       0.0       0.0
18 H  pz              1.2       0.0       0.0       0.2       0.0       0.0
18 H  px              0.1       0.2       0.0       0.0       0.0       0.0
18 H  py              2.3       0.2       0.0       0.1       0.0       0.0
19 H  s               2.9       0.1       0.9       0.0       0.0       0.0
19 H  pz              4.3       0.0       1.8       0.1       0.0       0.0
19 H  px              1.8       0.2       0.7       0.0       0.0       0.0
19 H  py              0.6       0.1       0.2       0.0       0.0       0.0

                    180       181       182       183   
                  22.03137  22.05071  22.07112  22.17594
                   0.00000   0.00000   0.00000   0.00000
                  --------  --------  --------  --------
 0 C  s               9.3       0.1       2.8       0.2
 1 C  s              31.7      45.2      10.7       8.2
 2 C  s               2.3      13.6      50.3      27.0
 3 C  s               0.1       0.1      33.7      57.0
 4 C  s              36.2      38.2       1.5       1.0
 5 C  s              20.2       2.5       0.5       6.2


                      *****************************
                      * MAYER POPULATION ANALYSIS *
                      *****************************

  NA   - Mulliken gross atomic population
  ZA   - Total nuclear charge
  QA   - Mulliken gross atomic charge
  VA   - Mayer's total valence
  BVA  - Mayer's bonded valence
  FA   - Mayer's free valence

  ATOM       NA         ZA         QA         VA         BVA        FA
  0 C      6.5323     6.0000    -0.5323     3.8280     3.8280    -0.0000
  1 C      6.2543     6.0000    -0.2543     3.5787     3.5787    -0.0000
  2 C      6.2965     6.0000    -0.2965     3.4816     3.4816    -0.0000
  3 C      6.0161     6.0000    -0.0161     3.5766     3.5766     0.0000
  4 C      6.5487     6.0000    -0.5487     3.7145     3.7145     0.0000
  5 C      6.5371     6.0000    -0.5371     3.7661     3.7661     0.0000
  6 H      0.8433     1.0000     0.1567     0.9597     0.9597    -0.0000
  7 H      0.8392     1.0000     0.1608     0.9581     0.9581     0.0000
  8 H      0.8479     1.0000     0.1521     0.9599     0.9599     0.0000
  9 H      0.8501     1.0000     0.1499     0.9595     0.9595    -0.0000
 10 H      0.8471     1.0000     0.1529     0.9617     0.9617    -0.0000
 11 H      0.8450     1.0000     0.1550     0.9622     0.9622    -0.0000
 12 H      0.8454     1.0000     0.1546     0.9610     0.9610    -0.0000
 13 H      0.8514     1.0000     0.1486     0.9576     0.9576     0.0000
 14 H      0.8446     1.0000     0.1554     0.9607     0.9607     0.0000
 15 H      0.8387     1.0000     0.1613     0.9577     0.9577    -0.0000
 16 H      0.8337     1.0000     0.1663     0.9588     0.9588     0.0000
 17 H      0.8443     1.0000     0.1557     0.9609     0.9609    -0.0000
 18 H      0.8440     1.0000     0.1560     0.9611     0.9611    -0.0000
 19 H      0.8401     1.0000     0.1599     0.9621     0.9621     0.0000

  Mayer bond orders larger than 0.100000
B(  0-C ,  1-C ) :   0.8863 B(  0-C ,  6-H ) :   0.9835 B(  0-C ,  7-H ) :   0.9749 
B(  0-C ,  8-H ) :   0.9724 B(  1-C ,  2-C ) :   0.8301 B(  1-C ,  9-H ) :   0.9660 
B(  1-C , 10-H ) :   0.9832 B(  2-C ,  3-C ) :   0.9018 B(  2-C , 11-H ) :   0.9807 
B(  2-C , 12-H ) :   0.9807 B(  3-C ,  4-C ) :   0.8833 B(  3-C ,  5-C ) :   0.9303 
B(  3-C , 13-H ) :   0.9687 B(  4-C , 14-H ) :   0.9686 B(  4-C , 15-H ) :   0.9717 
B(  4-C , 16-H ) :   0.9755 B(  5-C , 17-H ) :   0.9716 B(  5-C , 18-H ) :   0.9728 
B(  5-C , 19-H ) :   0.9770 

-------
TIMINGS
-------

Total SCF time: 0 days 0 hours 0 min 17 sec 

Total time                  ....      17.348 sec
Sum of individual times     ....      16.818 sec  ( 96.9%)

SCF preparation             ....       0.390 sec  (  2.2%)
Fock matrix formation       ....      15.572 sec  ( 89.8%)
  Startup                   ....       0.061 sec  (  0.4% of F)
  Split-RI-J                ....       2.299 sec  ( 14.8% of F)
  XC integration            ....       9.732 sec  ( 62.5% of F)
    XC Preparation          ....       0.000 sec  (  0.0% of XC)
    Basis function eval.    ....       1.877 sec  ( 19.3% of XC)
    Density eval.           ....       2.612 sec  ( 26.8% of XC)
    XC-Functional eval.     ....       1.282 sec  ( 13.2% of XC)
    XC-Potential eval.      ....       3.091 sec  ( 31.8% of XC)
  CPCM terms                ....       3.038 sec  ( 19.5% of F)
Diagonalization             ....       0.000 sec  (  0.0%)
Density matrix formation    ....       0.200 sec  (  1.2%)
Total Energy calculation    ....       0.040 sec  (  0.2%)
Population analysis         ....       0.115 sec  (  0.7%)
Orbital Transformation      ....       0.064 sec  (  0.4%)
Orbital Orthonormalization  ....       0.000 sec  (  0.0%)
DIIS solution               ....       0.377 sec  (  2.2%)
  MO trafo                  ....       0.000 sec  (  0.0 % of DIIS)
  Orb grad                  ....       0.000 sec  (  0.0 % of DIIS)
  Energy W gradient         ....       0.000 sec  (  0.0 % of DIIS)
  DIIS error                ....       0.009 sec  (  2.5 % of DIIS)
  DIIS work                 ....       0.316 sec  ( 83.9 % of DIIS)
  Form Q                    ....       0.000 sec  (  0.0 % of DIIS)
  Form QpQm                 ....       0.000 sec  (  0.0 % of DIIS)
  Exp/Cayley                ....       0.000 sec  (  0.0 % of DIIS)
  Orb update                ....       0.000 sec  (  0.0 % of DIIS)
  Wake-sleep                ....       0.019 sec  (  5.0 % of DIIS)
SOSCF solution              ....       0.059 sec  (  0.3%)
  MO trafo                  ....       0.047 sec  ( 78.4 % of SOSCF)
  Orb grad                  ....       0.001 sec  (  1.2 % of SOSCF)
  Rot update                ....       0.000 sec  (  0.1 % of SOSCF)
  Step                      ....       0.012 sec  ( 20.2 % of SOSCF)
Finished LeanSCF after  17.5 sec

Maximum memory used throughout the entire LEANSCF-calculation: 27.6 MB


-------------------------------------------------------------------------------
                          DFT DISPERSION CORRECTION                            
                                                                               
                                DFTD4 V3.4.0                                   
-------------------------------------------------------------------------------
The R2SCAN3C composite method is recognized
Using three-body term ABC
Active option DFTDOPT                   ...         5   

-------------------------   ----------------
Dispersion correction           -0.005179881
-------------------------   ----------------

------------------   -----------------
gCP correction             0.009615356
------------------   -----------------

-------------------------   --------------------
FINAL SINGLE POINT ENERGY      -236.980689587324
-------------------------   --------------------


------------------------------------------------------------------------------
                              ORCA PROPERTY CALCULATIONS
------------------------------------------------------------------------------

GBWName                                 ... sp_solv.gbw
Number of atoms                         ...     20
Number of basis functions               ...    184
Max core memory                         ...   1024 MB

Electric properties:
Dipole moment                           ... YES
Quadrupole moment                       ...  NO
Static polarizability (Dipole/Dipole)   ...  NO
Static polarizability (Dipole/Quad.)    ...  NO
Static polarizability (Quad./Quad.)     ...  NO
Static polarizability (Velocity)        ...  NO

Atomic electric properties:
Dipole moment                           ...  NO
Quadrupole moment                       ...  NO
Static polarizability                   ...  NO

Choice of electric origin               ... Center of mass
Position of electric origin             ...     0.000001     0.000001     0.000003

General magnetic properties:
Magnetizability                         ...  NO

EPR properties:
g-Tensor (aka g-matrix)                 ...  NO
Zero-Field splitting spin-orbit         ...  NO
Zero-field splitting spin-spin          ...  NO
Hyperfine couplings                     ...  NO (   0 nuclei)
Quadrupole couplings                    ...  NO (   0 nuclei)
Contact density                         ...  NO (   0 nuclei)

NMR properties:
Chemical shifts                         ...  NO (   0 nuclei)
Spin-rotation constants                 ...  NO (   0 nuclei)
Spin-spin couplings                     ...  NO (   0 nuclei,    0 pairs)

Choice of magnetic origin               ... GIAO
Position of magnetic origin             ...     0.000000     0.000000     0.000000

Properties with geometric perturbations:
SCF Hessian                             ...  NO
IR spectrum                             ...  NO
VCD spectrum                            ...  NO
X-ray spectroscopy properties:
SCF XES/XAS/RIXS spectra                ...  NO


-------------
DIPOLE MOMENT
-------------

Method             : SCF
Type of density    : Electron Density
Multiplicity       :   1
Irrep              :   0
Energy             :  -236.9851250628329069 Eh
Relativity type    : 
Basis              : AO
                                X                 Y                 Z
Electronic contribution:     -0.359457246      -0.484901244      -1.237217341
Nuclear contribution   :      0.333509657       0.466780269       1.190682452
                        -----------------------------------------
Total Dipole Moment    :     -0.025947590      -0.018120975      -0.046534889
                        -----------------------------------------
Magnitude (a.u.)       :      0.056277376
Magnitude (Debye)      :      0.143045722



--------------------
Rotational spectrum 
--------------------
 
Rotational constants in cm-1:             0.171730             0.073220             0.062692 
Rotational constants in MHz :          5148.349164          2195.067544          1879.451660 

Dipole components along the rotational axes: 
x,y,z [a.u.] :    -0.031021    -0.028127    -0.037600 
x,y,z [Debye]:    -0.078848    -0.071492    -0.095572 

 

Dipole moment calculation done in   0.0 sec 

Maximum memory used throughout the entire PROP-calculation: 11.2 MB

--------------------------------
SUGGESTED CITATIONS FOR THIS RUN
--------------------------------

Below you find a list of papers that are relevant to this ORCA run
We neither can nor want to force you to cite these papers, but we appreciate if you do
You receive ORCA, which is the product of decades of hard work by many enthusiastic individuals, for free
The only thing we kindly ask in return is that you cite our papers,
We deeply appreciate it, if you show your appreciation for ORCA by not just citing the generic ORCA reference.

Please note that relegating all ORCA citations to the supporting information does *not* help us.
SI sections are not indexed - citations you put there will not count into any citation statistics
But we need these citations in order to attract the funding resources that allow us to do what we are doing

Therefore, if you are a happy ORCA user, please consider citing a few of the papers listed below in the main body of your paper

In addition to the list printed below, the program has created the file sp_solv.bibtex that contains the list in bibtex format
You can import this file easily into all common literature databanks and citation aid programs


List of essential papers. We consider these as the minimum necessary citations

  1. Neese,F.
     Software update: the ORCA program system, version 5.0
     WIRES Comput. Molec. Sci., 2022 12(1)e1606
     doi.org/10.1002/wcms.1606
  2. Grimme,S.; Hansen,A.; Ehlert,S.; Mewes,J.
     r2SCAN-3c: A 'Swiss army knife' composite electronic-structure method
     J. Chem. Phys., 2021 154 064103
     doi.org/10.1063/5.0040021

List of papers to cite with high priority. The work reported in these papers was absolutely
necessary for this run to complete.
Our perspective: the developers of density functionals and basis sets usually get cited in chemistry papers
Good! But without the algorithms to do something with them, the functionals or basis sets would not do anything.
Hence, in our opinion, the algorithm design and method developments papers are equally worthy of getting cited

  1. Neese,F.
     An improvement of the resolution of the identity approximation for the formation of the Coulomb matrix
     J. Comp. Chem., 2003 24(14)1740-1747
     doi.org/10.1002/jcc.10318
  2. Garcia-Rates,M.; Neese,F.
     Effect of the Solute Cavity on the Solvation Energy and its Derivatives within the Framework of the Gaussian Charge Scheme
     J. Comput. Chem., 2020 41 922-939
     doi.org/10.1002/jcc.26139
  3. Neese,F.
     The SHARK Integral Generation and Digestion System
     J. Comp. Chem., 2022  1-16
     doi.org/10.1002/jcc.26942
  4. Lehtola,S.; Steigemann,C.; Oliveira,M.; Marques,M.
     Recent developments in Libxc - A comprehensive library of functionals for density functional theory
     Software X, 2018 7 
     doi.org/10.1016/j.softx.2017.11.002
  5. Caldeweyher,E.; Bannwarth,C.; Grimme,S.
     Extension of the D3 dispersion coefficient model
     J. Chem. Phys., 2017 147 034112-XXXX
     doi.org/10.1063/1.4993215
  6. Caldeweyher,E.; Ehlert,S.; Hansen,A.; Neugebauer,H.; Spicher,S.; Bannwarth,C.; Grimme,S.
     A generally applicable atomic-charge dependent London dispersion correction
     J. Chem. Phys., 2019 150 154122-XXXX
     doi.org/10.1063/1.5090222
  7. Caldeweyher,E.; Mewes,J.; Ehlert,S.; Grimme,S.
     Extension and evaluation of the D4 London-dispersion model for periodic systems
     Phys. Chem. Chem. Phys., 2020 22(16)8499-8512
     doi.org/10.1039/D0CP00502A

List of suggested additional citations. These are papers that are important in the 'surrounding' of 
of this run, or papers that preceded the highly important papers. If you like your results we are grateful for a citation.

  1. Neese,F.
     The ORCA program system
     WIRES Comput. Molec. Sci., 2012 2(1)73-78
     doi.org/10.1002/wcms.81
  2. Neese,F.
     Software update: the ORCA program system, version 4.0
     WIRES Comput. Molec. Sci., 2018 8(1)1-6
     doi.org/10.1002/wcms.1327
  3. Neese,F.; Wennmohs,F.; Becker,U.; Riplinger,C.
     The ORCA quantum chemistry program package
     J. Chem. Phys., 2020 152 Art. No. L224108
     doi.org/10.1063/5.0004608

List of optional additional citations

  1. Neese,F.
     Approximate second-order SCF convergence for spin unrestricted wavefunctions
     Chem. Phys. Lett., 2000 325(1-3)93-98
     doi.org/10.1016/s0009-2614(00)00662-x

Timings for individual modules:

Sum of individual times          ...       19.280 sec (=   0.321 min)
Startup calculation              ...        1.251 sec (=   0.021 min)   6.5 %
SCF iterations                   ...       17.904 sec (=   0.298 min)  92.9 %
Property calculations            ...        0.125 sec (=   0.002 min)   0.6 %
                             ****ORCA TERMINATED NORMALLY****
TOTAL RUN TIME: 0 days 0 hours 0 minutes 20 seconds 145 msec
