      -----------------------------------------------------------      
     |                   =====================                   |     
     |                           x T B                           |     
     |                   =====================                   |     
     |                         S. Grimme                         |     
     |          Mulliken Center for Theoretical Chemistry        |     
     |                    University of Bonn                     |     
      -----------------------------------------------------------      

   * xtb version 6.7.1 (edcfbbe) compiled by 'albert@albert-system' on 2024-07-22

   xtb is free software: you can redistribute it and/or modify it under
   the terms of the GNU Lesser General Public License as published by
   the Free Software Foundation, either version 3 of the License, or
   (at your option) any later version.
   
   xtb is distributed in the hope that it will be useful,
   but WITHOUT ANY WARRANTY; without even the implied warranty of
   MERCHANTABILITY or FITNESS FOR A PARTICULAR PURPOSE.  See the
   GNU Lesser General Public License for more details.
   
   Cite this work as:
   * C. Bannwarth, E. Caldeweyher, S. Ehlert, A. Hansen, P. Pracht,
     J. Seibert, S. Spicher, S. Grimme, WIREs Comput. Mol. Sci., 2020, 11,
     e01493. DOI: 10.1002/wcms.1493
   
   for GFN2-xTB:
   * C. Bannwarth, S. Ehlert and S. Grimme., J. Chem. Theory Comput., 2019,
     15, 1652-1671. DOI: 10.1021/acs.jctc.8b01176
   for GFN1-xTB:
   * S. Grimme, C. Bannwarth, P. Shushkov, J. Chem. Theory Comput., 2017,
     13, 1989-2009. DOI: 10.1021/acs.jctc.7b00118
   for GFN0-xTB:
   * P. Pracht, E. Caldeweyher, S. Ehlert, S. Grimme, ChemRxiv, 2019, preprint.
     DOI: 10.26434/chemrxiv.8326202.v1
   for GFN-FF:
   * S. Spicher and S. Grimme, Angew. Chem. Int. Ed., 2020, 59, 15665-15673.
     DOI: 10.1002/anie.202004239
   
   for ALPB and GBSA implicit solvation:
   * S. Ehlert, M. Stahn, S. Spicher, S. Grimme, J. Chem. Theory Comput.,
     2021, 17, 4250-4261. DOI: 10.1021/acs.jctc.1c00471
   
   for ddCOSMO and CPCM-X implicit solvation:
   * M. Stahn, S. Ehlert, S. Grimme, J. Phys. Chem. A,
     2023, XX, XXXX-XXXX. DOI: 10.1021/acs.jpca.3c04382
   
   for DFT-D4:
   * E. Caldeweyher, C. Bannwarth and S. Grimme, J. Chem. Phys., 2017,
     147, 034112. DOI: 10.1063/1.4993215
   * E. Caldeweyher, S. Ehlert, A. Hansen, H. Neugebauer, S. Spicher,
     C. Bannwarth and S. Grimme, J. Chem. Phys., 2019, 150, 154122.
     DOI: 10.1063/1.5090222
   * E. Caldeweyher, J.-M. Mewes, S. Ehlert and S. Grimme, Phys. Chem. Chem. Phys.
     2020, 22, 8499-8512. DOI: 10.1039/D0CP00502A
   
   for sTDA-xTB:
   * S. Grimme and C. Bannwarth, J. Chem. Phys., 2016, 145, 054103.
     DOI: 10.1063/1.4959605
   
   in the mass-spec context:
   * V. Asgeirsson, C. Bauer and S. Grimme, Chem. Sci., 2017, 8, 4879.
     DOI: 10.1039/c7sc00601b
   * J. Koopman and S. Grimme, ACS Omega 2019, 4, 12, 15120-15133.
     DOI: 10.1021/acsomega.9b02011
   
   for metadynamics refer to:
   * S. Grimme, J. Chem. Theory Comput., 2019, 155, 2847-2862
     DOI: 10.1021/acs.jctc.9b00143
   
   for SPH calculations refer to:
   * S. Spicher and S. Grimme, J. Chem. Theory Comput., 2021, 17, 1701-1714
     DOI: 10.1021/acs.jctc.0c01306
   
   for ONIOM refer to:
   * C. Plett, A. Katbashev, S. Ehlert, S. Grimme, M. Bursch,
     Phys. Chem. Chem. Phys., 2023, 25, 17860-17868. DOI: 10.1039/D3CP02178E
   
   for DIPRO refer to:
   * J. Kohn, N. Gildemeister, S. Grimme, D. Fazzi, A. Hansen,
     J. Chem. Phys., 2023, just accepted.
   
   for PTB refer to:
   * S. Grimme, M. Mueller, A. Hansen, J. Chem. Phys., 2023, 158, 124111.
     DOI: 10.1063/5.0137838
   
   with help from (in alphabetical order)
   P. Atkinson, C. Bannwarth, F. Bohle, G. Brandenburg, E. Caldeweyher
   M. Checinski, S. Dohm, S. Ehlert, S. Ehrlich, I. Gerasimov, C. Hölzer
   A. Katbashev, J. Kohn, J. Koopman, C. Lavigne, S. Lehtola, F. März, M. Müller,
   F. Musil, H. Neugebauer, J. Pisarek, C. Plett, P. Pracht, F. Pultar,
   J. Seibert, P. Shushkov, S. Spicher, M. Stahn, M. Steiner, T. Strunk,
   J. Stückrath, T. Rose, and J. Unsleber
   
 * started run on 2025/04/11 at 11:49:01.138     
   ID    Z sym.   atoms
    1    6 C      1, 2, 4-7
    2    1 H      3, 9-21
    3    8 O      8

           -------------------------------------------------
          |                Calculation Setup                |
           -------------------------------------------------

          program call               : /srv/scratch/z5358697/.xtb/bin/xtb gas.coord --gfn2 --sp --chrg 0 --norestart --parallel 1
          hostname                   : k068
          coordinate file            : gas.coord
          omp threads                :                     1


           -------------------------------------------------
          |                 G F N 2 - x T B                 |
           -------------------------------------------------

        Reference                      10.1021/acs.jctc.8b01176
      * Hamiltonian:
        H0-scaling (s, p, d)           1.850000    2.230000    2.230000
        zeta-weighting                 0.500000
      * Dispersion:
        s8                             2.700000
        a1                             0.520000
        a2                             5.000000
        s9                             5.000000
      * Repulsion:
        kExp                           1.500000    1.000000
        rExp                           1.000000
      * Coulomb:
        alpha                          2.000000
        third order                    shell-resolved
        anisotropic                    true
        a3                             3.000000
        a5                             4.000000
        cn-shift                       1.200000
        cn-exp                         4.000000
        max-rad                        5.000000


          ...................................................
          :                      SETUP                      :
          :.................................................:
          :  # basis functions                  42          :
          :  # atomic orbitals                  42          :
          :  # shells                           28          :
          :  # electrons                        44          :
          :  max. iterations                   250          :
          :  Hamiltonian                  GFN2-xTB          :
          :  restarted?                      false          :
          :  GBSA solvation                  false          :
          :  PC potential                    false          :
          :  electronic temp.          300.0000000     K    :
          :  accuracy                    1.0000000          :
          :  -> integral cutoff          0.2500000E+02      :
          :  -> integral neglect         0.1000000E-07      :
          :  -> SCF convergence          0.1000000E-05 Eh   :
          :  -> wf. convergence          0.1000000E-03 e    :
          :  Broyden damping             0.4000000          :
          :  net charge                          0          :
          :  unpaired electrons                  0          :
          ...................................................

 iter      E             dE          RMSdq      gap      omega  full diag
   1    -24.3123492 -0.243123E+02  0.292E+00   12.14       0.0  T
   2    -24.3574904 -0.451412E-01  0.160E+00   11.80       1.0  T
   3    -24.3583587 -0.868325E-03  0.717E-01   11.92       1.0  T
   4    -24.3586930 -0.334291E-03  0.147E-01   11.91       1.0  T
   5    -24.3588199 -0.126897E-03  0.620E-02   11.94       1.0  T
   6    -24.3588210 -0.109077E-05  0.876E-03   11.94       2.5  T
   7    -24.3588212 -0.265576E-06  0.396E-03   11.94       5.5  T
   8    -24.3588213 -0.233194E-07  0.100E-03   11.94      21.7  T
   9    -24.3588213 -0.474369E-09  0.438E-04   11.94      49.8  T
  10    -24.3588213 -0.204135E-09  0.488E-05   11.94     447.2  T

   *** convergence criteria satisfied after 10 iterations ***

         #    Occupation            Energy/Eh            Energy/eV
      -------------------------------------------------------------
         1        2.0000           -0.6796077             -18.4931
       ...           ...                  ...                  ...
        16        2.0000           -0.4600652             -12.5190
        17        2.0000           -0.4517297             -12.2922
        18        2.0000           -0.4492028             -12.2234
        19        2.0000           -0.4368845             -11.8882
        20        2.0000           -0.4273222             -11.6280
        21        2.0000           -0.4184670             -11.3871
        22        2.0000           -0.4029097             -10.9637 (HOMO)
        23                          0.0357910               0.9739 (LUMO)
        24                          0.0581426               1.5821
        25                          0.0893633               2.4317
        26                          0.0948065               2.5798
        27                          0.1056178               2.8740
       ...                                ...                  ...
        42                          0.3063285               8.3356
      -------------------------------------------------------------
                  HL-Gap            0.4387007 Eh           11.9377 eV
             Fermi-level           -0.1835593 Eh           -4.9949 eV

 SCC (total)                   0 d,  0 h,  0 min,  0.014 sec
 SCC setup                      ...        0 min,  0.000 sec (  1.554%)
 Dispersion                     ...        0 min,  0.000 sec (  0.868%)
 classical contributions        ...        0 min,  0.000 sec (  0.210%)
 integral evaluation            ...        0 min,  0.002 sec ( 10.659%)
 iterations                     ...        0 min,  0.007 sec ( 50.983%)
 molecular gradient             ...        0 min,  0.005 sec ( 34.402%)
 printout                       ...        0 min,  0.000 sec (  1.217%)

         :::::::::::::::::::::::::::::::::::::::::::::::::::::
         ::                     SUMMARY                     ::
         :::::::::::::::::::::::::::::::::::::::::::::::::::::
         :: total energy             -24.050576783841 Eh    ::
         :: gradient norm              0.006511423275 Eh/a0 ::
         :: HOMO-LUMO gap             11.937652965646 eV    ::
         ::.................................................::
         :: SCC energy               -24.358756295567 Eh    ::
         :: -> isotropic ES            0.029357722674 Eh    ::
         :: -> anisotropic ES          0.006029276673 Eh    ::
         :: -> anisotropic XC          0.009819916924 Eh    ::
         :: -> dispersion             -0.013132326617 Eh    ::
         :: repulsion energy           0.308179511725 Eh    ::
         :: add. restraining           0.000000000000 Eh    ::
         :: total charge              -0.000000000000 e     ::
         :::::::::::::::::::::::::::::::::::::::::::::::::::::

           -------------------------------------------------
          |                Property Printout                |
           -------------------------------------------------

    * Orbital Energies and Occupations

         #    Occupation            Energy/Eh            Energy/eV
      -------------------------------------------------------------
         1        2.0000           -0.6796077             -18.4931
       ...           ...                  ...                  ...
        10        2.0000           -0.5185440             -14.1103
        11        2.0000           -0.5031898             -13.6925
        12        2.0000           -0.4931773             -13.4200
        13        2.0000           -0.4835110             -13.1570
        14        2.0000           -0.4773878             -12.9904
        15        2.0000           -0.4635901             -12.6149
        16        2.0000           -0.4600652             -12.5190
        17        2.0000           -0.4517297             -12.2922
        18        2.0000           -0.4492028             -12.2234
        19        2.0000           -0.4368845             -11.8882
        20        2.0000           -0.4273222             -11.6280
        21        2.0000           -0.4184670             -11.3871
        22        2.0000           -0.4029097             -10.9637 (HOMO)
        23                          0.0357910               0.9739 (LUMO)
        24                          0.0581426               1.5821
        25                          0.0893633               2.4317
        26                          0.0948065               2.5798
        27                          0.1056178               2.8740
        28                          0.1255298               3.4158
        29                          0.1311603               3.5691
        30                          0.1465670               3.9883
        31                          0.1664597               4.5296
        32                          0.1797847               4.8922
        33                          0.2004426               5.4543
       ...                                ...                  ...
        42                          0.3063285               8.3356
      -------------------------------------------------------------
                  HL-Gap            0.4387007 Eh           11.9377 eV
             Fermi-level           -0.1835593 Eh           -4.9949 eV

     #   Z          covCN         q      C6AA      α(0)
     1   6 C        3.750    -0.123    22.933     6.830
     2   6 C        3.720     0.113    18.842     6.200
     3   1 H        0.924     0.040     2.453     2.449
     4   6 C        3.803    -0.079    22.011     6.679
     5   6 C        3.848    -0.008    20.694     6.471
     6   6 C        3.755    -0.106    22.585     6.776
     7   6 C        3.758    -0.108    22.609     6.779
     8   8 O        1.654    -0.451    21.857     6.311
     9   1 H        0.925     0.038     2.481     2.463
    10   1 H        0.925     0.045     2.387     2.416
    11   1 H        0.925     0.044     2.397     2.421
    12   1 H        0.924     0.035     2.514     2.479
    13   1 H        0.924     0.040     2.453     2.449
    14   1 H        0.924     0.033     2.550     2.497
    15   1 H        0.925     0.033     2.539     2.492
    16   1 H        0.925     0.033     2.546     2.495
    17   1 H        0.925     0.034     2.530     2.488
    18   1 H        0.925     0.034     2.531     2.488
    19   1 H        0.925     0.035     2.519     2.482
    20   1 H        0.925     0.035     2.519     2.482
    21   1 H        0.805     0.286     0.766     1.375

 Mol. C6AA /au·bohr⁶  :       2899.263587
 Mol. C8AA /au·bohr⁸  :      59974.120942
 Mol. α(0) /au        :         79.522626


Wiberg/Mayer (AO) data.
largest (>0.10) Wiberg bond orders for each atom

 ---------------------------------------------------------------------------
     #   Z sym  total        # sym  WBO       # sym  WBO       # sym  WBO
 ---------------------------------------------------------------------------
     1   6 C    3.995 --     2 C    0.994     9 H    0.989    11 H    0.985
                            10 H    0.985
     2   6 C    3.953 --     1 C    0.994     8 O    0.991     4 C    0.983
                             3 H    0.968
     3   1 H    0.998 --     2 C    0.968
     4   6 C    3.995 --     5 C    0.998     2 C    0.983    13 H    0.976
                            12 H    0.975
     5   6 C    3.996 --     6 C    1.010     7 C    1.007     4 C    0.998
                            14 H    0.966
     6   6 C    3.997 --     5 C    1.010    17 H    0.986    16 H    0.986
                            15 H    0.984
     7   6 C    3.996 --     5 C    1.007    20 H    0.987    18 H    0.987
                            19 H    0.986
     8   8 O    1.963 --     2 C    0.991    21 H    0.897
     9   1 H    0.998 --     1 C    0.989
    10   1 H    0.998 --     1 C    0.985
    11   1 H    0.998 --     1 C    0.985
    12   1 H    0.999 --     4 C    0.975
    13   1 H    0.998 --     4 C    0.976
    14   1 H    0.999 --     5 C    0.966
    15   1 H    0.999 --     6 C    0.984
    16   1 H    0.999 --     6 C    0.986
    17   1 H    0.999 --     6 C    0.986
    18   1 H    0.999 --     7 C    0.987
    19   1 H    0.999 --     7 C    0.986
    20   1 H    0.999 --     7 C    0.987
    21   1 H    0.918 --     8 O    0.897
 ---------------------------------------------------------------------------

Topologies differ in total number of bonds
Writing topology from bond orders to xtbtopo.mol

molecular dipole:
                 x           y           z       tot (Debye)
 q only:       -0.409       0.189      -0.426
   full:       -0.550       0.289      -0.540       2.092
molecular quadrupole (traceless):
                xx          xy          yy          xz          yz          zz
 q only:       -1.666       0.087       2.443      -3.299       0.987      -0.777
  q+dip:       -2.155      -0.333       3.204      -4.270       1.349      -1.048
   full:       -2.198      -0.197       3.297      -4.321       1.427      -1.099


           -------------------------------------------------
          | TOTAL ENERGY              -24.050576783841 Eh   |
          | GRADIENT NORM               0.006511423275 Eh/α |
          | HOMO-LUMO GAP              11.937652965646 eV   |
           -------------------------------------------------

------------------------------------------------------------------------
 * finished run on 2025/04/11 at 11:49:01.182     
------------------------------------------------------------------------
 total:
 * wall-time:     0 d,  0 h,  0 min,  0.043 sec
 *  cpu-time:     0 d,  0 h,  0 min,  0.022 sec
 * ratio c/w:     0.513 speedup
 SCF:
 * wall-time:     0 d,  0 h,  0 min,  0.014 sec
 *  cpu-time:     0 d,  0 h,  0 min,  0.014 sec
 * ratio c/w:     0.936 speedup

