 Entering Gaussian System
 *********************************************
 Gaussian 98:
 frequency output generated by the xtb code
 *********************************************
                         Standard orientation:
 --------------------------------------------------------------------
  Center     Atomic     Atomic              Coordinates (Angstroms)
  Number     Number      Type              X           Y           Z
 --------------------------------------------------------------------
    1          6             0       -2.385150   -0.755880   -0.083028
    2          6             0       -1.743965    0.569249    0.311453
    3          6             0       -0.443251    0.904604   -0.424171
    4          6             0        0.791255    0.048270   -0.059985
    5          6             0        2.058504    0.884944   -0.299016
    6          6             0        0.878620   -1.222348   -0.916568
    7          8             0        0.691752   -0.287676    1.319557
    8          1             0       -2.447743   -0.847154   -1.165294
    9          1             0       -3.391633   -0.815340    0.325514
   10          1             0       -1.816533   -1.592966    0.311673
   11          1             0       -2.450535    1.375464    0.098978
   12          1             0       -1.548386    0.569523    1.384386
   13          1             0       -0.604273    0.836760   -1.500939
   14          1             0       -0.204658    1.943549   -0.186759
   15          1             0        2.951214    0.284064   -0.137264
   16          1             0        2.079360    1.729826    0.385736
   17          1             0        2.072134    1.258429   -1.318800
   18          1             0        0.917976   -0.958174   -1.969261
   19          1             0        0.020371   -1.863784   -0.748065
   20          1             0        1.780024   -1.779888   -0.667874
   21          1             0        1.478197   -0.788228    1.573274
 --------------------------------------------------------------------
     1 basis functions        1 primitive gaussians
     1 alpha electrons        1 beta electrons
 
 Harmonic frequencies (cm**-1), IR intensities (km*mol⁻¹),
 Raman scattering activities (A**4/amu), Raman depolarization ratios,
 reduced masses (AMU), force constants (mDyne/A) and normal coordinates:
                      1                      2                      3
                        a                      a                      a 
 Frequencies --    27.9348               117.4254               179.7216
 Red. masses --     9.0297                 6.7787                 1.7524
 Frc consts  --     0.0000                 0.0000                 0.0000
 IR Inten    --     0.7767                 1.2295                 0.2421
 Raman Activ --     0.0000                 0.0000                 0.0000
 Depolar     --     0.0000                 0.0000                 0.0000
 Atom AN      X      Y      Z        X      Y      Z        X      Y      Z
   1   6     0.21  -0.06   0.47    -0.40   0.23   0.03    -0.01  -0.08  -0.03
   2   6     0.02   0.20  -0.11     0.09  -0.04   0.14    -0.02  -0.07  -0.01
   3   6     0.00  -0.00  -0.22    -0.05  -0.25  -0.20    -0.00   0.02   0.05
   4   6    -0.04  -0.01  -0.07     0.07  -0.04  -0.04     0.00   0.02   0.02
   5   6     0.00   0.01   0.25    -0.05   0.17   0.09     0.03  -0.04  -0.09
   6   6     0.11   0.08  -0.20     0.34  -0.05   0.01    -0.08   0.03   0.01
   7   8    -0.32  -0.20  -0.15     0.01  -0.06  -0.05     0.08   0.12   0.05
   8   1     0.03  -0.14   0.15    -0.33   0.20   0.01     0.05  -0.04  -0.01
   9   1     0.08  -0.03   0.17    -0.04   0.07   0.19    -0.03   0.00  -0.06
  10   1     0.12   0.06   0.22    -0.08  -0.01  -0.21    -0.04  -0.02   0.04
  11   1    -0.02   0.01  -0.14     0.07   0.05   0.16    -0.01  -0.02  -0.00
  12   1    -0.01   0.20  -0.03     0.12  -0.09   0.02    -0.02  -0.02   0.00
  13   1    -0.01  -0.07  -0.06    -0.06  -0.20  -0.04     0.01   0.02   0.01
  14   1     0.01   0.01  -0.13    -0.02  -0.04  -0.19    -0.01   0.00   0.04
  15   1    -0.01  -0.00   0.09     0.01   0.09   0.04     0.00  -0.08  -0.24
  16   1    -0.03  -0.02   0.10    -0.07   0.04   0.04     0.13  -0.12   0.11
  17   1     0.05   0.04   0.09    -0.01   0.06   0.03    -0.10   0.16   0.04
  18   1     0.14   0.06  -0.05     0.22  -0.02   0.01     0.48   0.05   0.03
  19   1    -0.01   0.04  -0.17     0.06   0.00  -0.09    -0.27   0.24  -0.38
  20   1    -0.01  -0.01   0.01     0.06  -0.03   0.11    -0.28  -0.26   0.35
  21   1    -0.09  -0.04  -0.01     0.02   0.03   0.01     0.02   0.03   0.01
                      4                      5                      6
                        a                      a                      a 
 Frequencies --   225.0376               248.0898               273.9857
 Red. masses --     5.8454                 3.9754                 4.9287
 Frc consts  --     0.0000                 0.0000                 0.0000
 IR Inten    --     1.4587                 1.8068                 1.4622
 Raman Activ --     0.0000                 0.0000                 0.0000
 Depolar     --     0.0000                 0.0000                 0.0000
 Atom AN      X      Y      Z        X      Y      Z        X      Y      Z
   1   6    -0.15   0.10   0.05    -0.22   0.02   0.06     0.17   0.11  -0.06
   2   6    -0.16   0.17  -0.20    -0.15   0.04  -0.09     0.23  -0.03   0.32
   3   6     0.03  -0.10   0.04    -0.01  -0.07   0.09    -0.04  -0.04  -0.10
   4   6     0.05  -0.09   0.06     0.06  -0.01   0.04    -0.04  -0.01  -0.09
   5   6    -0.15   0.20  -0.03    -0.00   0.07  -0.01    -0.12   0.11  -0.01
   6   6     0.12  -0.09   0.07     0.05   0.07  -0.08     0.04  -0.10   0.06
   7   8     0.27  -0.25   0.05     0.28  -0.17   0.02    -0.23  -0.01  -0.12
   8   1     0.09  -0.10   0.02     0.14  -0.13   0.02     0.44  -0.04  -0.03
   9   1    -0.10   0.11  -0.11    -0.15   0.13  -0.17    -0.11   0.17  -0.39
  10   1    -0.11   0.06   0.18    -0.20   0.01   0.23    -0.18  -0.00   0.25
  11   1    -0.01   0.05  -0.19    -0.01   0.02  -0.11     0.06   0.02   0.23
  12   1    -0.13   0.15  -0.04    -0.10   0.07  -0.01     0.17  -0.11   0.07
  13   1     0.05  -0.03   0.01     0.02  -0.01   0.02    -0.09  -0.09  -0.01
  14   1     0.02  -0.03   0.01    -0.01  -0.02   0.03     0.01   0.00  -0.12
  15   1     0.01   0.05  -0.34     0.01   0.13   0.37    -0.01   0.06  -0.02
  16   1     0.05  -0.12   0.21    -0.18   0.24  -0.28    -0.07   0.02   0.02
  17   1    -0.25   0.33   0.09     0.18  -0.31  -0.12    -0.05   0.06   0.01
  18   1    -0.08  -0.04   0.01     0.14   0.05  -0.01     0.03  -0.08   0.01
  19   1     0.09  -0.08   0.11    -0.06   0.09  -0.13     0.01  -0.02   0.04
  20   1     0.10   0.04  -0.05    -0.05  -0.06   0.05     0.01  -0.01   0.06
  21   1     0.07  -0.08  -0.04     0.11   0.01  -0.02    -0.10  -0.07  -0.02
                      7                      8                      9
                        a                      a                      a 
 Frequencies --   277.3679               284.5629               342.0312
 Red. masses --     2.3272                 7.1112                 8.5590
 Frc consts  --     0.0000                 0.0000                 0.0000
 IR Inten    --   198.9238                 6.2695                 2.8878
 Raman Activ --     0.0000                 0.0000                 0.0000
 Depolar     --     0.0000                 0.0000                 0.0000
 Atom AN      X      Y      Z        X      Y      Z        X      Y      Z
   1   6    -0.12  -0.07   0.05     0.31   0.13  -0.11    -0.20  -0.02   0.09
   2   6     0.00  -0.08  -0.05    -0.07   0.23   0.06    -0.15  -0.03   0.08
   3   6     0.01  -0.01  -0.04    -0.02   0.09   0.15    -0.03   0.07   0.23
   4   6     0.06   0.07   0.00    -0.12  -0.11   0.05     0.02  -0.00  -0.03
   5   6     0.11   0.04  -0.01    -0.29   0.07  -0.26     0.16  -0.23  -0.22
   6   6    -0.02   0.07   0.05     0.19  -0.15   0.13     0.48   0.05  -0.09
   7   8     0.09   0.18   0.03    -0.05  -0.22   0.04    -0.33   0.13  -0.06
   8   1    -0.06  -0.03   0.02    -0.01   0.14  -0.03     0.03  -0.05   0.02
   9   1    -0.03   0.02   0.04     0.14  -0.14   0.07    -0.09   0.05  -0.06
  10   1    -0.06  -0.03   0.02     0.24   0.08  -0.17    -0.11  -0.01   0.10
  11   1     0.00  -0.02  -0.01    -0.03   0.04  -0.02    -0.03  -0.00  -0.02
  12   1     0.01  -0.01  -0.01    -0.06   0.08   0.02    -0.09   0.01   0.03
  13   1     0.01  -0.01  -0.01    -0.00   0.06   0.04    -0.00   0.16   0.06
  14   1    -0.02   0.00  -0.01     0.05   0.01   0.07     0.01  -0.01   0.20
  15   1     0.02   0.01   0.03    -0.04   0.11  -0.01     0.01  -0.14  -0.14
  16   1     0.03   0.01  -0.00    -0.14   0.11  -0.19     0.17  -0.06  -0.07
  17   1     0.05   0.00  -0.00    -0.13  -0.12  -0.13    -0.00  -0.07  -0.07
  18   1    -0.01   0.01   0.01     0.21  -0.06   0.04     0.14   0.05  -0.02
  19   1    -0.01   0.03   0.02     0.04  -0.06  -0.08     0.21  -0.10  -0.06
  20   1    -0.00   0.01   0.00     0.03  -0.03   0.18     0.20   0.12  -0.01
  21   1    -0.44  -0.79  -0.23    -0.09  -0.21  -0.05    -0.10   0.05   0.08
                     10                     11                     12
                        a                      a                      a 
 Frequencies --   391.4199               418.7182               451.9803
 Red. masses --     8.3013                 9.0704                 9.6157
 Frc consts  --     0.0000                 0.0000                 0.0000
 IR Inten    --    10.8800                 2.8272                11.7266
 Raman Activ --     0.0000                 0.0000                 0.0000
 Depolar     --     0.0000                 0.0000                 0.0000
 Atom AN      X      Y      Z        X      Y      Z        X      Y      Z
   1   6    -0.15  -0.09   0.10    -0.04  -0.02   0.03    -0.00  -0.04  -0.03
   2   6     0.15  -0.15  -0.12     0.28  -0.12  -0.14    -0.08   0.00   0.02
   3   6     0.19   0.26   0.09     0.27  -0.11  -0.03    -0.17   0.07  -0.15
   4   6     0.11   0.08  -0.17     0.12  -0.06   0.29     0.01   0.33   0.12
   5   6     0.04   0.25  -0.00    -0.10   0.11  -0.25     0.25  -0.05  -0.15
   6   6    -0.07  -0.19   0.23    -0.10   0.21  -0.10    -0.00   0.28   0.32
   7   8    -0.21  -0.20  -0.31    -0.32  -0.11   0.30    -0.04  -0.48  -0.06
   8   1    -0.13  -0.07   0.04    -0.06  -0.04   0.01     0.01  -0.00  -0.01
   9   1    -0.02   0.08   0.11    -0.00   0.10   0.05    -0.00  -0.04  -0.02
  10   1    -0.09  -0.06   0.03    -0.07  -0.04   0.02     0.01  -0.00  -0.01
  11   1     0.04  -0.04  -0.01     0.10  -0.01  -0.03    -0.05  -0.01   0.04
  12   1     0.05  -0.05  -0.03     0.09  -0.03  -0.04     0.01  -0.02  -0.00
  13   1     0.11   0.30   0.01     0.13  -0.06  -0.01    -0.06  -0.17  -0.03
  14   1     0.04   0.02   0.26     0.04  -0.02  -0.02    -0.11   0.07  -0.22
  15   1     0.04   0.13   0.03     0.05   0.12  -0.16     0.01  -0.13  -0.11
  16   1    -0.07   0.08  -0.00     0.01   0.11  -0.17     0.26   0.02  -0.10
  17   1     0.03   0.08  -0.00    -0.22  -0.07  -0.11     0.02  -0.07  -0.07
  18   1     0.01  -0.23   0.03    -0.08   0.20   0.00    -0.00  -0.02   0.07
  19   1    -0.06   0.03   0.17    -0.05   0.08  -0.07     0.00   0.10   0.16
  20   1    -0.06  -0.08   0.18    -0.04  -0.01  -0.16    -0.01   0.09   0.15
  21   1    -0.01   0.05  -0.02    -0.09   0.01   0.17     0.08  -0.00  -0.07
                     13                     14                     15
                        a                      a                      a 
 Frequencies --   532.4000               744.2422               821.5148
 Red. masses --     8.5842                 8.2516                 5.4546
 Frc consts  --     0.0000                 0.0000                 0.0000
 IR Inten    --     5.4491                 2.3998                22.7170
 Raman Activ --     0.0000                 0.0000                 0.0000
 Depolar     --     0.0000                 0.0000                 0.0000
 Atom AN      X      Y      Z        X      Y      Z        X      Y      Z
   1   6     0.05   0.04  -0.05    -0.07  -0.05  -0.01     0.01  -0.13   0.03
   2   6    -0.23   0.08   0.18    -0.23   0.12  -0.04     0.15  -0.09   0.14
   3   6     0.00  -0.33   0.23    -0.17   0.28  -0.22    -0.02   0.39  -0.01
   4   6     0.34  -0.03  -0.04     0.10  -0.07   0.04    -0.05   0.07  -0.02
   5   6     0.33   0.25  -0.06     0.28   0.17  -0.03     0.07   0.06  -0.01
   6   6    -0.12  -0.10  -0.05     0.03  -0.31  -0.18     0.00  -0.25  -0.18
   7   8    -0.23   0.05  -0.15    -0.01  -0.09   0.35    -0.00  -0.05   0.23
   8   1     0.05   0.10  -0.03     0.01  -0.14   0.01    -0.03   0.21  -0.01
   9   1     0.01  -0.12  -0.04    -0.01  -0.12   0.00    -0.03   0.16  -0.04
  10   1     0.09   0.04  -0.07     0.10   0.11   0.09    -0.23  -0.27  -0.16
  11   1    -0.01   0.02  -0.14    -0.11   0.08   0.33    -0.07  -0.20  -0.30
  12   1    -0.23   0.12   0.08     0.18  -0.20  -0.05    -0.17   0.27   0.07
  13   1    -0.08  -0.18   0.08     0.00   0.12  -0.07    -0.13  -0.12   0.03
  14   1    -0.00  -0.07  -0.05    -0.03   0.06  -0.01    -0.05   0.17  -0.23
  15   1     0.13   0.12  -0.02     0.12   0.11  -0.04     0.03   0.03  -0.01
  16   1     0.04   0.07  -0.02     0.05   0.07  -0.03     0.01   0.02  -0.01
  17   1     0.06   0.07  -0.02     0.01   0.03  -0.02     0.01   0.02  -0.00
  18   1    -0.09  -0.06  -0.02    -0.01  -0.03  -0.04     0.03  -0.10  -0.06
  19   1    -0.11   0.10   0.07    -0.01  -0.07  -0.07     0.03  -0.12  -0.06
  20   1    -0.10  -0.15  -0.07    -0.01  -0.13  -0.11     0.02  -0.01  -0.00
  21   1    -0.10   0.02   0.12    -0.02  -0.03   0.12     0.01  -0.01   0.02
                     16                     17                     18
                        a                      a                      a 
 Frequencies --   880.6095               913.3681               939.6478
 Red. masses --     6.4646                 6.3648                 4.7390
 Frc consts  --     0.0000                 0.0000                 0.0000
 IR Inten    --    17.0071                 1.3825                 1.8995
 Raman Activ --     0.0000                 0.0000                 0.0000
 Depolar     --     0.0000                 0.0000                 0.0000
 Atom AN      X      Y      Z        X      Y      Z        X      Y      Z
   1   6     0.12   0.17   0.13     0.14   0.17  -0.11    -0.07  -0.07   0.00
   2   6     0.06  -0.13  -0.02     0.15  -0.09  -0.19    -0.01   0.03   0.05
   3   6    -0.26  -0.31  -0.24    -0.08  -0.16   0.31     0.09   0.03  -0.02
   4   6    -0.13   0.01  -0.12    -0.24   0.15  -0.05    -0.15  -0.20  -0.03
   5   6     0.14   0.15  -0.07     0.10   0.21  -0.08     0.27   0.00  -0.22
   6   6    -0.01   0.03   0.03    -0.11  -0.13  -0.16    -0.25   0.08   0.25
   7   8    -0.02  -0.09   0.27    -0.05  -0.02   0.15    -0.02  -0.04  -0.03
   8   1     0.11   0.27   0.01    -0.13  -0.25   0.01     0.02   0.00  -0.00
   9   1    -0.01   0.05  -0.07     0.10   0.23   0.17    -0.03  -0.06  -0.03
  10   1    -0.04  -0.06  -0.10     0.03   0.13   0.15     0.01  -0.01  -0.02
  11   1    -0.00  -0.08  -0.13     0.12   0.05  -0.00     0.00   0.01   0.00
  12   1     0.11   0.19  -0.02    -0.09  -0.20  -0.03    -0.01   0.02   0.01
  13   1     0.01   0.35  -0.10    -0.07  -0.17   0.10     0.00  -0.03   0.00
  14   1    -0.07  -0.18   0.37    -0.06  -0.01  -0.04     0.06   0.01  -0.05
  15   1    -0.03  -0.06   0.02    -0.10  -0.12   0.05     0.19   0.21   0.06
  16   1     0.10   0.02   0.00     0.15   0.02   0.01    -0.28  -0.11   0.10
  17   1     0.16   0.06  -0.01     0.21   0.07  -0.01     0.20   0.22   0.03
  18   1    -0.01   0.02   0.01     0.07  -0.14  -0.06     0.09   0.30   0.14
  19   1    -0.01   0.01  -0.00     0.07  -0.17  -0.07     0.11  -0.30  -0.26
  20   1    -0.01   0.00   0.00     0.03   0.12   0.11     0.09   0.28   0.07
  21   1     0.03  -0.01  -0.01     0.02  -0.00  -0.04     0.02   0.02  -0.02
                     19                     20                     21
                        a                      a                      a 
 Frequencies --   959.6689               974.0320              1007.3683
 Red. masses --     7.6946                 5.6670                 3.7251
 Frc consts  --     0.0000                 0.0000                 0.0000
 IR Inten    --    22.0207                 6.7665                 0.5216
 Raman Activ --     0.0000                 0.0000                 0.0000
 Depolar     --     0.0000                 0.0000                 0.0000
 Atom AN      X      Y      Z        X      Y      Z        X      Y      Z
   1   6    -0.11  -0.09  -0.03    -0.25  -0.17   0.08     0.02   0.11   0.05
   2   6    -0.01   0.07   0.08    -0.01   0.10   0.10    -0.02  -0.10  -0.05
   3   6     0.17   0.00  -0.01     0.35  -0.09  -0.03    -0.06  -0.07  -0.01
   4   6     0.11   0.05  -0.38    -0.21   0.14   0.10     0.01   0.00  -0.01
   5   6    -0.14  -0.11  -0.21    -0.03   0.21   0.06     0.17  -0.19   0.20
   6   6     0.05   0.24  -0.11    -0.13  -0.11  -0.15    -0.17   0.15  -0.22
   7   8    -0.03  -0.10   0.40    -0.02   0.03  -0.01     0.03   0.05   0.02
   8   1     0.01  -0.05  -0.01     0.14   0.12  -0.01     0.04   0.05   0.01
   9   1    -0.03  -0.15  -0.02    -0.11  -0.36  -0.16     0.00  -0.01  -0.01
  10   1     0.06   0.04   0.01     0.10   0.02  -0.08     0.04   0.05   0.01
  11   1     0.06   0.06  -0.00     0.08   0.09   0.02     0.01  -0.01  -0.01
  12   1    -0.05  -0.01   0.03     0.10   0.10   0.01     0.02  -0.01  -0.02
  13   1    -0.04  -0.01   0.01     0.25  -0.05  -0.03     0.04   0.01  -0.01
  14   1     0.08   0.00  -0.04     0.10  -0.02  -0.01    -0.12  -0.01   0.06
  15   1    -0.07  -0.04   0.11    -0.15  -0.16  -0.01     0.29   0.28  -0.14
  16   1    -0.23  -0.16   0.12     0.27   0.10  -0.05    -0.11   0.06  -0.08
  17   1     0.22   0.15   0.02     0.05  -0.06  -0.03    -0.38  -0.13   0.01
  18   1     0.01  -0.26  -0.11     0.06  -0.14  -0.06     0.11  -0.34  -0.14
  19   1    -0.02   0.17   0.22     0.07  -0.17  -0.07     0.09  -0.11   0.07
  20   1    -0.03   0.07   0.16     0.02   0.12   0.10     0.02   0.29   0.31
  21   1    -0.04  -0.03   0.19     0.04   0.01  -0.13    -0.00  -0.00   0.01
                     22                     23                     24
                        a                      a                      a 
 Frequencies --  1056.3168              1078.4731              1115.9035
 Red. masses --     4.5914                 5.7422                 4.2325
 Frc consts  --     0.0000                 0.0000                 0.0000
 IR Inten    --    68.9498                17.0411                50.1574
 Raman Activ --     0.0000                 0.0000                 0.0000
 Depolar     --     0.0000                 0.0000                 0.0000
 Atom AN      X      Y      Z        X      Y      Z        X      Y      Z
   1   6    -0.12  -0.13  -0.18     0.18  -0.29  -0.10     0.07  -0.01   0.06
   2   6     0.18   0.10   0.21    -0.13   0.38   0.06    -0.11   0.04  -0.07
   3   6     0.04  -0.04  -0.15     0.01  -0.13  -0.01     0.11  -0.08   0.13
   4   6    -0.15  -0.03  -0.20    -0.12  -0.25   0.00    -0.25   0.12   0.06
   5   6     0.10   0.02   0.16     0.06   0.12   0.03     0.14  -0.12  -0.10
   6   6     0.04   0.02   0.08    -0.04   0.15  -0.05     0.19  -0.03  -0.06
   7   8    -0.04   0.00   0.17     0.03   0.03  -0.04    -0.16   0.05   0.13
   8   1    -0.09  -0.24  -0.02    -0.18  -0.06  -0.01     0.00   0.08   0.01
   9   1     0.01  -0.07   0.06     0.05   0.29   0.07     0.00   0.05  -0.01
  10   1     0.06   0.08   0.08    -0.27  -0.30  -0.06    -0.06  -0.08  -0.03
  11   1     0.20   0.11  -0.15    -0.20  -0.01   0.18    -0.07  -0.01   0.09
  12   1    -0.22   0.02   0.10     0.11   0.02  -0.01     0.07  -0.04  -0.03
  13   1    -0.39   0.17   0.01     0.04   0.03  -0.01     0.21  -0.11   0.01
  14   1     0.21  -0.07   0.05     0.29  -0.10   0.02     0.00  -0.00  -0.02
  15   1     0.10   0.08  -0.10    -0.02  -0.03  -0.02     0.16   0.17   0.01
  16   1     0.10   0.11  -0.09     0.14   0.06  -0.03    -0.21  -0.07   0.03
  17   1    -0.19  -0.11  -0.01     0.02  -0.03  -0.02     0.02   0.11   0.02
  18   1    -0.03   0.09   0.04     0.02  -0.11  -0.05    -0.08  -0.07  -0.04
  19   1    -0.03   0.05  -0.01     0.01   0.04   0.09    -0.07   0.18   0.10
  20   1    -0.01  -0.05  -0.05    -0.01   0.10   0.13    -0.05  -0.19  -0.10
  21   1     0.11   0.02  -0.30    -0.03  -0.00   0.09     0.20   0.06  -0.59
                     25                     26                     27
                        a                      a                      a 
 Frequencies --  1138.3326              1179.3993              1190.3377
 Red. masses --     8.1724                 8.6871                 7.9589
 Frc consts  --     0.0000                 0.0000                 0.0000
 IR Inten    --    11.5917                53.0461                99.5116
 Raman Activ --     0.0000                 0.0000                 0.0000
 Depolar     --     0.0000                 0.0000                 0.0000
 Atom AN      X      Y      Z        X      Y      Z        X      Y      Z
   1   6    -0.17  -0.25  -0.05     0.08  -0.15  -0.13    -0.04   0.03  -0.21
   2   6     0.41   0.31  -0.17    -0.07   0.22   0.17     0.07  -0.05   0.34
   3   6    -0.39  -0.04   0.27     0.02  -0.20  -0.07    -0.05   0.02  -0.27
   4   6    -0.04   0.01   0.12     0.36   0.53  -0.05    -0.12  -0.05   0.52
   5   6     0.07  -0.05  -0.04    -0.13  -0.16   0.01     0.03  -0.02  -0.16
   6   6     0.06  -0.01  -0.04    -0.13  -0.20   0.01     0.05   0.03  -0.15
   7   8     0.02   0.01  -0.07    -0.05  -0.05   0.07     0.04   0.02  -0.17
   8   1     0.02  -0.03  -0.02    -0.12  -0.11  -0.02    -0.09  -0.24  -0.02
   9   1    -0.05  -0.17  -0.07     0.04   0.15   0.06     0.05   0.02   0.10
  10   1     0.01  -0.05  -0.06    -0.10  -0.09   0.01     0.04   0.12   0.11
  11   1     0.18   0.15  -0.03     0.02   0.09   0.03     0.04  -0.04  -0.13
  12   1     0.33   0.23  -0.08     0.05   0.09   0.03    -0.15   0.13   0.12
  13   1    -0.11  -0.04   0.07     0.13   0.09  -0.04     0.19   0.11  -0.10
  14   1    -0.14   0.01   0.04    -0.19  -0.03   0.12    -0.07  -0.01   0.09
  15   1     0.06   0.06   0.02    -0.02  -0.01   0.02     0.02   0.04   0.07
  16   1    -0.08  -0.03   0.02    -0.14  -0.05   0.02    -0.09  -0.08   0.06
  17   1     0.01   0.05   0.01    -0.08  -0.01   0.02     0.15   0.13   0.02
  18   1    -0.02  -0.04  -0.02     0.06   0.08   0.03    -0.01  -0.18  -0.08
  19   1    -0.02   0.05   0.05     0.05  -0.20  -0.18     0.00   0.05   0.10
  20   1    -0.02  -0.06  -0.01     0.05   0.06  -0.05    -0.04  -0.04   0.05
  21   1    -0.03  -0.01   0.09     0.02  -0.00  -0.08    -0.02  -0.00   0.05
                     28                     29                     30
                        a                      a                      a 
 Frequencies --  1252.5308              1277.9883              1304.8438
 Red. masses --     4.7945                 4.1120                 5.3490
 Frc consts  --     0.0000                 0.0000                 0.0000
 IR Inten    --    17.9716                45.5061                43.9270
 Raman Activ --     0.0000                 0.0000                 0.0000
 Depolar     --     0.0000                 0.0000                 0.0000
 Atom AN      X      Y      Z        X      Y      Z        X      Y      Z
   1   6     0.06  -0.07   0.21     0.10  -0.11   0.09     0.06  -0.08   0.01
   2   6    -0.01   0.08  -0.20    -0.06   0.06   0.04    -0.03   0.06   0.04
   3   6     0.01  -0.03  -0.12     0.02  -0.01  -0.06    -0.07   0.12  -0.04
   4   6     0.15   0.11   0.40    -0.38   0.12  -0.15     0.28  -0.46  -0.04
   5   6    -0.05  -0.03  -0.11     0.11  -0.04   0.05    -0.07   0.11   0.01
   6   6    -0.05  -0.02  -0.11     0.11  -0.05   0.05    -0.06   0.11   0.00
   7   8    -0.02   0.01  -0.07     0.12  -0.04  -0.05    -0.11   0.06   0.07
   8   1     0.07   0.19   0.03    -0.00   0.11   0.01    -0.02   0.04   0.00
   9   1    -0.04  -0.01  -0.09    -0.00   0.05  -0.02     0.01   0.04   0.00
  10   1    -0.06  -0.15  -0.12    -0.08  -0.13  -0.05    -0.05  -0.07  -0.02
  11   1     0.15   0.18   0.05     0.36   0.33  -0.04     0.25   0.24  -0.01
  12   1    -0.26  -0.34  -0.01    -0.26  -0.24   0.05    -0.11  -0.05   0.03
  13   1    -0.45   0.16   0.03     0.29  -0.03  -0.06     0.15  -0.02  -0.03
  14   1     0.17  -0.06   0.03    -0.15   0.03   0.01    -0.49   0.13   0.02
  15   1    -0.03  -0.00   0.07     0.08   0.07  -0.04    -0.09  -0.10  -0.01
  16   1    -0.07  -0.07   0.06    -0.03   0.04  -0.05     0.11   0.01   0.00
  17   1     0.07   0.06   0.01    -0.07   0.00   0.01     0.09  -0.04  -0.02
  18   1     0.03  -0.11  -0.05    -0.07   0.06   0.02     0.05  -0.00   0.00
  19   1     0.04  -0.07   0.01    -0.05   0.08  -0.01     0.02  -0.00   0.06
  20   1    -0.01   0.02   0.05    -0.01  -0.09  -0.08     0.01   0.10   0.08
  21   1     0.02   0.01  -0.08    -0.11  -0.04   0.36     0.11   0.04  -0.33
                     31                     32                     33
                        a                      a                      a 
 Frequencies --  1353.1007              1358.8801              1391.7354
 Red. masses --     5.0855                 4.0073                 3.2820
 Frc consts  --     0.0000                 0.0000                 0.0000
 IR Inten    --    16.2686                 1.4246                 3.3591
 Raman Activ --     0.0000                 0.0000                 0.0000
 Depolar     --     0.0000                 0.0000                 0.0000
 Atom AN      X      Y      Z        X      Y      Z        X      Y      Z
   1   6     0.08  -0.02  -0.07     0.03  -0.09  -0.05    -0.03  -0.06  -0.01
   2   6    -0.34  -0.15   0.02    -0.24  -0.30   0.04     0.01   0.01   0.00
   3   6     0.42  -0.02  -0.02    -0.26   0.14   0.05     0.03   0.00  -0.00
   4   6    -0.18  -0.01   0.08     0.14   0.02   0.02    -0.04  -0.05  -0.01
   5   6     0.04   0.01  -0.02    -0.05  -0.01  -0.01     0.25   0.19  -0.05
   6   6     0.05  -0.04  -0.04    -0.04   0.03   0.01     0.02   0.25   0.17
   7   8     0.04  -0.01  -0.04    -0.03   0.00   0.02     0.00   0.00  -0.00
   8   1    -0.06   0.02  -0.01     0.03   0.15  -0.02     0.03   0.05  -0.01
   9   1     0.03   0.11   0.03     0.04   0.20   0.08    -0.00   0.10   0.02
  10   1    -0.02   0.01   0.06     0.07   0.08   0.09     0.07   0.05   0.00
  11   1     0.15   0.16   0.01     0.38   0.29  -0.10    -0.02  -0.01   0.02
  12   1     0.37   0.25  -0.08     0.22   0.19  -0.04    -0.01   0.01   0.00
  13   1    -0.46   0.04   0.08     0.16  -0.01  -0.02    -0.02  -0.00   0.00
  14   1    -0.32   0.08   0.04     0.50  -0.06  -0.14    -0.05   0.01   0.01
  15   1    -0.00  -0.01   0.02     0.01   0.02   0.01    -0.19  -0.28   0.07
  16   1    -0.01   0.00  -0.00     0.02  -0.02   0.02    -0.30  -0.12   0.18
  17   1    -0.01   0.03   0.01     0.03  -0.01  -0.00    -0.30  -0.20  -0.09
  18   1    -0.04   0.04   0.00     0.03  -0.05  -0.01    -0.04  -0.34  -0.08
  19   1    -0.02   0.05   0.05     0.02  -0.05  -0.03     0.12  -0.21  -0.25
  20   1    -0.01  -0.01   0.05    -0.00  -0.00  -0.03    -0.10  -0.25  -0.21
  21   1    -0.03  -0.01   0.09     0.02   0.01  -0.07     0.00   0.01   0.01
                     34                     35                     36
                        a                      a                      a 
 Frequencies --  1406.4272              1409.2940              1467.8052
 Red. masses --     3.2282                 3.1631                 1.8439
 Frc consts  --     0.0000                 0.0000                 0.0000
 IR Inten    --     3.9853                 2.2529                 0.2213
 Raman Activ --     0.0000                 0.0000                 0.0000
 Depolar     --     0.0000                 0.0000                 0.0000
 Atom AN      X      Y      Z        X      Y      Z        X      Y      Z
   1   6    -0.15  -0.28  -0.07     0.12   0.23   0.07     0.01  -0.03  -0.01
   2   6     0.08   0.08  -0.03    -0.08  -0.05   0.02     0.02  -0.03  -0.04
   3   6     0.07  -0.04  -0.01     0.01   0.04  -0.00     0.00   0.18  -0.16
   4   6    -0.02  -0.01  -0.02     0.02  -0.01  -0.03    -0.01   0.01  -0.02
   5   6    -0.17  -0.13   0.05    -0.16  -0.11   0.04     0.03  -0.03  -0.05
   6   6     0.01   0.13   0.10    -0.01   0.21   0.16    -0.08  -0.01   0.00
   7   8     0.01  -0.00  -0.00    -0.00  -0.00   0.00    -0.00  -0.00   0.00
   8   1     0.16   0.32  -0.04    -0.15  -0.31   0.04    -0.03   0.04  -0.00
   9   1     0.02   0.34   0.13    -0.04  -0.25  -0.15    -0.00   0.01  -0.01
  10   1     0.25   0.22   0.13    -0.19  -0.19  -0.15     0.00   0.01   0.04
  11   1    -0.12  -0.06   0.10     0.07   0.05  -0.07     0.01   0.05   0.14
  12   1    -0.10  -0.01   0.02     0.11   0.02  -0.02    -0.09   0.12   0.02
  13   1    -0.05   0.01   0.01    -0.03  -0.06   0.01    -0.07  -0.57   0.04
  14   1    -0.14   0.02   0.03     0.01  -0.01   0.04     0.07  -0.14   0.55
  15   1     0.14   0.20  -0.08     0.12   0.18  -0.07    -0.04  -0.01   0.20
  16   1     0.22   0.11  -0.15     0.19   0.08  -0.11     0.07   0.02  -0.03
  17   1     0.24   0.15   0.07     0.20   0.12   0.05    -0.16   0.12   0.04
  18   1    -0.03  -0.20  -0.04     0.00  -0.32  -0.07     0.26   0.01   0.01
  19   1     0.06  -0.10  -0.15     0.11  -0.19  -0.24     0.01   0.02   0.15
  20   1    -0.05  -0.13  -0.12    -0.07  -0.20  -0.22     0.05   0.01  -0.18
  21   1    -0.01  -0.01   0.03    -0.00   0.00   0.01     0.00   0.00  -0.00
                     37                     38                     39
                        a                      a                      a 
 Frequencies --  1481.5000              1482.9482              1486.3156
 Red. masses --     1.7472                 1.7031                 1.7191
 Frc consts  --     0.0000                 0.0000                 0.0000
 IR Inten    --     0.6050                 1.3575                 0.0498
 Raman Activ --     0.0000                 0.0000                 0.0000
 Depolar     --     0.0000                 0.0000                 0.0000
 Atom AN      X      Y      Z        X      Y      Z        X      Y      Z
   1   6     0.03  -0.05  -0.02    -0.08   0.01  -0.00    -0.00  -0.03   0.03
   2   6    -0.05   0.16   0.14    -0.07   0.10   0.10    -0.02   0.05   0.05
   3   6    -0.01   0.03  -0.02     0.00   0.00   0.01    -0.01   0.10  -0.09
   4   6     0.01  -0.03   0.02    -0.01  -0.01  -0.02     0.03   0.04  -0.00
   5   6    -0.02   0.01  -0.06     0.06  -0.06   0.04    -0.06   0.07   0.08
   6   6    -0.00  -0.06   0.08    -0.08   0.08  -0.09     0.12   0.02  -0.09
   7   8    -0.00   0.00  -0.00    -0.00   0.00   0.00    -0.00  -0.00   0.00
   8   1    -0.14   0.16  -0.01     0.22  -0.06  -0.01    -0.05  -0.02   0.01
   9   1    -0.03  -0.02  -0.06     0.05   0.06   0.16    -0.04   0.09  -0.09
  10   1     0.00   0.08   0.17     0.01  -0.04  -0.11     0.09   0.03  -0.05
  11   1    -0.01  -0.14  -0.50     0.01  -0.07  -0.34     0.00  -0.03  -0.15
  12   1     0.31  -0.44  -0.05     0.22  -0.29  -0.04     0.09  -0.12  -0.01
  13   1    -0.02  -0.07   0.01     0.01   0.02  -0.00    -0.03  -0.32   0.02
  14   1    -0.02  -0.01   0.08    -0.01   0.01  -0.02     0.04  -0.08   0.31
  15   1     0.02   0.07   0.15    -0.08  -0.14  -0.01     0.06   0.02  -0.31
  16   1     0.12  -0.08   0.09    -0.11   0.17  -0.21    -0.12  -0.07   0.10
  17   1    -0.07  -0.03  -0.02    -0.06   0.23   0.09     0.24  -0.25  -0.08
  18   1     0.01  -0.16  -0.03     0.25   0.17   0.04    -0.38   0.15   0.02
  19   1    -0.18   0.19  -0.16     0.23  -0.22   0.35     0.10  -0.13  -0.07
  20   1     0.17   0.21  -0.14    -0.17  -0.26  -0.01    -0.18  -0.13   0.38
  21   1     0.01   0.01  -0.01    -0.00  -0.01  -0.00    -0.00  -0.01  -0.01
                     40                     41                     42
                        a                      a                      a 
 Frequencies --  1491.9000              1497.2005              1504.2856
 Red. masses --     1.5863                 1.5855                 1.5865
 Frc consts  --     0.0000                 0.0000                 0.0000
 IR Inten    --     0.9866                 1.6462                 0.1844
 Raman Activ --     0.0000                 0.0000                 0.0000
 Depolar     --     0.0000                 0.0000                 0.0000
 Atom AN      X      Y      Z        X      Y      Z        X      Y      Z
   1   6     0.02  -0.02   0.04    -0.12   0.06  -0.02     0.11  -0.07   0.07
   2   6     0.01  -0.01   0.01    -0.04   0.02   0.01     0.03  -0.00   0.01
   3   6    -0.03   0.01   0.01     0.02  -0.01   0.00     0.01  -0.05   0.04
   4   6     0.07  -0.04  -0.03    -0.02   0.02  -0.05    -0.04   0.03  -0.04
   5   6     0.06  -0.11  -0.10    -0.09   0.05  -0.13    -0.05   0.03  -0.07
   6   6     0.12   0.02  -0.03     0.02   0.01  -0.01    -0.06   0.06  -0.07
   7   8    -0.01   0.00   0.01     0.00  -0.00   0.00     0.01  -0.00   0.00
   8   1    -0.11  -0.03   0.01     0.41  -0.16  -0.01    -0.43   0.08   0.02
   9   1    -0.06   0.06  -0.14     0.11   0.04   0.30    -0.16   0.07  -0.40
  10   1     0.08   0.03  -0.04    -0.04  -0.12  -0.22     0.16   0.14   0.09
  11   1     0.00  -0.00   0.00     0.01   0.01  -0.02    -0.02  -0.03   0.01
  12   1    -0.01   0.01   0.00     0.02  -0.02  -0.00    -0.01   0.01   0.01
  13   1     0.04   0.01  -0.01     0.01  -0.01  -0.00     0.03   0.12  -0.01
  14   1     0.01   0.00  -0.02    -0.04   0.00   0.01    -0.03   0.03  -0.11
  15   1    -0.10  -0.04   0.44     0.12   0.28   0.32     0.09   0.18   0.16
  16   1     0.16   0.12  -0.17     0.35  -0.27   0.31     0.20  -0.17   0.20
  17   1    -0.33   0.38   0.13    -0.12  -0.21  -0.09    -0.05  -0.15  -0.06
  18   1    -0.42   0.05  -0.00    -0.05   0.05   0.01     0.22   0.14   0.04
  19   1     0.02  -0.06  -0.20     0.04  -0.05   0.01     0.19  -0.17   0.29
  20   1    -0.11  -0.04   0.34    -0.06  -0.07   0.06    -0.13  -0.22  -0.03
  21   1     0.01   0.00  -0.03     0.00   0.00   0.01    -0.01  -0.00   0.02
                     43                     44                     45
                        a                      a                      a 
 Frequencies --  1517.1170              2954.9187              2967.4021
 Red. masses --     1.5605                 1.7910                 1.9369
 Frc consts  --     0.0000                 0.0000                 0.0000
 IR Inten    --     1.1373                67.3262                81.1107
 Raman Activ --     0.0000                 0.0000                 0.0000
 Depolar     --     0.0000                 0.0000                 0.0000
 Atom AN      X      Y      Z        X      Y      Z        X      Y      Z
   1   6     0.07   0.03  -0.18    -0.02   0.00  -0.00    -0.01   0.00   0.00
   2   6     0.03   0.01  -0.04     0.17  -0.18   0.09     0.03  -0.04   0.04
   3   6    -0.01  -0.00   0.01     0.02   0.06   0.01    -0.07  -0.22  -0.16
   4   6     0.01   0.02  -0.02    -0.00   0.00  -0.00    -0.00  -0.01  -0.01
   5   6    -0.01  -0.00  -0.01     0.00  -0.00  -0.00    -0.01   0.01   0.00
   6   6     0.03   0.06  -0.03    -0.00   0.00  -0.00     0.01  -0.00   0.01
   7   8     0.00  -0.00   0.00     0.00   0.00  -0.00    -0.00   0.00   0.00
   8   1    -0.06   0.35  -0.04    -0.00   0.00   0.02    -0.00   0.00  -0.00
   9   1     0.14  -0.42   0.26     0.04   0.00  -0.02     0.03   0.00  -0.01
  10   1    -0.41  -0.03   0.53     0.02  -0.04   0.02     0.01  -0.02   0.01
  11   1    -0.01  -0.00   0.03    -0.59   0.67  -0.19    -0.11   0.13  -0.03
  12   1    -0.03  -0.01  -0.00    -0.00  -0.03  -0.14    -0.02  -0.00  -0.14
  13   1    -0.00  -0.01   0.00     0.01   0.01   0.03     0.06   0.00   0.42
  14   1     0.00  -0.00   0.00    -0.05  -0.23  -0.06     0.18   0.79   0.18
  15   1     0.01   0.03   0.05    -0.00   0.00  -0.00     0.02  -0.01   0.00
  16   1     0.04  -0.02   0.02     0.00   0.00   0.00     0.00  -0.02  -0.01
  17   1    -0.02  -0.01  -0.00    -0.00   0.00  -0.00    -0.00  -0.00   0.01
  18   1    -0.09   0.06   0.01     0.00  -0.00   0.00     0.00   0.00  -0.01
  19   1     0.12  -0.16   0.01     0.00   0.00   0.00    -0.01  -0.01   0.00
  20   1    -0.12  -0.15   0.12     0.00  -0.00   0.00    -0.02   0.01  -0.01
  21   1    -0.00  -0.00   0.01    -0.00   0.00  -0.00     0.00  -0.00  -0.00
                     46                     47                     48
                        a                      a                      a 
 Frequencies --  2984.2481              2999.3734              3014.9001
 Red. masses --     1.5303                 1.6722                 1.7857
 Frc consts  --     0.0000                 0.0000                 0.0000
 IR Inten    --    61.7385                44.4605                28.7696
 Raman Activ --     0.0000                 0.0000                 0.0000
 Depolar     --     0.0000                 0.0000                 0.0000
 Atom AN      X      Y      Z        X      Y      Z        X      Y      Z
   1   6     0.01  -0.00  -0.00     0.02   0.00  -0.06     0.02  -0.01  -0.02
   2   6    -0.02   0.03   0.01     0.02   0.03   0.23     0.00  -0.00  -0.00
   3   6    -0.01   0.09  -0.19     0.01   0.01   0.05     0.00   0.01   0.00
   4   6    -0.00   0.00  -0.01     0.00  -0.00   0.00     0.00  -0.00   0.00
   5   6     0.00  -0.01   0.01    -0.00  -0.00  -0.00    -0.07   0.07   0.00
   6   6     0.00  -0.00   0.01    -0.00   0.00  -0.00     0.21  -0.11   0.07
   7   8     0.00  -0.00   0.00     0.00  -0.00  -0.00    -0.00   0.00  -0.00
   8   1     0.00   0.00  -0.00     0.01   0.02   0.18     0.01   0.00   0.07
   9   1    -0.02  -0.00   0.01    -0.10  -0.00   0.03    -0.05  -0.00   0.02
  10   1    -0.00   0.01  -0.00     0.02  -0.02   0.00    -0.02   0.03  -0.02
  11   1     0.10  -0.11   0.04     0.10  -0.11   0.07    -0.00   0.00  -0.00
  12   1    -0.02   0.01  -0.11    -0.18   0.02  -0.90     0.00  -0.00   0.01
  13   1     0.13   0.08   0.84    -0.03  -0.01  -0.16    -0.00   0.00  -0.01
  14   1    -0.10  -0.40  -0.13    -0.01  -0.03  -0.00    -0.00  -0.03  -0.01
  15   1    -0.01   0.01  -0.00     0.00  -0.00  -0.00     0.27  -0.18   0.05
  16   1     0.00   0.01   0.01    -0.00   0.01   0.00    -0.01  -0.06  -0.06
  17   1    -0.00   0.01  -0.03     0.00  -0.00   0.00    -0.01   0.01   0.00
  18   1     0.00   0.01  -0.03    -0.00  -0.00   0.01     0.03   0.00  -0.06
  19   1    -0.00  -0.00   0.00     0.00   0.00  -0.00    -0.02  -0.05   0.02
  20   1    -0.00   0.00   0.00     0.01  -0.01   0.00    -0.74   0.45  -0.21
  21   1    -0.00   0.00  -0.00    -0.00   0.00  -0.00     0.00  -0.00  -0.00
                     49                     50                     51
                        a                      a                      a 
 Frequencies --  3019.9034              3021.7378              3026.9305
 Red. masses --     1.8407                 1.9286                 1.6555
 Frc consts  --     0.0000                 0.0000                 0.0000
 IR Inten    --   136.6316                86.2167                81.7201
 Raman Activ --     0.0000                 0.0000                 0.0000
 Depolar     --     0.0000                 0.0000                 0.0000
 Atom AN      X      Y      Z        X      Y      Z        X      Y      Z
   1   6     0.03  -0.01  -0.03    -0.18   0.03   0.21     0.19  -0.03   0.15
   2   6     0.00  -0.00  -0.01    -0.01   0.01   0.05     0.02  -0.01   0.03
   3   6    -0.00  -0.01  -0.00     0.00   0.01   0.01    -0.00  -0.00   0.00
   4   6     0.01  -0.01   0.00     0.00  -0.00   0.00    -0.00   0.00   0.00
   5   6     0.18  -0.18   0.02     0.02  -0.02  -0.00    -0.00   0.01   0.00
   6   6     0.07  -0.05   0.04     0.03  -0.02   0.01     0.01   0.00  -0.00
   7   8    -0.00   0.00  -0.00     0.00  -0.00  -0.00     0.00   0.00   0.00
   8   1     0.01   0.01   0.10    -0.06  -0.04  -0.60    -0.01  -0.06  -0.71
   9   1    -0.11  -0.01   0.04     0.63   0.03  -0.24    -0.55  -0.03   0.26
  10   1    -0.01   0.03  -0.02     0.05  -0.10   0.08    -0.10   0.17  -0.07
  11   1    -0.01   0.01  -0.00     0.04  -0.05   0.02    -0.03   0.04  -0.01
  12   1     0.01  -0.00   0.03    -0.04   0.01  -0.17    -0.02   0.00  -0.08
  13   1    -0.00  -0.00  -0.01    -0.00  -0.00  -0.03    -0.00  -0.00  -0.02
  14   1     0.01   0.03   0.01    -0.01  -0.03  -0.00     0.00   0.01   0.00
  15   1    -0.70   0.48  -0.13    -0.09   0.06  -0.02     0.00  -0.00   0.00
  16   1     0.03   0.15   0.15     0.00   0.03   0.03    -0.00  -0.02  -0.02
  17   1     0.03  -0.00  -0.07     0.00  -0.00  -0.01    -0.00  -0.00   0.00
  18   1     0.01   0.01  -0.06     0.01  -0.00   0.01     0.00   0.00   0.00
  19   1     0.01  -0.01   0.01     0.01  -0.00   0.00    -0.02  -0.02   0.01
  20   1    -0.27   0.16  -0.07    -0.12   0.07  -0.03    -0.00   0.00  -0.00
  21   1     0.00  -0.00  -0.00     0.00   0.00  -0.00    -0.00   0.00  -0.00
                     52                     53                     54
                        a                      a                      a 
 Frequencies --  3032.0472              3043.6619              3046.2990
 Red. masses --     1.7126                 1.6460                 1.5464
 Frc consts  --     0.0000                 0.0000                 0.0000
 IR Inten    --    50.1355                 5.7973                62.2544
 Raman Activ --     0.0000                 0.0000                 0.0000
 Depolar     --     0.0000                 0.0000                 0.0000
 Atom AN      X      Y      Z        X      Y      Z        X      Y      Z
   1   6     0.01  -0.00   0.00    -0.00  -0.00   0.00     0.07  -0.18   0.09
   2   6     0.00  -0.00  -0.00    -0.00   0.00   0.00     0.01  -0.01   0.01
   3   6    -0.00  -0.00  -0.00     0.00   0.00   0.00     0.00  -0.00   0.00
   4   6    -0.00  -0.01  -0.01    -0.00   0.00   0.00    -0.00  -0.00   0.00
   5   6    -0.05  -0.14  -0.21     0.01   0.08  -0.13    -0.00  -0.01   0.04
   6   6    -0.00  -0.01   0.02    -0.03  -0.05   0.18    -0.00   0.00   0.03
   7   8     0.00   0.00   0.00     0.00   0.00   0.00     0.00  -0.00   0.00
   8   1     0.00  -0.00  -0.01    -0.00  -0.00  -0.00     0.02  -0.02   0.10
   9   1    -0.02  -0.00   0.01     0.02   0.00  -0.01     0.25  -0.02  -0.08
  10   1    -0.01   0.01  -0.01    -0.01   0.01  -0.00    -0.50   0.68  -0.33
  11   1    -0.00   0.00  -0.00     0.00  -0.00   0.00    -0.02   0.02  -0.01
  12   1     0.00  -0.00   0.00    -0.00   0.00  -0.01    -0.01  -0.00  -0.04
  13   1     0.00  -0.00   0.00    -0.00   0.00  -0.01    -0.00  -0.00  -0.01
  14   1     0.00   0.01   0.00    -0.00  -0.01  -0.00     0.00   0.01   0.00
  15   1     0.18  -0.15   0.00    -0.05   0.04  -0.03     0.01  -0.01   0.01
  16   1    -0.00   0.72   0.57    -0.00  -0.11  -0.12     0.00   0.00   0.01
  17   1    -0.00  -0.08   0.15     0.00  -0.21   0.61    -0.00   0.05  -0.14
  18   1     0.00   0.02  -0.06     0.02   0.18  -0.67     0.00   0.03  -0.12
  19   1     0.01   0.01  -0.00     0.04   0.02   0.02    -0.03  -0.02   0.01
  20   1    -0.01   0.00   0.00     0.04  -0.03   0.04     0.04  -0.03   0.02
  21   1    -0.00  -0.00  -0.00     0.00  -0.00  -0.00    -0.00   0.00  -0.00
                     55                     56                     57
                        a                      a                      a 
 Frequencies --  3048.0959              3073.6234              3510.9896
 Red. masses --     1.6365                 1.6564                 1.8692
 Frc consts  --     0.0000                 0.0000                 0.0000
 IR Inten    --    74.3386                28.1671                41.7870
 Raman Activ --     0.0000                 0.0000                 0.0000
 Depolar     --     0.0000                 0.0000                 0.0000
 Atom AN      X      Y      Z        X      Y      Z        X      Y      Z
   1   6    -0.02   0.04  -0.01    -0.01   0.01  -0.01     0.00  -0.00   0.00
   2   6    -0.00   0.00  -0.00    -0.00   0.00  -0.00     0.00   0.00   0.00
   3   6     0.00  -0.00   0.01     0.00   0.00   0.00     0.00   0.00  -0.00
   4   6    -0.00  -0.00   0.01     0.01   0.00  -0.00    -0.00   0.00  -0.00
   5   6    -0.02  -0.06   0.15     0.00  -0.00  -0.00     0.00   0.00  -0.00
   6   6    -0.03  -0.04   0.16     0.19   0.15  -0.03    -0.00   0.00  -0.00
   7   8    -0.00   0.00   0.00    -0.00  -0.00   0.00    -0.20   0.12  -0.06
   8   1    -0.01   0.00  -0.04    -0.00   0.00   0.01    -0.00  -0.00   0.00
   9   1    -0.04   0.00   0.01     0.01   0.00  -0.01     0.00  -0.00  -0.00
  10   1     0.11  -0.15   0.07     0.03  -0.03   0.01    -0.00   0.00  -0.00
  11   1     0.00  -0.00   0.00     0.00  -0.00   0.00     0.00  -0.00  -0.00
  12   1     0.00  -0.00   0.00     0.00   0.00   0.00    -0.00   0.00  -0.01
  13   1    -0.01  -0.00  -0.04    -0.00   0.00  -0.01    -0.00   0.00   0.00
  14   1     0.00   0.01   0.00    -0.00  -0.01  -0.00    -0.00  -0.00  -0.00
  15   1     0.08  -0.06   0.04    -0.01   0.01  -0.00     0.00  -0.00  -0.00
  16   1    -0.00   0.05   0.07     0.00   0.01   0.01    -0.00   0.00  -0.00
  17   1    -0.00   0.23  -0.64     0.00  -0.01   0.01    -0.00  -0.00   0.00
  18   1     0.02   0.17  -0.62     0.03   0.03  -0.06    -0.00  -0.00   0.00
  19   1     0.03   0.01   0.02    -0.77  -0.55   0.16    -0.00   0.00  -0.00
  20   1     0.05  -0.04   0.04     0.07  -0.01   0.01     0.00  -0.00  -0.00
  21   1     0.00  -0.00   0.00     0.00   0.00   0.00     0.79  -0.50   0.26
