      -----------------------------------------------------------      
     |                   =====================                   |     
     |                           x T B                           |     
     |                   =====================                   |     
     |                         S. Grimme                         |     
     |          Mulliken Center for Theoretical Chemistry        |     
     |                    University of Bonn                     |     
      -----------------------------------------------------------      

   * xtb version 6.7.1 (edcfbbe) compiled by 'albert@albert-system' on 2024-07-22

   xtb is free software: you can redistribute it and/or modify it under
   the terms of the GNU Lesser General Public License as published by
   the Free Software Foundation, either version 3 of the License, or
   (at your option) any later version.
   
   xtb is distributed in the hope that it will be useful,
   but WITHOUT ANY WARRANTY; without even the implied warranty of
   MERCHANTABILITY or FITNESS FOR A PARTICULAR PURPOSE.  See the
   GNU Lesser General Public License for more details.
   
   Cite this work as:
   * C. Bannwarth, E. Caldeweyher, S. Ehlert, A. Hansen, P. Pracht,
     J. Seibert, S. Spicher, S. Grimme, WIREs Comput. Mol. Sci., 2020, 11,
     e01493. DOI: 10.1002/wcms.1493
   
   for GFN2-xTB:
   * C. Bannwarth, S. Ehlert and S. Grimme., J. Chem. Theory Comput., 2019,
     15, 1652-1671. DOI: 10.1021/acs.jctc.8b01176
   for GFN1-xTB:
   * S. Grimme, C. Bannwarth, P. Shushkov, J. Chem. Theory Comput., 2017,
     13, 1989-2009. DOI: 10.1021/acs.jctc.7b00118
   for GFN0-xTB:
   * P. Pracht, E. Caldeweyher, S. Ehlert, S. Grimme, ChemRxiv, 2019, preprint.
     DOI: 10.26434/chemrxiv.8326202.v1
   for GFN-FF:
   * S. Spicher and S. Grimme, Angew. Chem. Int. Ed., 2020, 59, 15665-15673.
     DOI: 10.1002/anie.202004239
   
   for ALPB and GBSA implicit solvation:
   * S. Ehlert, M. Stahn, S. Spicher, S. Grimme, J. Chem. Theory Comput.,
     2021, 17, 4250-4261. DOI: 10.1021/acs.jctc.1c00471
   
   for ddCOSMO and CPCM-X implicit solvation:
   * M. Stahn, S. Ehlert, S. Grimme, J. Phys. Chem. A,
     2023, XX, XXXX-XXXX. DOI: 10.1021/acs.jpca.3c04382
   
   for DFT-D4:
   * E. Caldeweyher, C. Bannwarth and S. Grimme, J. Chem. Phys., 2017,
     147, 034112. DOI: 10.1063/1.4993215
   * E. Caldeweyher, S. Ehlert, A. Hansen, H. Neugebauer, S. Spicher,
     C. Bannwarth and S. Grimme, J. Chem. Phys., 2019, 150, 154122.
     DOI: 10.1063/1.5090222
   * E. Caldeweyher, J.-M. Mewes, S. Ehlert and S. Grimme, Phys. Chem. Chem. Phys.
     2020, 22, 8499-8512. DOI: 10.1039/D0CP00502A
   
   for sTDA-xTB:
   * S. Grimme and C. Bannwarth, J. Chem. Phys., 2016, 145, 054103.
     DOI: 10.1063/1.4959605
   
   in the mass-spec context:
   * V. Asgeirsson, C. Bauer and S. Grimme, Chem. Sci., 2017, 8, 4879.
     DOI: 10.1039/c7sc00601b
   * J. Koopman and S. Grimme, ACS Omega 2019, 4, 12, 15120-15133.
     DOI: 10.1021/acsomega.9b02011
   
   for metadynamics refer to:
   * S. Grimme, J. Chem. Theory Comput., 2019, 155, 2847-2862
     DOI: 10.1021/acs.jctc.9b00143
   
   for SPH calculations refer to:
   * S. Spicher and S. Grimme, J. Chem. Theory Comput., 2021, 17, 1701-1714
     DOI: 10.1021/acs.jctc.0c01306
   
   for ONIOM refer to:
   * C. Plett, A. Katbashev, S. Ehlert, S. Grimme, M. Bursch,
     Phys. Chem. Chem. Phys., 2023, 25, 17860-17868. DOI: 10.1039/D3CP02178E
   
   for DIPRO refer to:
   * J. Kohn, N. Gildemeister, S. Grimme, D. Fazzi, A. Hansen,
     J. Chem. Phys., 2023, just accepted.
   
   for PTB refer to:
   * S. Grimme, M. Mueller, A. Hansen, J. Chem. Phys., 2023, 158, 124111.
     DOI: 10.1063/5.0137838
   
   with help from (in alphabetical order)
   P. Atkinson, C. Bannwarth, F. Bohle, G. Brandenburg, E. Caldeweyher
   M. Checinski, S. Dohm, S. Ehlert, S. Ehrlich, I. Gerasimov, C. Hölzer
   A. Katbashev, J. Kohn, J. Koopman, C. Lavigne, S. Lehtola, F. März, M. Müller,
   F. Musil, H. Neugebauer, J. Pisarek, C. Plett, P. Pracht, F. Pultar,
   J. Seibert, P. Shushkov, S. Spicher, M. Stahn, M. Steiner, T. Strunk,
   J. Stückrath, T. Rose, and J. Unsleber
   
 * started run on 2025/04/11 at 11:50:56.106     
   ID    Z sym.   atoms
    1    6 C      1, 3, 4, 6-11, 13
    2    7 N      2
    3    8 O      5, 12
    4    1 H      14-26

           -------------------------------------------------
          |                Calculation Setup                |
           -------------------------------------------------

          program call               : /srv/scratch/z5358697/.xtb/bin/xtb solv.coord --gfn2 --sp --chrg 0 --norestart --parallel 1 --alpb water reference -I xtb_sp-xcontrol-inp
          hostname                   : k112
          coordinate file            : solv.coord
          omp threads                :                     1


           -------------------------------------------------
          |                 G F N 2 - x T B                 |
           -------------------------------------------------

        Reference                      10.1021/acs.jctc.8b01176
      * Hamiltonian:
        H0-scaling (s, p, d)           1.850000    2.230000    2.230000
        zeta-weighting                 0.500000
      * Dispersion:
        s8                             2.700000
        a1                             0.520000
        a2                             5.000000
        s9                             5.000000
      * Repulsion:
        kExp                           1.500000    1.000000
        rExp                           1.000000
      * Coulomb:
        alpha                          2.000000
        third order                    shell-resolved
        anisotropic                    true
        a3                             3.000000
        a5                             4.000000
        cn-shift                       1.200000
        cn-exp                         4.000000
        max-rad                        5.000000

      * Solvation model:               ALPB
        Solvent                        water
        Parameter file                 internal GFN2-xTB/ALPB
        Dielectric constant                8.0200E+01
        Reference state                gsolv=reference [X=1]
        Free energy shift                  2.8945E-03 Eh       1.8164E+00 kcal/mol
        Temperature                        2.9815E+02 K
        Density                            1.0000E+00 kg/L
        Solvent mass                       1.8000E+01 g/mol
        Interaction kernel             P16
        Born radius scaling (c1)           1.4744E+00
        Born radii integrator          GBOBC
        Born offset                        0.0000E+00 a0       0.0000E+00 AA
        H-bond correction              true
        Ion screening                  false
        Surface tension                    1.0000E-05 Eh       1.5569E+01 dyn/cm
        Grid points                               974 per atom

          ...................................................
          :                      SETUP                      :
          :.................................................:
          :  # basis functions                  65          :
          :  # atomic orbitals                  65          :
          :  # shells                           39          :
          :  # electrons                        70          :
          :  max. iterations                   250          :
          :  Hamiltonian                  GFN2-xTB          :
          :  restarted?                      false          :
          :  GBSA solvation                   true          :
          :  PC potential                    false          :
          :  electronic temp.          300.0000000     K    :
          :  accuracy                    1.0000000          :
          :  -> integral cutoff          0.2500000E+02      :
          :  -> integral neglect         0.1000000E-07      :
          :  -> SCF convergence          0.1000000E-05 Eh   :
          :  -> wf. convergence          0.1000000E-03 e    :
          :  Broyden damping             0.4000000          :
          :  net charge                          0          :
          :  unpaired electrons                  0          :
          ...................................................

 iter      E             dE          RMSdq      gap      omega  full diag
   1    -39.5740277 -0.395740E+02  0.440E+00    3.88       0.0  T
   2    -39.6478600 -0.738323E-01  0.249E+00    3.93       1.0  T
   3    -39.6475792  0.280771E-03  0.106E+00    3.93       1.0  T
   4    -39.6507277 -0.314848E-02  0.379E-01    3.95       1.0  T
   5    -39.6525888 -0.186112E-02  0.855E-02    3.96       1.0  T
   6    -39.6526049 -0.161628E-04  0.442E-02    3.95       1.0  T
   7    -39.6526097 -0.475512E-05  0.166E-02    3.95       1.2  T
   8    -39.6526117 -0.204319E-05  0.484E-03    3.95       4.0  T
   9    -39.6526119 -0.122138E-06  0.253E-03    3.95       7.7  T
  10    -39.6526119 -0.304840E-07  0.108E-03    3.95      18.2  T
  11    -39.6526119 -0.467725E-08  0.426E-04    3.95      46.1  T
  12    -39.6526119 -0.105568E-08  0.177E-04    3.95     110.5  T

   *** convergence criteria satisfied after 12 iterations ***

         #    Occupation            Energy/Eh            Energy/eV
      -------------------------------------------------------------
         1        2.0000           -0.7211025             -19.6222
       ...           ...                  ...                  ...
        29        2.0000           -0.4558897             -12.4054
        30        2.0000           -0.4494479             -12.2301
        31        2.0000           -0.4258783             -11.5887
        32        2.0000           -0.4127468             -11.2314
        33        2.0000           -0.3953338             -10.7576
        34        2.0000           -0.3900560             -10.6140
        35        2.0000           -0.3832027             -10.4275 (HOMO)
        36                         -0.2379585              -6.4752 (LUMO)
        37                         -0.2303856              -6.2691
        38                         -0.1933738              -5.2620
        39                         -0.0959641              -2.6113
        40                          0.0044317               0.1206
       ...                                ...                  ...
        65                          0.6609138              17.9844
      -------------------------------------------------------------
                  HL-Gap            0.1452442 Eh            3.9523 eV
             Fermi-level           -0.3105806 Eh           -8.4513 eV

 SCC (total)                   0 d,  0 h,  0 min,  0.040 sec
 SCC setup                      ...        0 min,  0.002 sec (  4.245%)
 Dispersion                     ...        0 min,  0.000 sec (  0.536%)
 classical contributions        ...        0 min,  0.000 sec (  0.094%)
 integral evaluation            ...        0 min,  0.003 sec (  7.557%)
 iterations                     ...        0 min,  0.025 sec ( 63.254%)
 molecular gradient             ...        0 min,  0.010 sec ( 23.695%)
 printout                       ...        0 min,  0.000 sec (  0.566%)

         :::::::::::::::::::::::::::::::::::::::::::::::::::::
         ::                     SUMMARY                     ::
         :::::::::::::::::::::::::::::::::::::::::::::::::::::
         :: total energy             -39.110475364493 Eh    ::
         :: total w/o Gsasa/hb       -39.111393271053 Eh    ::
         :: gradient norm              0.000080202263 Eh/a0 ::
         :: HOMO-LUMO gap              3.952294685118 eV    ::
         ::.................................................::
         :: SCC energy               -39.652607728763 Eh    ::
         :: -> isotropic ES            0.076377788804 Eh    ::
         :: -> anisotropic ES          0.001938616299 Eh    ::
         :: -> anisotropic XC          0.014550791675 Eh    ::
         :: -> dispersion             -0.022279747641 Eh    ::
         :: -> Gsolv                  -0.015657549444 Eh    ::
         ::    -> Gelec               -0.016575456004 Eh    ::
         ::    -> Gsasa                0.000861676267 Eh    ::
         ::    -> Ghb                 -0.002838318867 Eh    ::
         ::    -> Gshift               0.002894549160 Eh    ::
         :: repulsion energy           0.542132364270 Eh    ::
         :: add. restraining           0.000000000000 Eh    ::
         :: total charge               0.000000000000 e     ::
         :::::::::::::::::::::::::::::::::::::::::::::::::::::

           -------------------------------------------------
          |                Property Printout                |
           -------------------------------------------------

    * Orbital Energies and Occupations

         #    Occupation            Energy/Eh            Energy/eV
      -------------------------------------------------------------
         1        2.0000           -0.7211025             -19.6222
       ...           ...                  ...                  ...
        23        2.0000           -0.4851111             -13.2005
        24        2.0000           -0.4813722             -13.0988
        25        2.0000           -0.4790484             -13.0356
        26        2.0000           -0.4774493             -12.9921
        27        2.0000           -0.4667677             -12.7014
        28        2.0000           -0.4646500             -12.6438
        29        2.0000           -0.4558897             -12.4054
        30        2.0000           -0.4494479             -12.2301
        31        2.0000           -0.4258783             -11.5887
        32        2.0000           -0.4127468             -11.2314
        33        2.0000           -0.3953338             -10.7576
        34        2.0000           -0.3900560             -10.6140
        35        2.0000           -0.3832027             -10.4275 (HOMO)
        36                         -0.2379585              -6.4752 (LUMO)
        37                         -0.2303856              -6.2691
        38                         -0.1933738              -5.2620
        39                         -0.0959641              -2.6113
        40                          0.0044317               0.1206
        41                          0.0232721               0.6333
        42                          0.0773615               2.1051
        43                          0.1126771               3.0661
        44                          0.1213997               3.3035
        45                          0.1318763               3.5885
        46                          0.1482564               4.0343
       ...                                ...                  ...
        65                          0.6609138              17.9844
      -------------------------------------------------------------
                  HL-Gap            0.1452442 Eh            3.9523 eV
             Fermi-level           -0.3105806 Eh           -8.4513 eV

     #   Z          covCN         q      C6AA      α(0)
     1   6 C        3.705    -0.064    21.879     6.687
     2   7 N        2.732    -0.073    22.658     7.070
     3   6 C        3.698    -0.072    22.050     6.716
     4   6 C        2.770     0.262    22.577     7.782
     5   8 O        0.859    -0.553    25.001     6.704
     6   6 C        2.972    -0.030    28.732     8.792
     7   6 C        2.923    -0.036    28.899     8.816
     8   6 C        2.916    -0.071    29.759     8.946
     9   6 C        2.864     0.145    24.833     8.168
    10   6 C        2.919    -0.060    29.498     8.906
    11   6 C        2.923    -0.027    28.674     8.781
    12   8 O        1.705    -0.296    18.915     5.872
    13   6 C        3.642     0.017    20.637     6.532
    14   1 H        0.925     0.075     2.032     2.229
    15   1 H        0.925     0.073     2.054     2.241
    16   1 H        0.924     0.068     2.111     2.272
    17   1 H        0.925     0.072     2.061     2.245
    18   1 H        0.924     0.081     1.968     2.194
    19   1 H        0.924     0.076     2.025     2.225
    20   1 H        0.926     0.053     2.286     2.364
    21   1 H        0.926     0.059     2.213     2.326
    22   1 H        0.926     0.057     2.235     2.338
    23   1 H        0.926     0.043     2.412     2.428
    24   1 H        0.924     0.057     2.233     2.337
    25   1 H        0.925     0.083     1.944     2.181
    26   1 H        0.924     0.059     2.206     2.323

 Mol. C6AA /au·bohr⁶  :       6980.109657
 Mol. C8AA /au·bohr⁸  :     161464.762497
 Mol. α(0) /au        :        129.475305


Wiberg/Mayer (AO) data.
largest (>0.10) Wiberg bond orders for each atom

 ---------------------------------------------------------------------------
     #   Z sym  total        # sym  WBO       # sym  WBO       # sym  WBO
 ---------------------------------------------------------------------------
     1   6 C    3.959 --     2 N    0.993    14 H    0.977    15 H    0.974
                            16 H    0.973
     2   7 N    3.537 --     4 C    1.306     3 C    0.995     1 C    0.993
                             5 O    0.196
     3   6 C    3.956 --     2 N    0.995    17 H    0.975    18 H    0.973
                            19 H    0.972
     4   6 C    3.946 --     5 O    1.567     2 N    1.306     6 C    0.977
     5   8 O    1.896 --     4 C    1.567     2 N    0.196
     6   6 C    3.986 --     7 C    1.402    11 C    1.380     4 C    0.977
     7   6 C    3.990 --     8 C    1.445     6 C    1.402    20 H    0.968
                            10 C    0.106
     8   6 C    3.986 --     7 C    1.445     9 C    1.369    21 H    0.963
     9   6 C    3.936 --     8 C    1.369    10 C    1.344    12 O    1.070
    10   6 C    3.987 --    11 C    1.478     9 C    1.344    22 H    0.967
                             7 C    0.106
    11   6 C    3.991 --    10 C    1.478     6 C    1.380    23 H    0.969
    12   8 O    2.219 --     9 C    1.070    13 C    0.968
    13   6 C    3.927 --    25 H    0.977    24 H    0.976    26 H    0.976
                            12 O    0.968
    14   1 H    0.994 --     1 C    0.977
    15   1 H    0.994 --     1 C    0.974
    16   1 H    0.995 --     1 C    0.973
    17   1 H    0.995 --     3 C    0.975
    18   1 H    0.993 --     3 C    0.973
    19   1 H    0.994 --     3 C    0.972
    20   1 H    0.997 --     7 C    0.968
    21   1 H    0.996 --     8 C    0.963
    22   1 H    0.996 --    10 C    0.967
    23   1 H    0.998 --    11 C    0.969
    24   1 H    0.997 --    13 C    0.976
    25   1 H    0.993 --    13 C    0.977
    26   1 H    0.996 --    13 C    0.976
 ---------------------------------------------------------------------------

Topologies differ in total number of bonds
Writing topology from bond orders to xtbtopo.mol

molecular dipole:
                 x           y           z       tot (Debye)
 q only:       -0.470      -1.076      -2.361
   full:       -0.510      -1.051      -2.441       6.878
molecular quadrupole (traceless):
                xx          xy          yy          xz          yz          zz
 q only:       10.883     -10.479      -6.781      -6.714      -3.460      -4.103
  q+dip:        9.851     -11.382      -7.192      -7.294      -6.392      -2.660
   full:        9.151     -11.626      -5.688      -6.742      -5.198      -3.463


           -------------------------------------------------
          | TOTAL ENERGY              -39.110475364493 Eh   |
          | GRADIENT NORM               0.000080202263 Eh/α |
          | HOMO-LUMO GAP               3.952294685118 eV   |
           -------------------------------------------------

------------------------------------------------------------------------
 * finished run on 2025/04/11 at 11:50:56.186     
------------------------------------------------------------------------
 total:
 * wall-time:     0 d,  0 h,  0 min,  0.080 sec
 *  cpu-time:     0 d,  0 h,  0 min,  0.040 sec
 * ratio c/w:     0.495 speedup
 SCF:
 * wall-time:     0 d,  0 h,  0 min,  0.041 sec
 *  cpu-time:     0 d,  0 h,  0 min,  0.029 sec
 * ratio c/w:     0.720 speedup

