 Entering Gaussian System
 *********************************************
 Gaussian 98:
 frequency output generated by the xtb code
 *********************************************
                         Standard orientation:
 --------------------------------------------------------------------
  Center     Atomic     Atomic              Coordinates (Angstroms)
  Number     Number      Type              X           Y           Z
 --------------------------------------------------------------------
    1          6             0       -3.014170    0.713456    0.165134
    2          6             0       -1.805060   -0.200448    0.343587
    3          6             0       -1.951202   -1.472054   -0.488360
    4          6             0       -0.532446    0.547328   -0.047877
    5          8             0        0.601200   -0.252150    0.313536
    6          6             0        1.806794    0.223822    0.030864
    7          8             0        1.985226    1.298490   -0.506935
    8          6             0        2.891429   -0.726135    0.440574
    9          1             0       -3.922002    0.187440    0.445793
   10          1             0       -3.101912    1.025346   -0.872799
   11          1             0       -2.922622    1.601352    0.785253
   12          1             0       -1.712402   -0.477143    1.398291
   13          1             0       -2.825240   -2.032578   -0.168649
   14          1             0       -1.072091   -2.100269   -0.371681
   15          1             0       -2.064611   -1.223204   -1.541216
   16          1             0       -0.497731    0.740396   -1.125637
   17          1             0       -0.457272    1.509406    0.470369
   18          1             0        2.532807   -1.379248    1.228710
   19          1             0        3.765208   -0.165836    0.758138
   20          1             0        3.165100   -1.327166   -0.424147
 --------------------------------------------------------------------
     1 basis functions        1 primitive gaussians
     1 alpha electrons        1 beta electrons
 
 Harmonic frequencies (cm**-1), IR intensities (km*mol⁻¹),
 Raman scattering activities (A**4/amu), Raman depolarization ratios,
 reduced masses (AMU), force constants (mDyne/A) and normal coordinates:
                      1                      2                      3
                        a                      a                      a 
 Frequencies --    15.5797                46.6030                61.2551
 Red. masses --    12.3334                 1.9103                 8.2718
 Frc consts  --     0.0000                 0.0000                 0.0000
 IR Inten    --     3.7829                 2.2724                 1.4804
 Raman Activ --     0.0000                 0.0000                 0.0000
 Depolar     --     0.0000                 0.0000                 0.0000
 Atom AN      X      Y      Z        X      Y      Z        X      Y      Z
   1   6     0.06   0.09  -0.01    -0.01  -0.02  -0.09    -0.06  -0.03  -0.40
   2   6     0.02   0.04   0.00    -0.01   0.01  -0.00    -0.04   0.09   0.08
   3   6    -0.20  -0.12   0.29     0.06  -0.02   0.03     0.25  -0.07   0.27
   4   6     0.02  -0.14  -0.35    -0.00   0.02   0.04    -0.02   0.13   0.25
   5   8     0.01  -0.18  -0.43    -0.01  -0.00  -0.01    -0.04   0.04   0.09
   6   6     0.03   0.04   0.04    -0.00   0.02   0.02    -0.03  -0.02  -0.02
   7   8     0.05   0.27   0.49     0.00   0.09   0.16    -0.02   0.08   0.18
   8   6     0.03   0.01  -0.03    -0.02  -0.06  -0.12    -0.05  -0.20  -0.38
   9   1     0.02   0.06   0.07    -0.00  -0.01  -0.03    -0.03  -0.00  -0.14
  10   1    -0.02  -0.03  -0.02     0.01  -0.02  -0.03     0.04  -0.08  -0.14
  11   1     0.07   0.06  -0.06    -0.02   0.00  -0.04    -0.07   0.04  -0.17
  12   1     0.05   0.07   0.01    -0.02   0.01   0.00    -0.08   0.08   0.04
  13   1    -0.05  -0.00   0.16     0.01  -0.00  -0.01     0.05  -0.01   0.03
  14   1    -0.06  -0.04   0.08     0.02  -0.00   0.03     0.07  -0.00   0.19
  15   1    -0.11  -0.10   0.07     0.04  -0.02   0.00     0.16  -0.08   0.05
  16   1    -0.04  -0.11  -0.12    -0.00   0.02   0.01    -0.00   0.10   0.08
  17   1     0.05  -0.01  -0.16    -0.00  -0.00   0.02    -0.00   0.01   0.12
  18   1    -0.00  -0.04  -0.05     0.16   0.32   0.32    -0.04  -0.18  -0.23
  19   1    -0.00  -0.00   0.04     0.20  -0.05  -0.55    -0.03  -0.10   0.01
  20   1     0.03   0.05  -0.03    -0.43  -0.39   0.09     0.03   0.09  -0.20
                      4                      5                      6
                        a                      a                      a 
 Frequencies --   119.6112               192.7519               203.2628
 Red. masses --    10.4688                 9.0522                 3.2185
 Frc consts  --     0.0000                 0.0000                 0.0000
 IR Inten    --     4.7389                 4.9288                 0.9580
 Raman Activ --     0.0000                 0.0000                 0.0000
 Depolar     --     0.0000                 0.0000                 0.0000
 Atom AN      X      Y      Z        X      Y      Z        X      Y      Z
   1   6    -0.20  -0.26   0.20     0.04  -0.00  -0.03    -0.02  -0.06   0.07
   2   6     0.07   0.05  -0.01     0.01  -0.06  -0.11     0.01  -0.04  -0.08
   3   6     0.25  -0.00   0.04    -0.20  -0.10  -0.01    -0.10  -0.00  -0.12
   4   6    -0.09   0.24  -0.19     0.01  -0.10  -0.22     0.01  -0.04  -0.08
   5   8    -0.11   0.29  -0.19     0.06   0.30   0.52     0.04   0.14   0.27
   6   6     0.01   0.03  -0.03     0.04   0.10   0.15     0.03   0.05   0.08
   7   8     0.39  -0.01   0.01     0.08   0.05   0.04     0.03   0.02   0.01
   8   6    -0.28  -0.26   0.11     0.00  -0.12  -0.24     0.02  -0.04  -0.10
   9   1     0.00  -0.14   0.13    -0.01  -0.04  -0.15     0.05   0.12   0.46
  10   1    -0.15  -0.10   0.06     0.09   0.13   0.02    -0.29  -0.36  -0.06
  11   1    -0.08  -0.06   0.04    -0.04  -0.08   0.11     0.21   0.19  -0.30
  12   1     0.09   0.02  -0.01     0.03  -0.00  -0.03     0.02  -0.02  -0.03
  13   1     0.13  -0.07   0.07     0.05  -0.10   0.18    -0.18   0.14  -0.19
  14   1     0.13   0.07  -0.04     0.02   0.04  -0.18    -0.15  -0.13   0.13
  15   1    -0.01  -0.02   0.02    -0.29  -0.04   0.02     0.20   0.00  -0.06
  16   1    -0.05   0.05  -0.06     0.07  -0.20  -0.09     0.05  -0.07  -0.03
  17   1    -0.03   0.08  -0.07    -0.08   0.06  -0.21    -0.03   0.02  -0.08
  18   1    -0.17  -0.05   0.01     0.02  -0.09  -0.11     0.02  -0.04  -0.05
  19   1    -0.05  -0.15   0.08     0.04  -0.10  -0.07     0.02  -0.04  -0.03
  20   1    -0.09  -0.09   0.04    -0.07   0.03  -0.14    -0.03   0.02  -0.06
                      7                      8                      9
                        a                      a                      a 
 Frequencies --   231.2618               258.2089               305.7868
 Red. masses --     3.1612                 9.9328                 8.6359
 Frc consts  --     0.0000                 0.0000                 0.0000
 IR Inten    --     2.3565                 8.2859                 1.5241
 Raman Activ --     0.0000                 0.0000                 0.0000
 Depolar     --     0.0000                 0.0000                 0.0000
 Atom AN      X      Y      Z        X      Y      Z        X      Y      Z
   1   6    -0.01   0.03  -0.06    -0.12  -0.10  -0.17    -0.46  -0.19   0.01
   2   6     0.03   0.10  -0.02    -0.16  -0.13   0.06    -0.08   0.27  -0.03
   3   6     0.15   0.11  -0.05    -0.42  -0.06   0.00    -0.06   0.24   0.04
   4   6     0.06   0.03   0.04    -0.09   0.01   0.32     0.06   0.06  -0.13
   5   8    -0.05  -0.16   0.03     0.16   0.10  -0.13     0.01  -0.11   0.05
   6   6    -0.06  -0.09   0.03     0.18   0.08  -0.08     0.07  -0.17   0.08
   7   8    -0.23  -0.08   0.04     0.45   0.07  -0.06     0.08  -0.19   0.10
   8   6     0.06   0.04  -0.01     0.11   0.03   0.04     0.38   0.09  -0.07
   9   1     0.03   0.08   0.24    -0.04   0.01   0.00    -0.05  -0.22  -0.05
  10   1    -0.16  -0.22  -0.07    -0.04  -0.13  -0.08    -0.16  -0.02   0.02
  11   1     0.11   0.15  -0.23    -0.03   0.03  -0.14    -0.29  -0.07   0.05
  12   1     0.01   0.03  -0.00    -0.10  -0.05   0.02    -0.00   0.10  -0.00
  13   1     0.30  -0.21   0.25    -0.07  -0.03   0.11    -0.05   0.10  -0.02
  14   1     0.24   0.25  -0.34    -0.10  -0.02  -0.14    -0.04   0.04   0.05
  15   1    -0.38   0.06   0.04    -0.28   0.01   0.02     0.03   0.06   0.00
  16   1     0.03   0.03   0.02    -0.06   0.15   0.12     0.04  -0.05  -0.05
  17   1     0.05  -0.00   0.03    -0.06  -0.06   0.22     0.06   0.04  -0.09
  18   1     0.05   0.00   0.01     0.01   0.03   0.02     0.23  -0.01   0.00
  19   1     0.00   0.05  -0.02     0.03   0.01   0.02     0.07   0.13  -0.08
  20   1     0.03   0.01  -0.00     0.04  -0.01   0.03     0.13   0.06  -0.04
                     10                     11                     12
                        a                      a                      a 
 Frequencies --   394.4419               423.7468               475.6623
 Red. masses --     8.8544                 7.6549                 9.9044
 Frc consts  --     0.0000                 0.0000                 0.0000
 IR Inten    --     4.1858                 2.3873                 4.1644
 Raman Activ --     0.0000                 0.0000                 0.0000
 Depolar     --     0.0000                 0.0000                 0.0000
 Atom AN      X      Y      Z        X      Y      Z        X      Y      Z
   1   6     0.11  -0.34  -0.13     0.08  -0.00   0.08    -0.33   0.16   0.08
   2   6     0.34   0.09   0.10     0.17   0.04  -0.44    -0.18   0.14  -0.27
   3   6    -0.23   0.23   0.04    -0.13  -0.29   0.05     0.04  -0.10   0.01
   4   6     0.27   0.08   0.02     0.11   0.38   0.02     0.20  -0.18   0.08
   5   8     0.12  -0.06   0.01    -0.14   0.07   0.00     0.36  -0.17   0.07
   6   6     0.02   0.06  -0.04    -0.07  -0.11   0.05     0.21   0.15  -0.08
   7   8    -0.32   0.12  -0.05    -0.10  -0.12   0.07    -0.17   0.23  -0.11
   8   6    -0.18  -0.11   0.07     0.08   0.03  -0.01    -0.07  -0.14   0.07
   9   1     0.08  -0.21  -0.08     0.06  -0.04   0.07    -0.04  -0.01   0.08
  10   1     0.06  -0.15  -0.06    -0.08   0.09   0.06    -0.22   0.12   0.06
  11   1    -0.14  -0.06  -0.07     0.07  -0.06   0.10    -0.07  -0.00   0.09
  12   1     0.13   0.03   0.03     0.10   0.01  -0.13    -0.10   0.04  -0.07
  13   1    -0.13   0.19   0.05    -0.06   0.04   0.18     0.05  -0.06   0.04
  14   1    -0.16  -0.08  -0.08    -0.08  -0.13   0.08     0.06   0.05   0.10
  15   1    -0.11   0.13   0.03    -0.09  -0.27  -0.02     0.03  -0.15  -0.03
  16   1     0.08   0.03   0.01     0.14   0.33   0.05     0.13   0.00   0.03
  17   1     0.10   0.02   0.01    -0.03   0.00   0.22     0.06  -0.08   0.07
  18   1    -0.17   0.01   0.00     0.09  -0.01   0.01    -0.19   0.01  -0.01
  19   1    -0.02  -0.12   0.07    -0.00   0.07  -0.03     0.04  -0.18   0.10
  20   1    -0.07  -0.07   0.04     0.04   0.03  -0.01    -0.05  -0.09   0.05
                     13                     14                     15
                        a                      a                      a 
 Frequencies --   581.2841               626.5580               874.3169
 Red. masses --     9.6747                11.8214                 8.3975
 Frc consts  --     0.0000                 0.0000                 0.0000
 IR Inten    --    16.8588                11.1897                 0.4435
 Raman Activ --     0.0000                 0.0000                 0.0000
 Depolar     --     0.0000                 0.0000                 0.0000
 Atom AN      X      Y      Z        X      Y      Z        X      Y      Z
   1   6    -0.00  -0.01   0.00    -0.01   0.02  -0.00     0.27  -0.18  -0.06
   2   6     0.02   0.02  -0.01    -0.08  -0.09   0.11    -0.04   0.02  -0.27
   3   6     0.00   0.02   0.01    -0.01  -0.05  -0.02     0.01   0.41   0.20
   4   6     0.03  -0.04   0.00    -0.20   0.19  -0.08    -0.31  -0.33  -0.08
   5   8    -0.02  -0.19  -0.22     0.08   0.30  -0.21    -0.10  -0.01   0.07
   6   6    -0.02   0.33   0.64     0.29  -0.01   0.16    -0.00   0.06  -0.03
   7   8     0.07  -0.15  -0.27    -0.45  -0.00  -0.04     0.03   0.09  -0.04
   8   6    -0.08   0.09   0.02     0.40  -0.33   0.14     0.13  -0.09   0.02
   9   1     0.01  -0.01   0.00    -0.04   0.07  -0.03     0.15  -0.13   0.07
  10   1    -0.01  -0.00   0.00     0.06  -0.01  -0.01    -0.08   0.04   0.03
  11   1    -0.01  -0.00   0.00     0.03   0.02  -0.02     0.11  -0.11   0.07
  12   1     0.00   0.01  -0.00    -0.01  -0.03   0.03    -0.01   0.05  -0.06
  13   1     0.00   0.01   0.01    -0.00  -0.04  -0.05     0.04   0.09   0.09
  14   1     0.00   0.01   0.00     0.01  -0.00  -0.02     0.05   0.19   0.15
  15   1     0.00   0.00   0.00     0.01   0.03   0.00     0.03   0.02   0.03
  16   1    -0.01   0.06   0.01    -0.13   0.04  -0.02    -0.01   0.14   0.02
  17   1     0.04  -0.05   0.07    -0.09   0.06  -0.03    -0.25  -0.19   0.20
  18   1     0.09  -0.15  -0.09     0.07  -0.10   0.02     0.01  -0.01   0.01
  19   1     0.12  -0.15  -0.08     0.17  -0.19   0.07     0.04  -0.05   0.03
  20   1    -0.30   0.22  -0.23     0.05  -0.09   0.02     0.04  -0.05   0.02
                     16                     17                     18
                        a                      a                      a 
 Frequencies --   909.4625               941.1479               952.1314
 Red. masses --     4.0558                 8.9751                 4.4503
 Frc consts  --     0.0000                 0.0000                 0.0000
 IR Inten    --     6.1415                21.0862                12.7943
 Raman Activ --     0.0000                 0.0000                 0.0000
 Depolar     --     0.0000                 0.0000                 0.0000
 Atom AN      X      Y      Z        X      Y      Z        X      Y      Z
   1   6    -0.14   0.05   0.08     0.01  -0.06   0.14    -0.12  -0.03  -0.18
   2   6    -0.05  -0.10   0.11    -0.04   0.06   0.01     0.09  -0.07  -0.00
   3   6    -0.07  -0.07   0.12    -0.02   0.01  -0.12     0.19  -0.10   0.14
   4   6     0.07  -0.03  -0.40    -0.18   0.25  -0.05    -0.09   0.10  -0.01
   5   8     0.06  -0.03   0.12    -0.26  -0.44   0.21    -0.16  -0.21   0.10
   6   6     0.03  -0.02  -0.01    -0.00   0.14  -0.06    -0.02   0.08  -0.03
   7   8     0.01  -0.02   0.02     0.14   0.19  -0.11     0.07   0.11  -0.06
   8   6    -0.04   0.06  -0.03     0.25   0.01  -0.02     0.15  -0.01  -0.01
   9   1    -0.14   0.13  -0.09    -0.10   0.09  -0.10    -0.05   0.11   0.10
  10   1     0.17  -0.08  -0.03     0.25  -0.16  -0.03    -0.22   0.25   0.05
  11   1    -0.05   0.08  -0.07    -0.04   0.08  -0.10     0.26  -0.16   0.13
  12   1     0.27   0.13   0.05     0.16  -0.14  -0.05    -0.07   0.24   0.08
  13   1     0.00  -0.19  -0.23     0.02   0.03   0.10    -0.09   0.14  -0.04
  14   1     0.05   0.06  -0.07     0.00   0.04   0.11    -0.11  -0.30  -0.31
  15   1     0.09   0.25   0.08    -0.01  -0.21  -0.08    -0.07   0.34   0.13
  16   1     0.26   0.40  -0.02     0.01  -0.02  -0.02    -0.00  -0.01  -0.01
  17   1    -0.13  -0.20   0.28     0.07   0.07  -0.05     0.02   0.03  -0.02
  18   1    -0.05   0.03  -0.01    -0.17   0.07  -0.05    -0.08   0.03  -0.02
  19   1    -0.00  -0.00   0.01     0.16  -0.22   0.12     0.09  -0.12   0.06
  20   1    -0.01  -0.00   0.00     0.01  -0.11   0.05     0.01  -0.06   0.03
                     19                     20                     21
                        a                      a                      a 
 Frequencies --   974.0927               991.6597               998.9333
 Red. masses --     7.2320                 5.1857                 6.2672
 Frc consts  --     0.0000                 0.0000                 0.0000
 IR Inten    --     1.6246                10.2454                22.8671
 Raman Activ --     0.0000                 0.0000                 0.0000
 Depolar     --     0.0000                 0.0000                 0.0000
 Atom AN      X      Y      Z        X      Y      Z        X      Y      Z
   1   6    -0.07  -0.31  -0.03    -0.28  -0.00   0.06    -0.13   0.19   0.03
   2   6    -0.21  -0.14  -0.09     0.10  -0.10  -0.04     0.20  -0.01   0.00
   3   6    -0.01   0.26   0.10     0.21   0.16  -0.00     0.21   0.03  -0.06
   4   6     0.03   0.21  -0.04     0.06  -0.17  -0.01    -0.23  -0.15  -0.03
   5   8     0.25  -0.00  -0.01     0.01   0.06  -0.04     0.10   0.07   0.05
   6   6     0.15  -0.15  -0.02    -0.14   0.14   0.10     0.08  -0.21  -0.26
   7   8    -0.06  -0.18   0.11     0.00   0.13  -0.09    -0.03  -0.08   0.12
   8   6    -0.14   0.23  -0.03    -0.05  -0.29   0.01    -0.00   0.23   0.20
   9   1    -0.23   0.30  -0.01    -0.25   0.25  -0.09    -0.01  -0.02  -0.04
  10   1     0.13   0.07   0.03     0.16  -0.02  -0.01    -0.00  -0.04  -0.02
  11   1     0.39  -0.16   0.04     0.07   0.04  -0.06    -0.17   0.11  -0.05
  12   1    -0.06  -0.10  -0.04     0.13  -0.15  -0.05     0.11  -0.06  -0.02
  13   1     0.01   0.08   0.10    -0.02   0.30   0.24    -0.03   0.24   0.18
  14   1     0.01   0.10   0.11    -0.08  -0.15  -0.02    -0.08  -0.20  -0.08
  15   1    -0.01  -0.03   0.00    -0.10  -0.09  -0.01    -0.09  -0.07  -0.02
  16   1     0.02  -0.02  -0.02     0.06   0.02   0.01    -0.10   0.04   0.01
  17   1     0.06   0.08  -0.07    -0.01  -0.07   0.05    -0.15  -0.08   0.08
  18   1    -0.14   0.05  -0.06     0.25  -0.08   0.11    -0.03  -0.10  -0.10
  19   1     0.02  -0.03  -0.01    -0.17   0.22  -0.07     0.18  -0.19  -0.03
  20   1    -0.14   0.08  -0.06     0.20  -0.05   0.05    -0.32   0.21  -0.17
                     22                     23                     24
                        a                      a                      a 
 Frequencies --  1006.9485              1046.8866              1151.9646
 Red. masses --     6.7855                11.5400                 5.8381
 Frc consts  --     0.0000                 0.0000                 0.0000
 IR Inten    --    15.0525                84.3038                 2.8651
 Raman Activ --     0.0000                 0.0000                 0.0000
 Depolar     --     0.0000                 0.0000                 0.0000
 Atom AN      X      Y      Z        X      Y      Z        X      Y      Z
   1   6    -0.03   0.12   0.01     0.11   0.02  -0.01     0.12  -0.12  -0.01
   2   6     0.11  -0.01   0.00    -0.00   0.06  -0.01    -0.21   0.20   0.32
   3   6     0.11   0.01  -0.03     0.00  -0.06  -0.02     0.09  -0.06  -0.25
   4   6    -0.19  -0.05  -0.02    -0.48   0.31  -0.10     0.05  -0.08  -0.32
   5   8     0.12   0.02  -0.06     0.51  -0.33   0.13     0.01   0.07   0.13
   6   6     0.16   0.02   0.34     0.01   0.03   0.01    -0.01  -0.00  -0.00
   7   8    -0.04  -0.26   0.06    -0.01   0.07  -0.04     0.00   0.01   0.00
   8   6    -0.05   0.16  -0.39    -0.21  -0.13   0.04    -0.00  -0.01  -0.01
   9   1     0.03  -0.05  -0.01     0.08  -0.08   0.02     0.04  -0.03   0.04
  10   1    -0.03  -0.02  -0.01    -0.03  -0.01  -0.00    -0.00   0.02   0.02
  11   1    -0.12   0.06  -0.02    -0.04   0.00   0.01     0.09  -0.07   0.04
  12   1     0.03  -0.03  -0.01     0.05   0.08   0.01    -0.29   0.13   0.12
  13   1    -0.02   0.13   0.10    -0.01  -0.01  -0.03     0.00   0.12   0.13
  14   1    -0.04  -0.10  -0.04    -0.01  -0.03  -0.03    -0.06  -0.12   0.01
  15   1    -0.05  -0.04  -0.01    -0.00   0.02   0.00    -0.09  -0.23  -0.10
  16   1    -0.10   0.02   0.00    -0.08   0.00  -0.03    -0.22   0.30  -0.03
  17   1    -0.11  -0.04   0.04    -0.06   0.06  -0.02     0.34  -0.17   0.17
  18   1    -0.38   0.33  -0.02     0.20  -0.09   0.07     0.00   0.00   0.00
  19   1    -0.10   0.05   0.13    -0.17   0.21  -0.10    -0.01   0.01  -0.00
  20   1     0.20  -0.24   0.18     0.04   0.07  -0.03     0.01  -0.00   0.00
                     25                     26                     27
                        a                      a                      a 
 Frequencies --  1160.5323              1185.0389              1203.4907
 Red. masses --     7.3916                 6.0074                11.5343
 Frc consts  --     0.0000                 0.0000                 0.0000
 IR Inten    --     5.3668                 8.1876               619.3544
 Raman Activ --     0.0000                 0.0000                 0.0000
 Depolar     --     0.0000                 0.0000                 0.0000
 Atom AN      X      Y      Z        X      Y      Z        X      Y      Z
   1   6     0.12  -0.22   0.25    -0.19  -0.10  -0.15    -0.00   0.03  -0.02
   2   6    -0.20   0.45  -0.23     0.40   0.26   0.13     0.01  -0.03   0.01
   3   6     0.09  -0.18  -0.04    -0.20  -0.07  -0.18     0.00   0.00   0.01
   4   6    -0.10  -0.17   0.20    -0.14  -0.16   0.12     0.05  -0.00  -0.01
   5   8    -0.02   0.08  -0.10     0.00   0.04   0.01    -0.42  -0.13   0.09
   6   6     0.11  -0.02   0.01     0.01   0.00   0.00     0.77  -0.03  -0.00
   7   8    -0.03  -0.04   0.02    -0.01  -0.02   0.01    -0.05   0.10  -0.05
   8   6    -0.03   0.02  -0.00     0.00   0.00  -0.01    -0.24  -0.01   0.02
   9   1    -0.08   0.06  -0.09    -0.13   0.17   0.04     0.01  -0.01   0.01
  10   1     0.32  -0.18  -0.00    -0.05   0.18   0.02    -0.03   0.01  -0.00
  11   1     0.06   0.04  -0.08     0.23  -0.10   0.04    -0.01   0.00   0.01
  12   1    -0.00   0.39   0.01     0.40   0.22   0.05     0.02  -0.06  -0.01
  13   1    -0.05   0.04  -0.05     0.05  -0.18  -0.06    -0.00   0.01   0.00
  14   1    -0.04  -0.15  -0.16     0.06   0.15   0.11     0.00   0.00  -0.00
  15   1    -0.04   0.08   0.02     0.08  -0.17  -0.09     0.00   0.01   0.01
  16   1     0.14  -0.12   0.04    -0.24  -0.04   0.03    -0.11   0.03  -0.01
  17   1    -0.08   0.01  -0.04     0.01  -0.05   0.04    -0.03   0.01  -0.00
  18   1    -0.01   0.00  -0.00    -0.01   0.00  -0.00     0.05  -0.03   0.02
  19   1    -0.01   0.02  -0.02    -0.00  -0.00   0.00    -0.13   0.21  -0.15
  20   1    -0.01   0.02  -0.01     0.00  -0.00   0.00     0.02   0.11  -0.05
                     28                     29                     30
                        a                      a                      a 
 Frequencies --  1225.6658              1282.8078              1325.0559
 Red. masses --     3.6110                 3.7933                 4.8486
 Frc consts  --     0.0000                 0.0000                 0.0000
 IR Inten    --     9.2070                 8.3186                 9.2643
 Raman Activ --     0.0000                 0.0000                 0.0000
 Depolar     --     0.0000                 0.0000                 0.0000
 Atom AN      X      Y      Z        X      Y      Z        X      Y      Z
   1   6    -0.03   0.01   0.11     0.08   0.06  -0.16    -0.00  -0.09  -0.10
   2   6     0.06   0.04  -0.36    -0.36   0.02   0.09    -0.04   0.52   0.15
   3   6    -0.02  -0.04   0.24     0.08  -0.02   0.01     0.03  -0.11   0.11
   4   6    -0.03  -0.06   0.00    -0.18  -0.07   0.09     0.07  -0.04  -0.07
   5   8     0.03   0.07   0.11    -0.01   0.12  -0.05     0.04  -0.04  -0.00
   6   6    -0.05   0.00   0.00     0.04  -0.02   0.01    -0.03   0.01  -0.01
   7   8     0.00  -0.01   0.01    -0.01  -0.02   0.01     0.00  -0.01   0.00
   8   6     0.01  -0.01  -0.01     0.01  -0.00  -0.00    -0.01   0.01  -0.00
   9   1    -0.04   0.01  -0.08     0.14  -0.13   0.07     0.02   0.01   0.08
  10   1     0.10  -0.08  -0.01    -0.10   0.04  -0.02     0.03   0.06   0.00
  11   1    -0.03   0.06  -0.06     0.04  -0.08   0.08     0.13  -0.08   0.04
  12   1     0.03  -0.19  -0.15     0.59  -0.17  -0.08    -0.03  -0.63  -0.16
  13   1    -0.03  -0.07  -0.14    -0.02   0.06   0.02    -0.02  -0.09  -0.15
  14   1     0.03   0.02  -0.10    -0.03  -0.07  -0.02    -0.03  -0.12  -0.16
  15   1     0.05   0.23   0.10    -0.04   0.02   0.02    -0.01   0.00   0.03
  16   1    -0.57   0.07  -0.00     0.31  -0.02   0.03    -0.02   0.03  -0.01
  17   1     0.49  -0.08   0.04     0.44  -0.02  -0.03    -0.33  -0.01   0.03
  18   1    -0.00   0.01   0.00    -0.02   0.01  -0.00     0.02  -0.01  -0.00
  19   1     0.00  -0.01   0.01    -0.01   0.02  -0.00     0.01  -0.02   0.01
  20   1     0.01  -0.01   0.00    -0.02   0.01  -0.01     0.01  -0.01   0.01
                     31                     32                     33
                        a                      a                      a 
 Frequencies --  1343.5857              1359.1276              1402.1305
 Red. masses --     4.8939                 3.5741                 3.3640
 Frc consts  --     0.0000                 0.0000                 0.0000
 IR Inten    --     0.4487                71.9390                 5.2483
 Raman Activ --     0.0000                 0.0000                 0.0000
 Depolar     --     0.0000                 0.0000                 0.0000
 Atom AN      X      Y      Z        X      Y      Z        X      Y      Z
   1   6    -0.09  -0.02   0.03    -0.02  -0.00   0.01     0.21  -0.18   0.00
   2   6     0.39   0.08   0.02     0.09   0.01   0.00    -0.02   0.11   0.03
   3   6    -0.09  -0.03   0.03    -0.02  -0.01   0.00    -0.02  -0.31  -0.16
   4   6    -0.37  -0.07  -0.03    -0.12  -0.02  -0.00     0.00  -0.02  -0.01
   5   8    -0.05   0.08  -0.04    -0.02   0.03  -0.01     0.01   0.00  -0.00
   6   6     0.06  -0.02   0.01     0.09  -0.01   0.00    -0.01   0.00  -0.01
   7   8    -0.00   0.01  -0.01    -0.01  -0.03   0.01     0.00  -0.01   0.00
   8   6     0.08  -0.07   0.02    -0.33   0.29  -0.07     0.00  -0.01  -0.01
   9   1    -0.05   0.04  -0.01    -0.01   0.01  -0.00    -0.16   0.27  -0.04
  10   1     0.05   0.03   0.01     0.01   0.01   0.00    -0.25   0.18   0.08
  11   1     0.03   0.03  -0.04     0.01   0.01  -0.01    -0.28   0.08  -0.10
  12   1    -0.41  -0.18  -0.00    -0.09  -0.03   0.00     0.02  -0.11  -0.03
  13   1     0.02  -0.08  -0.03     0.00  -0.01   0.00    -0.12   0.29   0.23
  14   1     0.03   0.05  -0.01     0.01   0.02   0.00     0.18   0.27   0.23
  15   1     0.07   0.02   0.01     0.02   0.01   0.00    -0.01   0.39   0.09
  16   1     0.48  -0.01   0.01     0.14   0.00   0.00     0.01   0.02   0.00
  17   1     0.35  -0.06   0.02     0.12  -0.01  -0.00    -0.02   0.00  -0.01
  18   1    -0.12   0.07   0.01     0.38  -0.27  -0.08     0.01   0.02   0.02
  19   1    -0.07   0.13  -0.01     0.25  -0.40  -0.05    -0.01  -0.01   0.02
  20   1    -0.10   0.07  -0.08     0.36  -0.22   0.30    -0.01   0.01  -0.01
                     34                     35                     36
                        a                      a                      a 
 Frequencies --  1415.8836              1422.0967              1429.1383
 Red. masses --     3.0984                 1.7040                 1.6353
 Frc consts  --     0.0000                 0.0000                 0.0000
 IR Inten    --     2.7719                21.7319                 6.3500
 Raman Activ --     0.0000                 0.0000                 0.0000
 Depolar     --     0.0000                 0.0000                 0.0000
 Atom AN      X      Y      Z        X      Y      Z        X      Y      Z
   1   6     0.28  -0.19   0.04     0.01  -0.01   0.00     0.00  -0.00   0.00
   2   6    -0.04  -0.01  -0.02     0.01  -0.01  -0.00     0.01  -0.00  -0.00
   3   6     0.03   0.22   0.14     0.00   0.03   0.02     0.00   0.01   0.01
   4   6    -0.02   0.00   0.01    -0.01  -0.00   0.00    -0.01  -0.00   0.00
   5   8    -0.00   0.01  -0.01    -0.02  -0.00   0.00    -0.03  -0.00   0.01
   6   6     0.01  -0.01   0.01     0.04   0.00  -0.05     0.08  -0.00  -0.02
   7   8    -0.00   0.00  -0.00    -0.01  -0.03   0.03    -0.00   0.01  -0.01
   8   6     0.00   0.01   0.02    -0.13  -0.10  -0.17     0.07   0.12  -0.17
   9   1    -0.21   0.33  -0.11    -0.01   0.02  -0.01    -0.00   0.01  -0.00
  10   1    -0.35   0.19   0.10    -0.02   0.01   0.01    -0.01   0.00   0.00
  11   1    -0.36   0.12  -0.13    -0.02   0.01  -0.01    -0.01   0.00  -0.00
  12   1     0.04   0.02  -0.00    -0.00   0.01   0.00    -0.01   0.00   0.00
  13   1     0.07  -0.21  -0.21     0.01  -0.03  -0.03     0.01  -0.01  -0.01
  14   1    -0.14  -0.21  -0.19    -0.02  -0.03  -0.02    -0.01  -0.01  -0.01
  15   1    -0.02  -0.31  -0.06    -0.01  -0.04  -0.01    -0.00  -0.01  -0.00
  16   1     0.03  -0.04  -0.00     0.02   0.00   0.00     0.01   0.00   0.00
  17   1     0.06  -0.02   0.03     0.02   0.00  -0.00     0.01   0.00  -0.00
  18   1    -0.03  -0.03  -0.04     0.29   0.44   0.49     0.35  -0.17  -0.02
  19   1     0.01   0.02  -0.05     0.03  -0.31   0.36    -0.27   0.11   0.57
  20   1     0.01  -0.02   0.02     0.10   0.34  -0.23    -0.50  -0.36   0.08
                     37                     38                     39
                        a                      a                      a 
 Frequencies --  1464.3121              1488.8667              1490.0578
 Red. masses --     1.8336                 1.5805                 1.5902
 Frc consts  --     0.0000                 0.0000                 0.0000
 IR Inten    --     0.0896                 1.0893                 0.0058
 Raman Activ --     0.0000                 0.0000                 0.0000
 Depolar     --     0.0000                 0.0000                 0.0000
 Atom AN      X      Y      Z        X      Y      Z        X      Y      Z
   1   6     0.02   0.01   0.01    -0.01  -0.02  -0.15     0.10   0.12  -0.04
   2   6     0.02  -0.01  -0.00     0.04  -0.05  -0.02    -0.01   0.04   0.01
   3   6    -0.04   0.02   0.01     0.08  -0.04   0.12    -0.13  -0.04   0.05
   4   6    -0.04  -0.23   0.11    -0.02  -0.02   0.02     0.01   0.03  -0.02
   5   8     0.04  -0.04   0.02     0.00  -0.00   0.00    -0.01   0.01  -0.00
   6   6    -0.01  -0.01   0.01    -0.00  -0.00   0.00     0.00   0.00  -0.00
   7   8     0.01   0.01  -0.01     0.00   0.00  -0.00    -0.00  -0.00   0.00
   8   6     0.00  -0.00   0.00     0.00   0.00   0.00     0.00   0.00  -0.00
   9   1    -0.03   0.03  -0.06     0.03   0.20   0.47    -0.12   0.19  -0.10
  10   1    -0.06  -0.05  -0.01     0.30   0.01  -0.03    -0.18  -0.44  -0.12
  11   1    -0.00  -0.02   0.03    -0.32  -0.11   0.19    -0.07  -0.25   0.38
  12   1    -0.01  -0.00   0.00    -0.03   0.05   0.01    -0.01   0.00   0.00
  13   1     0.04  -0.03   0.07    -0.26   0.22  -0.33    -0.02   0.12   0.20
  14   1    -0.01  -0.02  -0.08     0.19   0.23  -0.09     0.11   0.10  -0.37
  15   1     0.13  -0.02  -0.02    -0.24  -0.22  -0.02     0.42  -0.08  -0.06
  16   1     0.00   0.65   0.12     0.00   0.07   0.01     0.00  -0.12  -0.02
  17   1    -0.03   0.31  -0.58     0.03   0.03  -0.07    -0.00  -0.06   0.11
  18   1    -0.01  -0.00  -0.00    -0.00  -0.00  -0.00     0.00   0.00   0.00
  19   1    -0.00   0.00  -0.00    -0.00   0.00   0.00    -0.00  -0.00   0.01
  20   1    -0.00  -0.00  -0.00    -0.00  -0.00   0.00    -0.00  -0.00  -0.00
                     40                     41                     42
                        a                      a                      a 
 Frequencies --  1496.6109              1500.9636              1692.6427
 Red. masses --     1.5518                 1.5688                13.3224
 Frc consts  --     0.0000                 0.0000                 0.0000
 IR Inten    --     3.1852                 3.1008               675.7108
 Raman Activ --     0.0000                 0.0000                 0.0000
 Depolar     --     0.0000                 0.0000                 0.0000
 Atom AN      X      Y      Z        X      Y      Z        X      Y      Z
   1   6    -0.03  -0.09  -0.11    -0.06  -0.09   0.07     0.00   0.00   0.00
   2   6    -0.06  -0.01  -0.05    -0.07  -0.05   0.04     0.00  -0.01   0.00
   3   6    -0.12   0.06  -0.07    -0.09  -0.06   0.12     0.00   0.00   0.00
   4   6     0.02   0.01  -0.00     0.02   0.02  -0.01    -0.00   0.01  -0.01
   5   8     0.00   0.00   0.00     0.00  -0.00   0.00    -0.03  -0.04   0.02
   6   6    -0.00   0.00  -0.00    -0.01   0.00  -0.00     0.07   0.71  -0.35
   7   8    -0.00  -0.00   0.00     0.00  -0.00   0.00    -0.08  -0.52   0.26
   8   6    -0.00  -0.00  -0.00     0.00  -0.00  -0.00     0.04  -0.07   0.04
   9   1     0.09   0.10   0.47     0.10  -0.22  -0.06     0.00  -0.00   0.00
  10   1     0.34   0.22   0.03     0.04   0.35   0.11    -0.00   0.00   0.00
  11   1    -0.27   0.03  -0.02     0.15   0.23  -0.35    -0.00   0.00  -0.00
  12   1     0.01   0.00  -0.01     0.04   0.02   0.02    -0.01  -0.00   0.00
  13   1     0.25  -0.18   0.37    -0.17   0.27   0.04     0.00  -0.00  -0.00
  14   1    -0.14  -0.20  -0.07     0.21   0.22  -0.45    -0.00  -0.00  -0.00
  15   1     0.38   0.16  -0.01     0.32  -0.23  -0.08    -0.00  -0.00  -0.00
  16   1    -0.03  -0.03  -0.01     0.00  -0.01  -0.01     0.02   0.02  -0.00
  17   1     0.01  -0.01   0.02    -0.02  -0.00   0.01     0.02   0.01  -0.01
  18   1     0.00   0.00   0.00     0.00   0.00   0.00     0.03  -0.04  -0.01
  19   1     0.00  -0.00   0.00    -0.00  -0.00   0.00    -0.01   0.04  -0.03
  20   1     0.00   0.00  -0.00    -0.00  -0.00  -0.00     0.01  -0.01   0.01
                     43                     44                     45
                        a                      a                      a 
 Frequencies --  2921.0949              2942.2203              2947.8801
 Red. masses --     1.9672                 1.4941                 1.7327
 Frc consts  --     0.0000                 0.0000                 0.0000
 IR Inten    --    36.5461                27.3081                83.2996
 Raman Activ --     0.0000                 0.0000                 0.0000
 Depolar     --     0.0000                 0.0000                 0.0000
 Atom AN      X      Y      Z        X      Y      Z        X      Y      Z
   1   6     0.00   0.00   0.00     0.00   0.01   0.00    -0.00  -0.00   0.01
   2   6     0.00  -0.01   0.03    -0.01   0.02  -0.10    -0.02   0.06  -0.23
   3   6    -0.00   0.00   0.00    -0.00  -0.00   0.00    -0.00  -0.01   0.01
   4   6    -0.01  -0.13  -0.26    -0.02  -0.17   0.06     0.01   0.06  -0.08
   5   8     0.00  -0.00  -0.01     0.01  -0.01   0.00    -0.00   0.00  -0.00
   6   6    -0.00   0.00   0.00    -0.00  -0.00   0.00     0.00   0.00  -0.00
   7   8     0.00  -0.00  -0.00     0.00   0.00  -0.00    -0.00  -0.00   0.00
   8   6     0.00   0.00   0.00     0.00   0.00   0.00    -0.00  -0.00   0.00
   9   1    -0.00  -0.00   0.00    -0.00   0.00   0.00     0.02   0.01  -0.00
  10   1     0.00  -0.00   0.00    -0.00   0.00  -0.00    -0.00   0.02  -0.05
  11   1    -0.00  -0.00  -0.00    -0.00  -0.02  -0.01    -0.00  -0.02  -0.01
  12   1    -0.01   0.04  -0.15     0.03  -0.10   0.37     0.07  -0.22   0.84
  13   1     0.00   0.00  -0.00     0.01   0.00  -0.00     0.02   0.01  -0.01
  14   1     0.01  -0.00   0.00    -0.01   0.00   0.00    -0.02   0.01  -0.00
  15   1     0.00   0.00  -0.00    -0.00   0.00  -0.01    -0.00   0.01  -0.04
  16   1    -0.02  -0.13   0.66     0.01   0.07  -0.58    -0.01  -0.05   0.37
  17   1     0.04   0.59   0.30     0.04   0.58   0.35    -0.01  -0.16  -0.10
  18   1    -0.00  -0.00  -0.00    -0.00  -0.00   0.00     0.00   0.00  -0.00
  19   1    -0.00  -0.00  -0.00    -0.00   0.00   0.00     0.00   0.00   0.00
  20   1     0.00  -0.00  -0.00     0.00  -0.00  -0.00    -0.00   0.00   0.00
                     46                     47                     48
                        a                      a                      a 
 Frequencies --  3026.1556              3029.6571              3035.1388
 Red. masses --     1.7646                 1.8385                 1.9233
 Frc consts  --     0.0000                 0.0000                 0.0000
 IR Inten    --     0.1682                29.4294                99.8607
 Raman Activ --     0.0000                 0.0000                 0.0000
 Depolar     --     0.0000                 0.0000                 0.0000
 Atom AN      X      Y      Z        X      Y      Z        X      Y      Z
   1   6     0.00   0.00  -0.00    -0.01  -0.02  -0.09    -0.02  -0.04  -0.27
   2   6    -0.00   0.00  -0.00     0.00  -0.00   0.01    -0.00   0.00  -0.03
   3   6     0.00   0.00  -0.01     0.03  -0.09   0.24     0.03   0.03  -0.08
   4   6     0.00   0.00   0.00    -0.00   0.00   0.00     0.00   0.00  -0.00
   5   8     0.00   0.00  -0.00     0.00   0.00  -0.00    -0.00   0.00   0.00
   6   6    -0.00   0.01   0.00    -0.00   0.00   0.00     0.00  -0.00  -0.00
   7   8    -0.00  -0.00   0.00    -0.00   0.00  -0.00     0.00  -0.00   0.00
   8   6    -0.05   0.15   0.21    -0.00   0.00   0.00     0.00  -0.00  -0.00
   9   1    -0.00  -0.00   0.00     0.01   0.01  -0.02    -0.04  -0.03  -0.03
  10   1     0.00  -0.00   0.00     0.01  -0.07   0.24     0.05  -0.23   0.72
  11   1    -0.00  -0.00  -0.00     0.02   0.13   0.08     0.05   0.41   0.25
  12   1     0.00  -0.00   0.00    -0.00   0.01  -0.03     0.00  -0.02   0.06
  13   1    -0.01  -0.00   0.00     0.09   0.04   0.00    -0.10  -0.06   0.03
  14   1     0.00  -0.00  -0.00    -0.12   0.07   0.02    -0.04   0.04  -0.02
  15   1     0.00  -0.00   0.02    -0.09   0.22  -0.87     0.03  -0.07   0.28
  16   1    -0.00  -0.00   0.00     0.00   0.00  -0.01    -0.00  -0.00   0.01
  17   1     0.00  -0.00  -0.00    -0.00  -0.00  -0.00     0.00   0.00  -0.00
  18   1     0.00   0.03   0.01     0.00   0.00  -0.00    -0.00  -0.00   0.00
  19   1    -0.07  -0.02   0.00    -0.00   0.00   0.00    -0.00  -0.00  -0.00
  20   1     0.24  -0.53  -0.77     0.00  -0.01  -0.01    -0.00   0.00   0.00
                     49                     50                     51
                        a                      a                      a 
 Frequencies --  3040.2477              3043.7436              3049.4350
 Red. masses --     1.7473                 1.9149                 1.3795
 Frc consts  --     0.0000                 0.0000                 0.0000
 IR Inten    --    51.4723                44.4522                33.9227
 Raman Activ --     0.0000                 0.0000                 0.0000
 Depolar     --     0.0000                 0.0000                 0.0000
 Atom AN      X      Y      Z        X      Y      Z        X      Y      Z
   1   6    -0.08  -0.23   0.03    -0.01   0.05   0.04     0.04   0.01  -0.01
   2   6     0.00  -0.01   0.00     0.01   0.00   0.00     0.00  -0.01   0.00
   3   6     0.06  -0.00  -0.01     0.28  -0.01  -0.03     0.01  -0.18   0.03
   4   6    -0.00  -0.00   0.00    -0.00  -0.00  -0.00     0.00  -0.00  -0.00
   5   8     0.00   0.00   0.00    -0.00   0.00   0.00    -0.00   0.00   0.00
   6   6    -0.00  -0.00   0.00    -0.00  -0.00  -0.00     0.00   0.00  -0.00
   7   8     0.00   0.00  -0.00     0.00   0.00  -0.00     0.00  -0.00   0.00
   8   6     0.00   0.00   0.00    -0.00   0.00  -0.00     0.00   0.00   0.00
   9   1     0.27   0.14  -0.08     0.05   0.04  -0.01    -0.15  -0.09   0.05
  10   1    -0.05   0.11  -0.48     0.00   0.00   0.03     0.00   0.01  -0.04
  11   1     0.06   0.59   0.45    -0.03  -0.22  -0.16     0.01   0.03   0.02
  12   1     0.00   0.00  -0.01    -0.00   0.00  -0.00    -0.00   0.00  -0.02
  13   1    -0.12  -0.08   0.05    -0.53  -0.35   0.21     0.52   0.30  -0.19
  14   1    -0.11   0.08  -0.02    -0.49   0.37  -0.08    -0.59   0.39  -0.08
  15   1     0.01  -0.00   0.01     0.04   0.00  -0.02     0.02  -0.06   0.17
  16   1     0.00   0.00  -0.01    -0.00  -0.00   0.01     0.00  -0.00  -0.00
  17   1     0.00   0.02   0.01     0.00   0.00   0.00    -0.00  -0.00   0.00
  18   1     0.00   0.00  -0.00    -0.00  -0.00   0.00     0.00   0.00  -0.00
  19   1    -0.00  -0.00  -0.00     0.00   0.00   0.00    -0.00  -0.00  -0.00
  20   1     0.00  -0.00  -0.00    -0.00   0.00   0.00     0.00  -0.00  -0.00
                     52                     53                     54
                        a                      a                      a 
 Frequencies --  3053.0447              3058.5238              3073.0538
 Red. masses --     1.4912                 1.4499                 1.9673
 Frc consts  --     0.0000                 0.0000                 0.0000
 IR Inten    --    47.7260                 1.4956                 6.3706
 Raman Activ --     0.0000                 0.0000                 0.0000
 Depolar     --     0.0000                 0.0000                 0.0000
 Atom AN      X      Y      Z        X      Y      Z        X      Y      Z
   1   6     0.19   0.05  -0.05     0.00  -0.00  -0.00     0.00  -0.00   0.00
   2   6     0.01   0.00  -0.01    -0.00   0.00  -0.00     0.00   0.00  -0.00
   3   6     0.04   0.03  -0.00    -0.00  -0.00   0.00    -0.00  -0.00   0.00
   4   6    -0.00  -0.00   0.00     0.00  -0.00  -0.00     0.00   0.00  -0.00
   5   8     0.00   0.00  -0.00     0.00   0.00  -0.00    -0.00  -0.00   0.00
   6   6    -0.00  -0.00   0.00    -0.00   0.00  -0.00     0.01   0.01  -0.00
   7   8     0.00   0.00  -0.00     0.00  -0.00   0.00    -0.00  -0.00   0.00
   8   6    -0.00  -0.00   0.00    -0.14  -0.02  -0.14     0.18   0.20  -0.13
   9   1    -0.73  -0.45   0.23    -0.00  -0.00   0.00    -0.00  -0.00   0.00
  10   1     0.01   0.07  -0.20    -0.00   0.00  -0.00    -0.00   0.00  -0.00
  11   1     0.05   0.20   0.13     0.00   0.00   0.00     0.00   0.00   0.00
  12   1     0.00  -0.00   0.02     0.00  -0.00   0.00     0.00  -0.00   0.00
  13   1    -0.18  -0.11   0.07     0.00   0.00  -0.00     0.00   0.00  -0.00
  14   1     0.04  -0.02   0.00     0.00  -0.00   0.00     0.00  -0.00   0.00
  15   1    -0.00   0.02  -0.07    -0.00  -0.00   0.00    -0.00   0.00  -0.00
  16   1    -0.00  -0.00   0.00     0.00  -0.00   0.00     0.00  -0.00   0.00
  17   1    -0.00   0.00   0.00     0.00  -0.00  -0.00     0.00  -0.00  -0.00
  18   1     0.00   0.00  -0.00    -0.19  -0.31   0.35    -0.27  -0.49   0.61
  19   1     0.00   0.00   0.00     0.67   0.44   0.23    -0.38  -0.24  -0.16
  20   1    -0.00   0.00   0.00     0.00  -0.05  -0.08     0.02   0.04   0.00
