 Entering Gaussian System
 *********************************************
 Gaussian 98:
 frequency output generated by the xtb code
 *********************************************
                         Standard orientation:
 --------------------------------------------------------------------
  Center     Atomic     Atomic              Coordinates (Angstroms)
  Number     Number      Type              X           Y           Z
 --------------------------------------------------------------------
    1          6             0       -1.570327    1.484133    0.273818
    2          6             0       -1.132552    0.257735   -0.523263
    3          6             0       -0.131856   -0.625322    0.242310
    4          1             0       -0.276245   -0.466153    1.315754
    5          6             0       -0.354461   -2.103929   -0.070957
    6          6             0        1.324485   -0.267156   -0.094676
    7          8             0        1.685295    1.065544    0.200072
    8          1             0       -2.188574    2.135981   -0.339241
    9          1             0       -2.152791    1.177725    1.140071
   10          1             0       -0.714447    2.050468    0.631473
   11          1             0       -0.693084    0.566733   -1.475042
   12          1             0       -2.019415   -0.333485   -0.759349
   13          1             0        0.365476   -2.721389    0.460670
   14          1             0       -0.241299   -2.285086   -1.137604
   15          1             0       -1.354327   -2.407173    0.227909
   16          1             0        1.516715   -0.484592   -1.154500
   17          1             0        1.998365   -0.883747    0.506325
   18          1             0        1.228104    1.653451   -0.416190
 --------------------------------------------------------------------
     1 basis functions        1 primitive gaussians
     1 alpha electrons        1 beta electrons
 
 Harmonic frequencies (cm**-1), IR intensities (km*mol⁻¹),
 Raman scattering activities (A**4/amu), Raman depolarization ratios,
 reduced masses (AMU), force constants (mDyne/A) and normal coordinates:
                      1                      2                      3
                        a                      a                      a 
 Frequencies --    86.0438               111.9840               193.4437
 Red. masses --     9.1053                 7.7396                 4.3820
 Frc consts  --     0.0000                 0.0000                 0.0000
 IR Inten    --     8.8931                 3.6545                 0.6063
 Raman Activ --     0.0000                 0.0000                 0.0000
 Depolar     --     0.0000                 0.0000                 0.0000
 Atom AN      X      Y      Z        X      Y      Z        X      Y      Z
   1   6    -0.43  -0.18   0.04     0.15   0.16  -0.22    -0.24   0.02  -0.06
   2   6     0.07   0.11  -0.14    -0.27  -0.19   0.10    -0.07   0.01   0.08
   3   6     0.08   0.15  -0.08    -0.01  -0.01  -0.04    -0.01   0.06   0.07
   4   1     0.07   0.11  -0.02     0.05   0.00  -0.00    -0.03  -0.02   0.02
   5   6    -0.09   0.11   0.26     0.12  -0.04   0.03     0.00   0.10  -0.19
   6   6     0.06  -0.01  -0.28    -0.10   0.13  -0.29     0.07  -0.08   0.23
   7   8     0.38  -0.20   0.15     0.09  -0.08   0.42     0.26  -0.07  -0.10
   8   1    -0.16  -0.07   0.02    -0.03  -0.02  -0.06    -0.43  -0.25   0.07
   9   1    -0.13  -0.15  -0.03     0.15   0.16   0.05     0.28  -0.01   0.21
  10   1    -0.19   0.01   0.07     0.09   0.08  -0.24    -0.10   0.29  -0.37
  11   1     0.07   0.13   0.02    -0.19  -0.18  -0.06    -0.05  -0.01   0.01
  12   1     0.08  -0.01  -0.15    -0.12  -0.06   0.21    -0.01  -0.03   0.06
  13   1    -0.05   0.04   0.12     0.08   0.01  -0.02     0.04   0.00  -0.14
  14   1    -0.03  -0.04   0.09    -0.01  -0.02   0.01    -0.06   0.10  -0.07
  15   1    -0.04   0.09   0.09     0.06  -0.05   0.05     0.02  -0.01  -0.02
  16   1    -0.06   0.10  -0.12    -0.12   0.20  -0.13     0.07  -0.11   0.09
  17   1     0.03  -0.09  -0.19     0.01  -0.07  -0.24    -0.03  -0.00   0.15
  18   1    -0.00   0.04   0.20     0.07   0.09   0.17     0.10  -0.05  -0.07
                      4                      5                      6
                        a                      a                      a 
 Frequencies --   221.1271               238.3152               298.2078
 Red. masses --     1.6144                 7.8266                 5.6593
 Frc consts  --     0.0000                 0.0000                 0.0000
 IR Inten    --     0.7116                 2.1757                62.1655
 Raman Activ --     0.0000                 0.0000                 0.0000
 Depolar     --     0.0000                 0.0000                 0.0000
 Atom AN      X      Y      Z        X      Y      Z        X      Y      Z
   1   6     0.10  -0.02   0.11    -0.24   0.11  -0.06    -0.11   0.21  -0.16
   2   6    -0.02   0.04  -0.06    -0.26  -0.07   0.18     0.25   0.03   0.28
   3   6    -0.05   0.00  -0.08    -0.11   0.06   0.14     0.18  -0.12   0.23
   4   1    -0.03   0.01  -0.03    -0.05  -0.03   0.04     0.10  -0.07   0.08
   5   6     0.06  -0.04   0.06     0.24   0.07  -0.17    -0.05  -0.02  -0.12
   6   6    -0.05   0.01  -0.05    -0.07  -0.02   0.11     0.07  -0.09  -0.09
   7   8    -0.07   0.00  -0.01     0.42  -0.11  -0.17    -0.18  -0.06  -0.09
   8   1    -0.12  -0.06   0.12     0.18   0.14  -0.15    -0.04  -0.06  -0.17
   9   1     0.19  -0.04   0.13    -0.32   0.11  -0.15    -0.07   0.11  -0.05
  10   1     0.04   0.06  -0.11    -0.06  -0.12   0.19    -0.11   0.18  -0.05
  11   1    -0.02   0.03  -0.02    -0.11  -0.07   0.02     0.11  -0.03   0.08
  12   1    -0.02   0.03  -0.02    -0.08  -0.04   0.11     0.08   0.01   0.05
  13   1    -0.30  -0.01   0.45     0.00   0.02   0.04    -0.10  -0.09  -0.01
  14   1     0.53  -0.14   0.09     0.26   0.07  -0.04     0.07   0.06  -0.04
  15   1    -0.16   0.10  -0.45     0.03  -0.04  -0.23    -0.06   0.04  -0.15
  16   1    -0.01   0.01  -0.02    -0.05  -0.06   0.04    -0.07   0.03  -0.06
  17   1    -0.02  -0.01  -0.02    -0.05  -0.03   0.04     0.11  -0.01  -0.11
  18   1     0.02   0.00  -0.03     0.08  -0.01  -0.01    -0.51  -0.02   0.31
                      7                      8                      9
                        a                      a                      a 
 Frequencies --   347.8267               384.6501               442.2091
 Red. masses --     7.5142                 5.9793                 7.7352
 Frc consts  --     0.0000                 0.0000                 0.0000
 IR Inten    --    22.4195               157.4716                 1.9930
 Raman Activ --     0.0000                 0.0000                 0.0000
 Depolar     --     0.0000                 0.0000                 0.0000
 Atom AN      X      Y      Z        X      Y      Z        X      Y      Z
   1   6    -0.02  -0.19  -0.07     0.22  -0.21   0.03     0.14  -0.18  -0.06
   2   6    -0.00  -0.28   0.15    -0.15  -0.16  -0.19     0.25  -0.07  -0.04
   3   6     0.22  -0.04   0.07    -0.09   0.07  -0.06    -0.22  -0.06   0.42
   4   1     0.10  -0.02   0.03    -0.09   0.03  -0.03    -0.10  -0.05   0.11
   5   6    -0.46   0.11  -0.11    -0.14   0.07  -0.01    -0.02   0.00  -0.05
   6   6     0.21   0.14  -0.02    -0.02   0.12   0.18    -0.40   0.19  -0.02
   7   8     0.08   0.25   0.06     0.32   0.13  -0.12     0.17   0.09  -0.08
   8   1     0.06  -0.04  -0.08     0.05   0.01   0.10    -0.01  -0.07   0.01
   9   1    -0.07  -0.01  -0.05     0.11  -0.09   0.03     0.09  -0.08   0.00
  10   1    -0.00  -0.08   0.01     0.10  -0.11  -0.00     0.03  -0.02  -0.05
  11   1    -0.07  -0.13  -0.00    -0.09  -0.09  -0.09     0.26   0.01   0.08
  12   1     0.00  -0.12   0.13    -0.07  -0.05   0.03     0.09   0.03  -0.20
  13   1    -0.30  -0.14  -0.00    -0.05   0.00  -0.01     0.01  -0.04  -0.09
  14   1    -0.10   0.05  -0.03    -0.06   0.01  -0.00     0.01   0.14  -0.04
  15   1    -0.22   0.23  -0.12    -0.04   0.05   0.01    -0.00  -0.07  -0.07
  16   1     0.06   0.06  -0.01     0.03  -0.02   0.06    -0.33   0.11  -0.06
  17   1     0.08   0.05  -0.02    -0.03   0.06   0.10    -0.01  -0.01  -0.19
  18   1     0.25   0.04  -0.17    -0.52   0.06   0.44     0.15   0.09  -0.04
                     10                     11                     12
                        a                      a                      a 
 Frequencies --   502.7038               811.2585               836.1131
 Red. masses --    10.1705                 3.6591                 6.3655
 Frc consts  --     0.0000                 0.0000                 0.0000
 IR Inten    --     5.4600                 8.0264                 9.5539
 Raman Activ --     0.0000                 0.0000                 0.0000
 Depolar     --     0.0000                 0.0000                 0.0000
 Atom AN      X      Y      Z        X      Y      Z        X      Y      Z
   1   6    -0.11   0.22   0.03     0.10  -0.01  -0.00     0.08  -0.18   0.02
   2   6     0.01   0.13   0.08     0.36   0.11   0.01     0.14  -0.15   0.35
   3   6    -0.08  -0.32  -0.18     0.01   0.04  -0.13    -0.02   0.04  -0.31
   4   1    -0.05  -0.16  -0.04    -0.09  -0.03  -0.04     0.07  -0.07  -0.06
   5   6    -0.12  -0.55   0.01    -0.01   0.00  -0.04     0.04   0.21  -0.05
   6   6     0.00   0.20   0.05    -0.24   0.06   0.08    -0.31   0.12  -0.08
   7   8     0.32   0.29  -0.03     0.01  -0.05  -0.02     0.00  -0.11  -0.01
   8   1    -0.03   0.01  -0.05    -0.09  -0.13  -0.02     0.10  -0.20  -0.24
   9   1    -0.05   0.09   0.01    -0.06  -0.31  -0.16    -0.06   0.20   0.04
  10   1    -0.06   0.11  -0.00    -0.22   0.21   0.25     0.01   0.03  -0.10
  11   1     0.05   0.09   0.06    -0.21  -0.28  -0.23     0.12   0.12   0.18
  12   1    -0.01   0.09  -0.06    -0.04   0.03   0.47     0.08  -0.02  -0.09
  13   1    -0.03  -0.11   0.06     0.01   0.06   0.05     0.01   0.15   0.10
  14   1    -0.07  -0.28   0.02    -0.02  -0.11   0.01    -0.03  -0.15   0.02
  15   1    -0.03  -0.11   0.07     0.01   0.02   0.05     0.02   0.14   0.09
  16   1     0.04   0.06   0.02    -0.09   0.00   0.02     0.15  -0.11   0.05
  17   1     0.00   0.07   0.03    -0.07  -0.01   0.00    -0.26   0.07   0.21
  18   1     0.04   0.10   0.05     0.05   0.01  -0.02     0.03   0.10   0.09
                     13                     14                     15
                        a                      a                      a 
 Frequencies --   924.3777               945.6554              1008.0050
 Red. masses --     3.4223                 6.2944                 3.2330
 Frc consts  --     0.0000                 0.0000                 0.0000
 IR Inten    --     6.2545                15.3173                13.0142
 Raman Activ --     0.0000                 0.0000                 0.0000
 Depolar     --     0.0000                 0.0000                 0.0000
 Atom AN      X      Y      Z        X      Y      Z        X      Y      Z
   1   6     0.06   0.02  -0.03     0.11  -0.18  -0.00     0.10  -0.17   0.18
   2   6     0.02   0.01   0.01     0.04   0.01   0.16     0.04   0.07  -0.09
   3   6    -0.13   0.00   0.11    -0.35   0.02  -0.06     0.05   0.11  -0.12
   4   1     0.22   0.21   0.03    -0.11  -0.01  -0.02    -0.09   0.31  -0.09
   5   6    -0.11  -0.14   0.14    -0.26   0.13  -0.03     0.05  -0.19   0.16
   6   6     0.01   0.05  -0.36     0.32  -0.18  -0.03    -0.07  -0.04   0.11
   7   8     0.01   0.01   0.05     0.04   0.20   0.04     0.02   0.05  -0.00
   8   1    -0.04  -0.02   0.03     0.04  -0.18  -0.16     0.12  -0.27  -0.30
   9   1     0.01  -0.14  -0.06    -0.05   0.03  -0.03    -0.14   0.26   0.04
  10   1    -0.07   0.07   0.09    -0.04   0.06  -0.01    -0.05   0.14  -0.07
  11   1     0.07  -0.12  -0.00     0.01   0.02   0.05    -0.23   0.26  -0.06
  12   1    -0.06   0.09   0.02    -0.02   0.05   0.03    -0.01   0.01   0.06
  13   1     0.05  -0.09  -0.13     0.18   0.40   0.09    -0.05  -0.30  -0.17
  14   1     0.10   0.31  -0.01     0.13  -0.03   0.02     0.00   0.29  -0.02
  15   1    -0.01  -0.29  -0.18     0.05  -0.39  -0.04    -0.04  -0.03  -0.13
  16   1     0.38  -0.18   0.02     0.01   0.09  -0.05    -0.10   0.08  -0.00
  17   1    -0.20   0.15   0.28     0.15  -0.08  -0.13    -0.01  -0.09  -0.07
  18   1     0.08   0.18   0.13    -0.06  -0.09  -0.07    -0.04  -0.09  -0.06
                     16                     17                     18
                        a                      a                      a 
 Frequencies --  1042.4952              1067.3913              1077.5801
 Red. masses --     4.9842                11.2651                 9.3037
 Frc consts  --     0.0000                 0.0000                 0.0000
 IR Inten    --    15.6344               153.4975                 4.3219
 Raman Activ --     0.0000                 0.0000                 0.0000
 Depolar     --     0.0000                 0.0000                 0.0000
 Atom AN      X      Y      Z        X      Y      Z        X      Y      Z
   1   6    -0.20  -0.05  -0.05     0.10  -0.09   0.00    -0.13   0.36   0.33
   2   6     0.25   0.09   0.04    -0.13   0.08  -0.02     0.21  -0.47  -0.27
   3   6     0.15   0.26   0.01    -0.03   0.01   0.09    -0.01  -0.25  -0.15
   4   1     0.03   0.11  -0.00    -0.12  -0.05   0.02    -0.15   0.03  -0.07
   5   6    -0.23  -0.22  -0.08    -0.05  -0.04  -0.01    -0.09   0.21   0.10
   6   6    -0.11   0.12   0.05     0.29   0.58   0.09    -0.00   0.09   0.04
   7   8    -0.03  -0.12  -0.03    -0.14  -0.54  -0.12    -0.00  -0.07  -0.03
   8   1     0.06   0.20   0.11     0.01  -0.12  -0.10    -0.01   0.06   0.02
   9   1     0.07   0.14   0.12    -0.04  -0.01  -0.04    -0.07   0.20   0.10
  10   1     0.18  -0.26  -0.16    -0.05   0.07   0.01    -0.05   0.15   0.05
  11   1    -0.16   0.10  -0.07    -0.03   0.06   0.01     0.05  -0.13  -0.08
  12   1     0.26  -0.33   0.18    -0.09   0.11  -0.03     0.07  -0.15  -0.06
  13   1     0.09   0.14   0.02     0.01   0.02   0.01     0.06   0.12  -0.02
  14   1     0.08  -0.08  -0.00     0.00  -0.03   0.00     0.07   0.17   0.01
  15   1     0.01  -0.33  -0.05    -0.00  -0.05  -0.00     0.00  -0.09  -0.04
  16   1    -0.05  -0.02   0.02    -0.01   0.03   0.01    -0.01   0.03   0.00
  17   1    -0.01   0.06   0.03     0.20   0.23  -0.00     0.07   0.07  -0.02
  18   1     0.02   0.06   0.05     0.08   0.04   0.05     0.05   0.05   0.02
                     19                     20                     21
                        a                      a                      a 
 Frequencies --  1108.8732              1137.6192              1170.1903
 Red. masses --     4.0176                 8.3168                 6.4377
 Frc consts  --     0.0000                 0.0000                 0.0000
 IR Inten    --    10.5113                 1.1494                 0.6866
 Raman Activ --     0.0000                 0.0000                 0.0000
 Depolar     --     0.0000                 0.0000                 0.0000
 Atom AN      X      Y      Z        X      Y      Z        X      Y      Z
   1   6     0.02   0.11  -0.05    -0.05  -0.10  -0.21     0.15   0.04   0.08
   2   6    -0.02  -0.17   0.15    -0.03   0.24   0.13    -0.27  -0.04  -0.21
   3   6     0.01   0.17  -0.18     0.15  -0.50  -0.26     0.43   0.00   0.11
   4   1     0.23   0.13  -0.03     0.13  -0.17  -0.05     0.45   0.06   0.07
   5   6    -0.06  -0.11   0.02    -0.06   0.25   0.26    -0.19  -0.01  -0.13
   6   6    -0.03   0.28   0.17    -0.15   0.04   0.17    -0.23  -0.10   0.17
   7   8     0.04  -0.11  -0.02     0.03  -0.03  -0.05     0.00   0.03  -0.02
   8   1    -0.06   0.06   0.09    -0.01   0.09   0.08    -0.01  -0.13  -0.09
   9   1     0.04  -0.13  -0.04     0.07  -0.10  -0.02    -0.07  -0.02  -0.06
  10   1    -0.03   0.02   0.08     0.07  -0.15  -0.05    -0.10   0.18   0.08
  11   1     0.19  -0.13   0.09    -0.12   0.14   0.01    -0.01   0.09   0.00
  12   1     0.01   0.01  -0.12    -0.03   0.08   0.08    -0.09   0.06  -0.15
  13   1     0.01  -0.03  -0.04     0.07   0.05  -0.06     0.09   0.23   0.06
  14   1     0.03   0.04  -0.00     0.10   0.35   0.03     0.09  -0.13   0.01
  15   1    -0.01  -0.11  -0.05    -0.01  -0.08  -0.09     0.03  -0.19   0.02
  16   1     0.09   0.31   0.00    -0.00   0.13   0.02    -0.14  -0.03   0.03
  17   1    -0.22  -0.27  -0.07     0.05   0.02  -0.04     0.06   0.04  -0.01
  18   1    -0.20  -0.44  -0.24     0.01   0.01   0.01     0.06   0.10   0.04
                     22                     23                     24
                        a                      a                      a 
 Frequencies --  1199.4424              1251.3340              1288.5106
 Red. masses --     5.6921                 3.1372                 3.9578
 Frc consts  --     0.0000                 0.0000                 0.0000
 IR Inten    --    18.6232                11.0824                 6.0169
 Raman Activ --     0.0000                 0.0000                 0.0000
 Depolar     --     0.0000                 0.0000                 0.0000
 Atom AN      X      Y      Z        X      Y      Z        X      Y      Z
   1   6     0.09   0.12  -0.15     0.20   0.15  -0.11    -0.01  -0.03   0.09
   2   6    -0.08  -0.19   0.32    -0.11  -0.13   0.02    -0.11   0.10  -0.06
   3   6     0.01   0.22  -0.32     0.11  -0.02   0.12     0.23   0.32  -0.16
   4   1    -0.16   0.25  -0.13    -0.27  -0.23   0.02    -0.13  -0.62   0.04
   5   6     0.00  -0.09   0.05    -0.04   0.03   0.04    -0.08  -0.04   0.21
   6   6     0.05  -0.16   0.18    -0.00   0.07  -0.19     0.04   0.00  -0.02
   7   8    -0.08  -0.00  -0.07     0.04   0.04   0.09    -0.03   0.04   0.02
   8   1    -0.09   0.05   0.11    -0.09  -0.02   0.06     0.03  -0.08  -0.08
   9   1     0.06  -0.23  -0.10     0.01  -0.19  -0.13    -0.02   0.05   0.03
  10   1    -0.04   0.02   0.13    -0.10   0.14   0.17     0.02  -0.00  -0.04
  11   1     0.13   0.05   0.18    -0.26   0.49   0.07     0.21  -0.29  -0.01
  12   1     0.04  -0.05  -0.11     0.19  -0.32  -0.08     0.00  -0.01  -0.03
  13   1    -0.00  -0.09  -0.06     0.00   0.01  -0.01     0.02  -0.10  -0.11
  14   1    -0.00   0.07  -0.01     0.03   0.03   0.01     0.05   0.13   0.03
  15   1    -0.02  -0.02  -0.06     0.01  -0.06  -0.00    -0.02  -0.17  -0.11
  16   1    -0.25  -0.07  -0.00     0.02  -0.13  -0.01    -0.16  -0.18  -0.00
  17   1     0.23   0.09  -0.07    -0.15  -0.02   0.08    -0.12  -0.12   0.01
  18   1     0.15   0.31   0.16    -0.08  -0.18  -0.09     0.01   0.04   0.02
                     25                     26                     27
                        a                      a                      a 
 Frequencies --  1298.6240              1319.4999              1353.4183
 Red. masses --     3.2930                 3.1272                 4.0361
 Frc consts  --     0.0000                 0.0000                 0.0000
 IR Inten    --    26.8088                29.3750                25.4255
 Raman Activ --     0.0000                 0.0000                 0.0000
 Depolar     --     0.0000                 0.0000                 0.0000
 Atom AN      X      Y      Z        X      Y      Z        X      Y      Z
   1   6    -0.10  -0.05  -0.05    -0.06  -0.02  -0.06     0.03  -0.02   0.02
   2   6     0.07  -0.08   0.08     0.07  -0.14   0.01    -0.15   0.12   0.05
   3   6     0.24  -0.07  -0.04     0.28  -0.01   0.15     0.29   0.05   0.06
   4   1    -0.20   0.22  -0.08    -0.36   0.06  -0.03    -0.45   0.07  -0.06
   5   6    -0.06  -0.00  -0.02    -0.07   0.01  -0.04    -0.06  -0.04  -0.02
   6   6    -0.04   0.12  -0.16     0.09  -0.00   0.03    -0.31  -0.17  -0.08
   7   8     0.09   0.06   0.19    -0.10  -0.00  -0.14     0.07  -0.03   0.01
   8   1     0.00   0.08   0.06    -0.02   0.07   0.07    -0.01  -0.04  -0.02
   9   1     0.02   0.04   0.04     0.02   0.04   0.03    -0.03  -0.01  -0.02
  10   1     0.03  -0.07  -0.04     0.00  -0.04   0.00     0.01   0.00  -0.02
  11   1     0.03  -0.03   0.02    -0.07   0.13   0.02     0.16  -0.19   0.03
  12   1    -0.23   0.37  -0.01    -0.23   0.34   0.01     0.03  -0.04  -0.05
  13   1     0.05   0.08   0.00     0.03   0.06   0.01     0.04   0.05  -0.01
  14   1     0.03  -0.01  -0.00     0.04  -0.05   0.01     0.05   0.01   0.00
  15   1    -0.00  -0.04  -0.02     0.02  -0.08   0.03    -0.00  -0.01   0.03
  16   1    -0.32  -0.45   0.00     0.14   0.19  -0.01     0.40   0.34  -0.01
  17   1     0.02   0.18   0.08    -0.35  -0.43  -0.01     0.23   0.31   0.01
  18   1    -0.15  -0.32  -0.15     0.10   0.27   0.13    -0.04  -0.13  -0.07
                     28                     29                     30
                        a                      a                      a 
 Frequencies --  1364.4304              1410.6405              1415.3143
 Red. masses --     4.7743                 3.1115                 3.0982
 Frc consts  --     0.0000                 0.0000                 0.0000
 IR Inten    --     6.5186                 2.0854                 0.7757
 Raman Activ --     0.0000                 0.0000                 0.0000
 Depolar     --     0.0000                 0.0000                 0.0000
 Atom AN      X      Y      Z        X      Y      Z        X      Y      Z
   1   6     0.06  -0.01   0.07     0.02  -0.08  -0.05    -0.14   0.35   0.18
   2   6    -0.23   0.33   0.04     0.00   0.00   0.00     0.05  -0.07   0.01
   3   6     0.11  -0.34   0.03    -0.00  -0.04  -0.01     0.01   0.01   0.02
   4   1    -0.16   0.36  -0.09     0.01   0.05  -0.01     0.00   0.01   0.01
   5   6    -0.01   0.09  -0.06     0.07   0.41   0.08     0.01   0.09   0.01
   6   6     0.11   0.14  -0.01    -0.03  -0.02   0.00    -0.01  -0.01  -0.01
   7   8    -0.03   0.03  -0.01     0.01  -0.00   0.00     0.00  -0.00  -0.00
   8   1     0.01  -0.10  -0.08    -0.00   0.08   0.10     0.03  -0.31  -0.39
   9   1    -0.04  -0.06  -0.05    -0.02   0.10   0.02     0.09  -0.47  -0.09
  10   1     0.03   0.01  -0.05    -0.07   0.08   0.03     0.32  -0.36  -0.16
  11   1     0.17  -0.29  -0.01     0.03   0.01   0.02    -0.09   0.06  -0.03
  12   1     0.24  -0.34  -0.05    -0.01   0.01   0.03    -0.05   0.08  -0.04
  13   1    -0.02   0.03   0.02    -0.21  -0.40  -0.20    -0.04  -0.08  -0.04
  14   1     0.03  -0.05   0.00    -0.11  -0.50   0.08    -0.03  -0.12   0.02
  15   1     0.03  -0.01   0.05     0.10  -0.46  -0.16     0.02  -0.11  -0.04
  16   1    -0.13  -0.18   0.01     0.02   0.04  -0.00     0.00   0.04  -0.01
  17   1    -0.23  -0.26  -0.01     0.04   0.06   0.01    -0.00   0.03   0.02
  18   1     0.01   0.06   0.03    -0.00  -0.02  -0.01    -0.02  -0.01   0.01
                     31                     32                     33
                        a                      a                      a 
 Frequencies --  1474.8442              1494.8030              1496.3848
 Red. masses --     1.8089                 1.6948                 1.5314
 Frc consts  --     0.0000                 0.0000                 0.0000
 IR Inten    --     2.4034                 0.8151                 1.3996
 Raman Activ --     0.0000                 0.0000                 0.0000
 Depolar     --     0.0000                 0.0000                 0.0000
 Atom AN      X      Y      Z        X      Y      Z        X      Y      Z
   1   6     0.01  -0.02   0.00     0.03   0.01  -0.05     0.13   0.10  -0.11
   2   6     0.00   0.03   0.04     0.08   0.04   0.16     0.01   0.02  -0.06
   3   6     0.01  -0.03   0.00    -0.04   0.01   0.03     0.00  -0.01  -0.01
   4   1     0.01   0.01  -0.00     0.02   0.00   0.01     0.02   0.00  -0.00
   5   6    -0.03  -0.00   0.01    -0.10   0.00   0.09     0.03   0.00  -0.03
   6   6     0.19  -0.15  -0.08    -0.03   0.02   0.02     0.01  -0.00  -0.00
   7   8     0.00  -0.04  -0.02    -0.00   0.01  -0.00     0.00  -0.00   0.00
   8   1     0.00   0.01   0.01    -0.11  -0.08   0.02    -0.54  -0.38   0.14
   9   1    -0.01   0.02  -0.00     0.02   0.12   0.05    -0.17   0.35  -0.01
  10   1    -0.01   0.02  -0.00    -0.00  -0.09   0.15     0.15  -0.41   0.32
  11   1    -0.07  -0.07  -0.06    -0.36  -0.20  -0.23     0.09   0.01   0.03
  12   1     0.03  -0.01  -0.11     0.08   0.06  -0.44    -0.02   0.00   0.10
  13   1     0.06   0.01  -0.07     0.27  -0.01  -0.38    -0.08  -0.01   0.10
  14   1     0.07  -0.03   0.01     0.26  -0.23   0.07    -0.05   0.06  -0.02
  15   1    -0.02   0.06   0.01    -0.10   0.22  -0.08     0.03  -0.07   0.04
  16   1    -0.45   0.47  -0.17     0.10  -0.09   0.04    -0.03   0.02  -0.01
  17   1    -0.25   0.25   0.55     0.05  -0.06  -0.11    -0.01   0.02   0.03
  18   1     0.00  -0.01  -0.01     0.01   0.02   0.01    -0.01  -0.01  -0.00
                     34                     35                     36
                        a                      a                      a 
 Frequencies --  1497.9840              1503.9338              1509.9486
 Red. masses --     1.5887                 1.6524                 1.6362
 Frc consts  --     0.0000                 0.0000                 0.0000
 IR Inten    --     1.1680                 1.0489                 0.5892
 Raman Activ --     0.0000                 0.0000                 0.0000
 Depolar     --     0.0000                 0.0000                 0.0000
 Atom AN      X      Y      Z        X      Y      Z        X      Y      Z
   1   6     0.03  -0.01   0.01    -0.03  -0.02  -0.04     0.14  -0.02   0.15
   2   6    -0.00   0.02   0.04     0.05   0.04   0.16     0.07  -0.02   0.08
   3   6     0.06  -0.02   0.04     0.03   0.03  -0.02    -0.02   0.03  -0.02
   4   1    -0.02   0.02   0.00    -0.01  -0.04  -0.00     0.02  -0.04   0.00
   5   6     0.16  -0.05   0.13     0.08   0.02  -0.13    -0.00   0.01  -0.03
   6   6    -0.01  -0.00  -0.00    -0.02  -0.01   0.01    -0.01   0.00   0.01
   7   8    -0.00  -0.00  -0.01     0.00  -0.00   0.00    -0.00   0.00  -0.00
   8   1    -0.03   0.00   0.04     0.07   0.01  -0.06    -0.19   0.08   0.29
   9   1    -0.06   0.01  -0.04     0.14   0.03   0.11    -0.55  -0.06  -0.39
  10   1     0.01   0.01  -0.03    -0.07   0.01   0.13     0.16   0.09  -0.50
  11   1    -0.08  -0.06  -0.06    -0.32  -0.20  -0.21    -0.13  -0.04  -0.07
  12   1     0.03  -0.01  -0.12     0.07   0.07  -0.42     0.00   0.06  -0.13
  13   1     0.15   0.27   0.14    -0.34  -0.07   0.38    -0.07  -0.05   0.04
  14   1    -0.62  -0.06  -0.05    -0.16   0.25  -0.07     0.04   0.05  -0.00
  15   1    -0.17   0.00  -0.61     0.15  -0.28   0.21     0.04  -0.04   0.10
  16   1     0.01   0.03  -0.00     0.01  -0.00   0.00     0.01  -0.02   0.01
  17   1    -0.02  -0.02   0.01     0.02   0.01  -0.01     0.02  -0.01  -0.02
  18   1     0.00   0.01   0.00     0.01   0.01   0.00    -0.00   0.01   0.01
                     37                     38                     39
                        a                      a                      a 
 Frequencies --  2872.3679              2941.2969              2954.5746
 Red. masses --     1.7422                 1.7493                 1.9166
 Frc consts  --     0.0000                 0.0000                 0.0000
 IR Inten    --   103.7393                57.2527                82.7414
 Raman Activ --     0.0000                 0.0000                 0.0000
 Depolar     --     0.0000                 0.0000                 0.0000
 Atom AN      X      Y      Z        X      Y      Z        X      Y      Z
   1   6    -0.00   0.00  -0.00     0.00  -0.00   0.01     0.01   0.01  -0.01
   2   6     0.00   0.00  -0.00    -0.02  -0.01   0.02    -0.18  -0.13   0.18
   3   6    -0.00  -0.00  -0.00     0.03  -0.04  -0.25    -0.01   0.00   0.03
   4   1    -0.01   0.01   0.05    -0.13   0.14   0.93     0.01  -0.02  -0.10
   5   6     0.00  -0.00  -0.00    -0.00  -0.00   0.01     0.01  -0.00  -0.00
   6   6    -0.03   0.02   0.26     0.02  -0.02  -0.01    -0.02   0.02  -0.01
   7   8     0.00   0.01   0.01    -0.00  -0.00   0.00     0.00   0.00   0.00
   8   1     0.00  -0.00   0.00    -0.00   0.01  -0.00     0.02  -0.02   0.02
   9   1     0.00  -0.00   0.00     0.00   0.00  -0.00    -0.03  -0.01   0.05
  10   1    -0.00  -0.00  -0.00    -0.01  -0.01  -0.00    -0.02  -0.02  -0.01
  11   1    -0.01  -0.00   0.01     0.05   0.03  -0.10     0.35   0.24  -0.75
  12   1     0.00  -0.00  -0.00     0.02   0.01   0.01     0.31   0.21   0.11
  13   1    -0.00   0.00  -0.00    -0.02   0.01  -0.01    -0.00   0.00  -0.00
  14   1    -0.00  -0.00   0.01     0.00  -0.01  -0.04    -0.00   0.00   0.01
  15   1    -0.00  -0.00   0.00     0.02   0.01  -0.00    -0.01  -0.00   0.00
  16   1     0.16  -0.18  -0.93    -0.00   0.01   0.06     0.00  -0.00  -0.03
  17   1    -0.07   0.06  -0.01    -0.06   0.05  -0.06     0.07  -0.06   0.06
  18   1     0.01  -0.00  -0.00     0.00  -0.00  -0.00     0.00   0.00  -0.00
                     40                     41                     42
                        a                      a                      a 
 Frequencies --  2962.7127              2981.2875              3024.7705
 Red. masses --     1.6788                 1.5481                 1.9452
 Frc consts  --     0.0000                 0.0000                 0.0000
 IR Inten    --    80.9387                51.2097                67.3187
 Raman Activ --     0.0000                 0.0000                 0.0000
 Depolar     --     0.0000                 0.0000                 0.0000
 Atom AN      X      Y      Z        X      Y      Z        X      Y      Z
   1   6     0.00   0.00  -0.00     0.03  -0.00   0.01     0.03   0.17  -0.23
   2   6    -0.01  -0.01   0.02    -0.14  -0.09  -0.14     0.01   0.01  -0.02
   3   6     0.00   0.00   0.03    -0.00  -0.00  -0.01     0.00   0.00  -0.00
   4   1     0.01  -0.02  -0.11    -0.00   0.00   0.02     0.00   0.00   0.01
   5   6    -0.01   0.00  -0.00     0.01  -0.00   0.01    -0.00  -0.00   0.04
   6   6     0.16  -0.14   0.12     0.01  -0.00   0.00    -0.00   0.00  -0.00
   7   8    -0.00  -0.01  -0.00    -0.00  -0.00  -0.00    -0.00   0.00  -0.00
   8   1     0.00  -0.00   0.00    -0.04   0.04  -0.04     0.38  -0.36   0.35
   9   1    -0.01  -0.00   0.01    -0.00  -0.01   0.02    -0.39  -0.20   0.54
  10   1    -0.00  -0.00  -0.00    -0.05  -0.04  -0.02    -0.09  -0.03  -0.07
  11   1     0.04   0.03  -0.09    -0.20  -0.14   0.34    -0.03  -0.02   0.06
  12   1     0.01   0.00   0.01     0.71   0.48   0.16    -0.01  -0.01  -0.00
  13   1     0.02  -0.01   0.01    -0.01   0.01  -0.01    -0.03   0.02  -0.02
  14   1     0.00  -0.00  -0.00     0.00  -0.00  -0.03     0.01  -0.02  -0.13
  15   1     0.00   0.00  -0.00    -0.02  -0.00   0.01     0.03   0.01  -0.00
  16   1     0.01  -0.00   0.10    -0.00   0.00   0.01    -0.00   0.00   0.00
  17   1    -0.58   0.53  -0.54    -0.02   0.02  -0.02     0.00  -0.00   0.00
  18   1     0.01  -0.01   0.01     0.00  -0.00   0.00     0.00  -0.00   0.00
                     43                     44                     45
                        a                      a                      a 
 Frequencies --  3026.8139              3031.0810              3032.3629
 Red. masses --     1.9102                 1.7184                 1.8854
 Frc consts  --     0.0000                 0.0000                 0.0000
 IR Inten    --    93.3922                61.1385                77.5471
 Raman Activ --     0.0000                 0.0000                 0.0000
 Depolar     --     0.0000                 0.0000                 0.0000
 Atom AN      X      Y      Z        X      Y      Z        X      Y      Z
   1   6    -0.03  -0.02   0.03    -0.25   0.02  -0.02    -0.01  -0.00   0.01
   2   6     0.00  -0.00   0.01    -0.02  -0.01  -0.01    -0.01  -0.00   0.00
   3   6    -0.00   0.00   0.02     0.00  -0.00  -0.00    -0.01   0.00   0.00
   4   1     0.01  -0.00  -0.05    -0.00   0.00   0.01     0.00   0.00  -0.01
   5   6     0.02  -0.03   0.28     0.01   0.00  -0.03    -0.27   0.08   0.01
   6   6    -0.00  -0.00   0.00     0.00  -0.00  -0.00    -0.00   0.00  -0.00
   7   8    -0.00   0.00  -0.00    -0.00   0.00  -0.00     0.00  -0.00   0.00
   8   1    -0.02   0.01  -0.01     0.38  -0.43   0.42     0.01  -0.01   0.01
   9   1     0.08   0.05  -0.12     0.28   0.18  -0.47     0.03   0.02  -0.04
  10   1     0.05   0.03   0.02     0.22   0.17   0.10    -0.00  -0.00   0.00
  11   1     0.01   0.01  -0.02    -0.01  -0.00   0.01     0.00   0.00  -0.00
  12   1    -0.02  -0.01  -0.00     0.07   0.05   0.01     0.02   0.01   0.01
  13   1    -0.27   0.22  -0.16     0.01  -0.01   0.00     0.48  -0.42   0.39
  14   1     0.10  -0.14  -0.84    -0.01   0.01   0.09    -0.01  -0.03  -0.28
  15   1     0.10   0.02   0.01    -0.06  -0.02   0.01     0.48   0.16  -0.16
  16   1     0.00  -0.00  -0.01    -0.00   0.00   0.00     0.00  -0.00  -0.01
  17   1    -0.00   0.00   0.00    -0.00   0.00  -0.00     0.02  -0.01   0.01
  18   1     0.00  -0.00   0.00     0.00   0.00   0.00    -0.00   0.00  -0.00
                     46                     47                     48
                        a                      a                      a 
 Frequencies --  3042.4047              3045.6828              3503.4832
 Red. masses --     1.3438                 1.4816                 1.8771
 Frc consts  --     0.0000                 0.0000                 0.0000
 IR Inten    --    47.1389                37.6513                62.1026
 Raman Activ --     0.0000                 0.0000                 0.0000
 Depolar     --     0.0000                 0.0000                 0.0000
 Atom AN      X      Y      Z        X      Y      Z        X      Y      Z
   1   6    -0.02  -0.01  -0.01    -0.12  -0.12  -0.11    -0.00   0.00   0.00
   2   6    -0.01  -0.00  -0.00    -0.01  -0.01  -0.01     0.00   0.00   0.00
   3   6    -0.00  -0.00   0.00     0.00   0.00  -0.00    -0.00  -0.00  -0.00
   4   1     0.00  -0.00  -0.02    -0.00   0.00   0.02    -0.00   0.00   0.00
   5   6    -0.10  -0.13   0.04     0.00   0.01  -0.01    -0.00   0.00  -0.00
   6   6     0.00  -0.00   0.00     0.00  -0.00   0.00    -0.00   0.01  -0.00
   7   8    -0.00  -0.00  -0.00    -0.00  -0.00   0.00    -0.11   0.14  -0.16
   8   1     0.00  -0.01   0.00    -0.12   0.09  -0.11    -0.00   0.00  -0.00
   9   1    -0.00  -0.00  -0.00    -0.18  -0.11   0.23    -0.00  -0.00   0.00
  10   1     0.06   0.04   0.03     0.73   0.46   0.28     0.00  -0.00   0.00
  11   1    -0.00  -0.00   0.00    -0.00  -0.00   0.00     0.00  -0.00  -0.00
  12   1     0.02   0.01   0.00     0.04   0.03   0.01    -0.00  -0.00  -0.00
  13   1    -0.33   0.25  -0.23     0.04  -0.03   0.03     0.00  -0.00   0.00
  14   1    -0.05   0.03   0.31     0.00  -0.00  -0.02     0.00   0.00  -0.00
  15   1     0.74   0.20  -0.22    -0.05  -0.01   0.01    -0.00  -0.00   0.00
  16   1    -0.00   0.00   0.00    -0.00  -0.00  -0.00     0.00  -0.00   0.00
  17   1    -0.01   0.01  -0.01    -0.00   0.00  -0.00     0.01  -0.00   0.01
  18   1     0.00  -0.00   0.00    -0.00   0.00   0.00     0.45  -0.59   0.62
