      -----------------------------------------------------------      
     |                   =====================                   |     
     |                           x T B                           |     
     |                   =====================                   |     
     |                         S. Grimme                         |     
     |          Mulliken Center for Theoretical Chemistry        |     
     |                    University of Bonn                     |     
      -----------------------------------------------------------      

   * xtb version 6.7.1 (edcfbbe) compiled by 'albert@albert-system' on 2024-07-22

   xtb is free software: you can redistribute it and/or modify it under
   the terms of the GNU Lesser General Public License as published by
   the Free Software Foundation, either version 3 of the License, or
   (at your option) any later version.
   
   xtb is distributed in the hope that it will be useful,
   but WITHOUT ANY WARRANTY; without even the implied warranty of
   MERCHANTABILITY or FITNESS FOR A PARTICULAR PURPOSE.  See the
   GNU Lesser General Public License for more details.
   
   Cite this work as:
   * C. Bannwarth, E. Caldeweyher, S. Ehlert, A. Hansen, P. Pracht,
     J. Seibert, S. Spicher, S. Grimme, WIREs Comput. Mol. Sci., 2020, 11,
     e01493. DOI: 10.1002/wcms.1493
   
   for GFN2-xTB:
   * C. Bannwarth, S. Ehlert and S. Grimme., J. Chem. Theory Comput., 2019,
     15, 1652-1671. DOI: 10.1021/acs.jctc.8b01176
   for GFN1-xTB:
   * S. Grimme, C. Bannwarth, P. Shushkov, J. Chem. Theory Comput., 2017,
     13, 1989-2009. DOI: 10.1021/acs.jctc.7b00118
   for GFN0-xTB:
   * P. Pracht, E. Caldeweyher, S. Ehlert, S. Grimme, ChemRxiv, 2019, preprint.
     DOI: 10.26434/chemrxiv.8326202.v1
   for GFN-FF:
   * S. Spicher and S. Grimme, Angew. Chem. Int. Ed., 2020, 59, 15665-15673.
     DOI: 10.1002/anie.202004239
   
   for ALPB and GBSA implicit solvation:
   * S. Ehlert, M. Stahn, S. Spicher, S. Grimme, J. Chem. Theory Comput.,
     2021, 17, 4250-4261. DOI: 10.1021/acs.jctc.1c00471
   
   for ddCOSMO and CPCM-X implicit solvation:
   * M. Stahn, S. Ehlert, S. Grimme, J. Phys. Chem. A,
     2023, XX, XXXX-XXXX. DOI: 10.1021/acs.jpca.3c04382
   
   for DFT-D4:
   * E. Caldeweyher, C. Bannwarth and S. Grimme, J. Chem. Phys., 2017,
     147, 034112. DOI: 10.1063/1.4993215
   * E. Caldeweyher, S. Ehlert, A. Hansen, H. Neugebauer, S. Spicher,
     C. Bannwarth and S. Grimme, J. Chem. Phys., 2019, 150, 154122.
     DOI: 10.1063/1.5090222
   * E. Caldeweyher, J.-M. Mewes, S. Ehlert and S. Grimme, Phys. Chem. Chem. Phys.
     2020, 22, 8499-8512. DOI: 10.1039/D0CP00502A
   
   for sTDA-xTB:
   * S. Grimme and C. Bannwarth, J. Chem. Phys., 2016, 145, 054103.
     DOI: 10.1063/1.4959605
   
   in the mass-spec context:
   * V. Asgeirsson, C. Bauer and S. Grimme, Chem. Sci., 2017, 8, 4879.
     DOI: 10.1039/c7sc00601b
   * J. Koopman and S. Grimme, ACS Omega 2019, 4, 12, 15120-15133.
     DOI: 10.1021/acsomega.9b02011
   
   for metadynamics refer to:
   * S. Grimme, J. Chem. Theory Comput., 2019, 155, 2847-2862
     DOI: 10.1021/acs.jctc.9b00143
   
   for SPH calculations refer to:
   * S. Spicher and S. Grimme, J. Chem. Theory Comput., 2021, 17, 1701-1714
     DOI: 10.1021/acs.jctc.0c01306
   
   for ONIOM refer to:
   * C. Plett, A. Katbashev, S. Ehlert, S. Grimme, M. Bursch,
     Phys. Chem. Chem. Phys., 2023, 25, 17860-17868. DOI: 10.1039/D3CP02178E
   
   for DIPRO refer to:
   * J. Kohn, N. Gildemeister, S. Grimme, D. Fazzi, A. Hansen,
     J. Chem. Phys., 2023, just accepted.
   
   for PTB refer to:
   * S. Grimme, M. Mueller, A. Hansen, J. Chem. Phys., 2023, 158, 124111.
     DOI: 10.1063/5.0137838
   
   with help from (in alphabetical order)
   P. Atkinson, C. Bannwarth, F. Bohle, G. Brandenburg, E. Caldeweyher
   M. Checinski, S. Dohm, S. Ehlert, S. Ehrlich, I. Gerasimov, C. Hölzer
   A. Katbashev, J. Kohn, J. Koopman, C. Lavigne, S. Lehtola, F. März, M. Müller,
   F. Musil, H. Neugebauer, J. Pisarek, C. Plett, P. Pracht, F. Pultar,
   J. Seibert, P. Shushkov, S. Spicher, M. Stahn, M. Steiner, T. Strunk,
   J. Stückrath, T. Rose, and J. Unsleber
   
 * started run on 2025/04/11 at 12:31:04.386     
   ID    Z sym.   atoms
    1    6 C      1-3, 5, 6
    2    1 H      4, 8-18
    3    8 O      7

           -------------------------------------------------
          |                Calculation Setup                |
           -------------------------------------------------

          program call               : /srv/scratch/z5358697/.xtb/bin/xtb xtb_rrho.coord --gfn2 --bhess vtight --chrg 0 --enso --norestart -I rrho-xcontrol-inp --parallel 1 --alpb water
          hostname                   : k114
          coordinate file            : xtb_rrho.coord
          omp threads                :                     1


           -------------------------------------------------
          |                 G F N 2 - x T B                 |
           -------------------------------------------------

        Reference                      10.1021/acs.jctc.8b01176
      * Hamiltonian:
        H0-scaling (s, p, d)           1.850000    2.230000    2.230000
        zeta-weighting                 0.500000
      * Dispersion:
        s8                             2.700000
        a1                             0.520000
        a2                             5.000000
        s9                             5.000000
      * Repulsion:
        kExp                           1.500000    1.000000
        rExp                           1.000000
      * Coulomb:
        alpha                          2.000000
        third order                    shell-resolved
        anisotropic                    true
        a3                             3.000000
        a5                             4.000000
        cn-shift                       1.200000
        cn-exp                         4.000000
        max-rad                        5.000000

      * Solvation model:               ALPB
        Solvent                        water
        Parameter file                 internal GFN2-xTB/ALPB
        Dielectric constant                8.0200E+01
        Reference state                gsolv [1 M gas/solution]
        Free energy shift                  1.0808E-03 Eh       6.7819E-01 kcal/mol
        Temperature                        2.9815E+02 K
        Density                            1.0000E+00 kg/L
        Solvent mass                       1.8000E+01 g/mol
        Interaction kernel             P16
        Born radius scaling (c1)           1.4744E+00
        Born radii integrator          GBOBC
        Born offset                        0.0000E+00 a0       0.0000E+00 AA
        H-bond correction              true
        Ion screening                  false
        Surface tension                    1.0000E-05 Eh       1.5569E+01 dyn/cm
        Grid points                               974 per atom

          ...................................................
          :                      SETUP                      :
          :.................................................:
          :  # basis functions                  36          :
          :  # atomic orbitals                  36          :
          :  # shells                           24          :
          :  # electrons                        38          :
          :  max. iterations                   250          :
          :  Hamiltonian                  GFN2-xTB          :
          :  restarted?                      false          :
          :  GBSA solvation                   true          :
          :  PC potential                    false          :
          :  electronic temp.          300.0000000     K    :
          :  accuracy                    1.0000000          :
          :  -> integral cutoff          0.2500000E+02      :
          :  -> integral neglect         0.1000000E-07      :
          :  -> SCF convergence          0.1000000E-05 Eh   :
          :  -> wf. convergence          0.1000000E-03 e    :
          :  Broyden damping             0.4000000          :
          :  net charge                          0          :
          :  unpaired electrons                  0          :
          ...................................................

 iter      E             dE          RMSdq      gap      omega  full diag
   1    -21.1100232 -0.211100E+02  0.321E+00   11.74       0.0  T
   2    -21.1401686 -0.301454E-01  0.168E+00   11.57       1.0  T
   3    -21.1410339 -0.865324E-03  0.607E-01   11.56       1.0  T
   4    -21.1411919 -0.157977E-03  0.107E-01   11.56       1.0  T
   5    -21.1412021 -0.101770E-04  0.598E-02   11.57       1.0  T
   6    -21.1412037 -0.166559E-05  0.951E-03   11.57       2.5  T
   7    -21.1412040 -0.311427E-06  0.481E-03   11.57       4.9  T
   8    -21.1412041 -0.571465E-07  0.199E-03   11.57      11.8  T
   9    -21.1412041 -0.508358E-08  0.638E-04   11.57      36.9  T
  10    -21.1412041 -0.976971E-09  0.169E-04   11.57     139.3  T

   *** convergence criteria satisfied after 10 iterations ***

         #    Occupation            Energy/Eh            Energy/eV
      -------------------------------------------------------------
         1        2.0000           -0.6839446             -18.6111
       ...           ...                  ...                  ...
        13        2.0000           -0.4650444             -12.6545
        14        2.0000           -0.4534381             -12.3387
        15        2.0000           -0.4504984             -12.2587
        16        2.0000           -0.4381138             -11.9217
        17        2.0000           -0.4285936             -11.6626
        18        2.0000           -0.4213560             -11.4657
        19        2.0000           -0.4051590             -11.0249 (HOMO)
        20                          0.0199833               0.5438 (LUMO)
        21                          0.0612240               1.6660
        22                          0.0881203               2.3979
        23                          0.1130309               3.0757
        24                          0.1285576               3.4982
       ...                                ...                  ...
        36                          0.3035609               8.2603
      -------------------------------------------------------------
                  HL-Gap            0.4251423 Eh           11.5687 eV
             Fermi-level           -0.1925878 Eh           -5.2406 eV

 SCC (total)                   0 d,  0 h,  0 min,  0.012 sec
 SCC setup                      ...        0 min,  0.001 sec (  9.352%)
 Dispersion                     ...        0 min,  0.000 sec (  0.820%)
 classical contributions        ...        0 min,  0.000 sec (  0.211%)
 integral evaluation            ...        0 min,  0.001 sec ( 10.214%)
 iterations                     ...        0 min,  0.006 sec ( 47.021%)
 molecular gradient             ...        0 min,  0.004 sec ( 30.835%)
 printout                       ...        0 min,  0.000 sec (  1.402%)

         :::::::::::::::::::::::::::::::::::::::::::::::::::::
         ::                     SUMMARY                     ::
         :::::::::::::::::::::::::::::::::::::::::::::::::::::
         :: total energy             -20.890418573989 Eh    ::
         :: total w/o Gsasa/hb       -20.888377875827 Eh    ::
         :: gradient norm              0.027106321501 Eh/a0 ::
         :: HOMO-LUMO gap             11.568710700966 eV    ::
         ::.................................................::
         :: SCC energy               -21.141167208311 Eh    ::
         :: -> isotropic ES            0.035396002202 Eh    ::
         :: -> anisotropic ES          0.004587216738 Eh    ::
         :: -> anisotropic XC          0.008554176887 Eh    ::
         :: -> dispersion             -0.010050142422 Eh    ::
         :: -> Gsolv                  -0.006518193011 Eh    ::
         ::    -> Gelec               -0.004477494848 Eh    ::
         ::    -> Gsasa                0.000633067473 Eh    ::
         ::    -> Ghb                 -0.003754525334 Eh    ::
         ::    -> Gshift               0.001080759698 Eh    ::
         :: repulsion energy           0.250748634322 Eh    ::
         :: add. restraining           0.000000000000 Eh    ::
         :: total charge              -0.000000000000 e     ::
         :::::::::::::::::::::::::::::::::::::::::::::::::::::

metadynamics with 1 initial structures loaded
           -------------------------------------------------
          |           Optimal kpush determination           |
           -------------------------------------------------
      ----------------------------------------------------------- 
     |                   =====================                   |
     |                        A N C O P T                        |
     |                   =====================                   |
     |               Approximate Normal Coordinate               |
     |                Rational Function Optimizer                |
      ----------------------------------------------------------- 
target rmsd / Å         0.100000
unbiased initial rmsd   0.068717
 
iter. min.        max.        rmsd       kpush
final kpush:  0.000000
           -------------------------------------------------
          |            Biased Numerical Hessian             |
           -------------------------------------------------
kpush                :   0.00000
alpha                :   1.00000
step length          :   0.00500
SCC accuracy         :   0.30000
Hessian scale factor :   1.00000
frozen atoms in %    :   0.00000    0
RMS gradient         :   0.00005
estimated CPU  time      0.01 min
estimated wall time      0.01 min

writing file <hessian>.

 projected vibrational frequencies (cm⁻¹)
eigval :       -0.00    -0.00    -0.00    -0.00     0.00     0.00
eigval :       86.04   111.98   193.44   221.13   238.32   298.21
eigval :      347.83   384.65   442.21   502.70   811.26   836.11
eigval :      924.38   945.66  1008.01  1042.50  1067.39  1077.58
eigval :     1108.87  1137.62  1170.19  1199.44  1251.33  1288.51
eigval :     1298.62  1319.50  1353.42  1364.43  1410.64  1415.31
eigval :     1474.84  1494.80  1496.38  1497.98  1503.93  1509.95
eigval :     2872.37  2941.30  2954.57  2962.71  2981.29  3024.77
eigval :     3026.81  3031.08  3032.36  3042.40  3045.68  3503.48
           -------------------------------------------------
          |                Property Printout                |
           -------------------------------------------------

    * Orbital Energies and Occupations

         #    Occupation            Energy/Eh            Energy/eV
      -------------------------------------------------------------
         1        2.0000           -0.6872807             -18.7019
       ...           ...                  ...                  ...
         7        2.0000           -0.5569703             -15.1559
         8        2.0000           -0.5216103             -14.1937
         9        2.0000           -0.5142838             -13.9944
        10        2.0000           -0.4970221             -13.5247
        11        2.0000           -0.4879729             -13.2784
        12        2.0000           -0.4810757             -13.0907
        13        2.0000           -0.4655005             -12.6669
        14        2.0000           -0.4538704             -12.3504
        15        2.0000           -0.4500991             -12.2478
        16        2.0000           -0.4369207             -11.8892
        17        2.0000           -0.4277149             -11.6387
        18        2.0000           -0.4213572             -11.4657
        19        2.0000           -0.4032446             -10.9728 (HOMO)
        20                          0.0405217               1.1027 (LUMO)
        21                          0.0732166               1.9923
        22                          0.0894310               2.4335
        23                          0.1163570               3.1662
        24                          0.1329573               3.6180
        25                          0.1435698               3.9067
        26                          0.1598775               4.3505
        27                          0.1807618               4.9188
        28                          0.1862284               5.0675
        29                          0.1959922               5.3332
        30                          0.2101374               5.7181
       ...                                ...                  ...
        36                          0.3140993               8.5471
      -------------------------------------------------------------
                  HL-Gap            0.4437663 Eh           12.0755 eV
             Fermi-level           -0.1813614 Eh           -4.9351 eV

     #   Z          covCN         q      C6AA      α(0)
     1   6 C        3.751    -0.113    22.722     6.798
     2   6 C        3.802    -0.063    21.704     6.633
     3   6 C        3.848    -0.033    21.121     6.537
     4   1 H        0.924     0.042     2.422     2.434
     5   6 C        3.757    -0.120    22.860     6.817
     6   6 C        3.678     0.078    19.486     6.324
     7   8 O        1.655    -0.508    23.056     6.482
     8   1 H        0.925     0.038     2.479     2.462
     9   1 H        0.925     0.036     2.501     2.473
    10   1 H        0.925     0.043     2.408     2.427
    11   1 H        0.924     0.032     2.560     2.502
    12   1 H        0.924     0.040     2.452     2.449
    13   1 H        0.925     0.039     2.459     2.452
    14   1 H        0.925     0.041     2.435     2.440
    15   1 H        0.925     0.048     2.339     2.392
    16   1 H        0.923     0.019     2.744     2.590
    17   1 H        0.924     0.039     2.467     2.456
    18   1 H        0.805     0.341     0.611     1.228

 Mol. C6AA /au·bohr⁶  :       2117.469544
 Mol. C8AA /au·bohr⁸  :      43661.151704
 Mol. α(0) /au        :         67.895294


Wiberg/Mayer (AO) data.
largest (>0.10) Wiberg bond orders for each atom

 ---------------------------------------------------------------------------
     #   Z sym  total        # sym  WBO       # sym  WBO       # sym  WBO
 ---------------------------------------------------------------------------
     1   6 C    3.996 --     2 C    1.020     9 H    0.988     8 H    0.987
                            10 H    0.984
     2   6 C    3.997 --     1 C    1.020     3 C    0.995    12 H    0.977
                            11 H    0.976
     3   6 C    3.994 --     5 C    1.009     2 C    0.995     6 C    0.985
                             4 H    0.968
     4   1 H    0.998 --     3 C    0.968
     5   6 C    3.995 --     3 C    1.009    14 H    0.987    13 H    0.986
                            15 H    0.985
     6   6 C    3.951 --     7 O    0.994     3 C    0.985    17 H    0.973
                            16 H    0.971
     7   8 O    1.922 --     6 C    0.994    18 H    0.867
     8   1 H    0.998 --     1 C    0.987
     9   1 H    0.999 --     1 C    0.988
    10   1 H    0.998 --     1 C    0.984
    11   1 H    0.999 --     2 C    0.976
    12   1 H    0.998 --     2 C    0.977
    13   1 H    0.998 --     5 C    0.986
    14   1 H    0.998 --     5 C    0.987
    15   1 H    0.998 --     5 C    0.985
    16   1 H    1.000 --     6 C    0.971
    17   1 H    0.999 --     6 C    0.973
    18   1 H    0.884 --     7 O    0.867
 ---------------------------------------------------------------------------

Topologies differ in total number of bonds
Writing topology from bond orders to xtbtopo.mol

molecular dipole:
                 x           y           z       tot (Debye)
 q only:       -0.563      -0.138      -0.444
   full:       -0.640      -0.154      -0.586       2.239
molecular quadrupole (traceless):
                xx          xy          yy          xz          yz          zz
 q only:       -3.200      -1.665       2.845      -1.817      -1.778       0.355
  q+dip:       -3.445      -2.379       1.405      -2.547      -2.981       2.041
   full:       -3.737      -2.384       2.379      -2.409      -2.753       1.358

           -------------------------------------------------
          |                Geometry Summary                 |
           -------------------------------------------------

      molecular mass/u    :       88.1483734
   center of mass at/Å    :       -0.0000039      -0.0003745       0.0013420
  moments of inertia/u·Å² :        0.1499289E+03   0.1553852E+03   0.2759199E+03
rotational constants/cm⁻¹ :        0.1124375E+00   0.1084893E+00   0.6109611E-01

 * 17 selected distances

     #   Z          #   Z                                           value/Å
     1   6 C        2   6 C                                       1.5267738
     2   6 C        3   6 C                                       1.5385976 (max)
     3   6 C        4   1 H                                       1.0947450
     3   6 C        5   6 C                                       1.5277327
     3   6 C        6   6 C                                       1.5371316
     6   6 C        7   8 O                                       1.4117898
     1   6 C        8   1 H                                       1.0876470
     1   6 C        9   1 H                                       1.0879084
     1   6 C       10   1 H                                       1.0868224
     2   6 C       11   1 H                                       1.0929297
     2   6 C       12   1 H                                       1.0916977
     5   6 C       13   1 H                                       1.0872867
     5   6 C       14   1 H                                       1.0878228
     5   6 C       15   1 H                                       1.0867429
     6   6 C       16   1 H                                       1.0988428
     6   6 C       17   1 H                                       1.0933892
     7   8 O       18   1 H                                       0.9666628 (min)

 * 4 distinct bonds (by element types)

   Z      Z             #   av. dist./Å        max./Å        min./Å
   1 H    6 C          11     1.0905304     1.0988428     1.0867429
   6 C    6 C           4     1.5325589     1.5385976     1.5267738
   1 H    8 O           1     0.9666628     0.9666628     0.9666628
   6 C    8 O           1     1.4117898     1.4117898     1.4117898

           -------------------------------------------------
          |               Frequency Printout                |
           -------------------------------------------------
 projected vibrational frequencies (cm⁻¹)
eigval :       -0.00    -0.00    -0.00    -0.00     0.00     0.00
eigval :       86.04   111.98   193.44   221.13   238.32   298.21
eigval :      347.83   384.65   442.21   502.70   811.26   836.11
eigval :      924.38   945.66  1008.01  1042.50  1067.39  1077.58
eigval :     1108.87  1137.62  1170.19  1199.44  1251.33  1288.51
eigval :     1298.62  1319.50  1353.42  1364.43  1410.64  1415.31
eigval :     1474.84  1494.80  1496.38  1497.98  1503.93  1509.95
eigval :     2872.37  2941.30  2954.57  2962.71  2981.29  3024.77
eigval :     3026.81  3031.08  3032.36  3042.40  3045.68  3503.48
 reduced masses (amu)
   1: 11.52   2: 10.35   3:  9.79   4: 11.61   5: 10.10   6: 11.10   7:  9.11   8:  7.74
   9:  4.38  10:  1.61  11:  7.83  12:  5.66  13:  7.51  14:  5.98  15:  7.74  16: 10.17
  17:  3.66  18:  6.37  19:  3.42  20:  6.29  21:  3.23  22:  4.98  23: 11.27  24:  9.30
  25:  4.02  26:  8.32  27:  6.44  28:  5.69  29:  3.14  30:  3.96  31:  3.29  32:  3.13
  33:  4.04  34:  4.77  35:  3.11  36:  3.10  37:  1.81  38:  1.69  39:  1.53  40:  1.59
  41:  1.65  42:  1.64  43:  1.74  44:  1.75  45:  1.92  46:  1.68  47:  1.55  48:  1.95
  49:  1.91  50:  1.72  51:  1.89  52:  1.34  53:  1.48  54:  1.88
 IR intensities (km·mol⁻¹)
   1:  0.72   2:  0.11   3:  0.81   4:  0.43   5:  0.37   6:  0.01   7:  8.89   8:  3.65
   9:  0.61  10:  0.71  11:  2.18  12: 62.17  13: 22.42  14:157.47  15:  1.99  16:  5.46
  17:  8.03  18:  9.55  19:  6.25  20: 15.32  21: 13.01  22: 15.63  23:153.50  24:  4.32
  25: 10.51  26:  1.15  27:  0.69  28: 18.62  29: 11.08  30:  6.02  31: 26.81  32: 29.37
  33: 25.43  34:  6.52  35:  2.09  36:  0.78  37:  2.40  38:  0.82  39:  1.40  40:  1.17
  41:  1.05  42:  0.59  43:103.74  44: 57.25  45: 82.74  46: 80.94  47: 51.21  48: 67.32
  49: 93.39  50: 61.14  51: 77.55  52: 47.14  53: 37.65  54: 62.10
 Raman intensities (Ä⁴*amu⁻¹)
   1:  0.00   2:  0.00   3:  0.00   4:  0.00   5:  0.00   6:  0.00   7:  0.00   8:  0.00
   9:  0.00  10:  0.00  11:  0.00  12:  0.00  13:  0.00  14:  0.00  15:  0.00  16:  0.00
  17:  0.00  18:  0.00  19:  0.00  20:  0.00  21:  0.00  22:  0.00  23:  0.00  24:  0.00
  25:  0.00  26:  0.00  27:  0.00  28:  0.00  29:  0.00  30:  0.00  31:  0.00  32:  0.00
  33:  0.00  34:  0.00  35:  0.00  36:  0.00  37:  0.00  38:  0.00  39:  0.00  40:  0.00
  41:  0.00  42:  0.00  43:  0.00  44:  0.00  45:  0.00  46:  0.00  47:  0.00  48:  0.00
  49:  0.00  50:  0.00  51:  0.00  52:  0.00  53:  0.00  54:  0.00
 output can be read by thermo (or use thermo option).
 writing <g98.out> molden fake output.
 recommended (thermochemical) frequency scaling factor: 1.0
           -------------------------------------------------
          |             Thermodynamic Functions             |
           -------------------------------------------------

Molecule has no symmetry elements
It seems to be the C1 point group
c1  symmetry found (for desy threshold:  0.10E+00) used in thermo

          ...................................................
          :                      SETUP                      :
          :.................................................:
          :  # frequencies                          48      :
          :  # imaginary freq.                       0      :
          :  linear?                             false      :
          :  only rotor calc.                    false      :
          :  symmetry                               c1      :
          :  rotational number                       1      :
          :  scaling factor                  1.0000000      :
          :  rotor cutoff                    0.0000000 cm⁻¹ :
          :  imag. cutoff                 -100.0000000 cm⁻¹ :
          :.................................................:

    mode    ω/cm⁻¹     T·S(HO)/kcal·mol⁻¹    T·S(FR)/kcal·mol⁻¹   T·S(vib)
   ------------------------------------------------------------------------
       1     86.04    -1.11748 (100.00%)    -0.89544 (  0.00%)    -1.11748
       2    111.98    -0.96428 (100.00%)    -0.81745 (  0.00%)    -0.96428
       3    193.44    -0.65431 (100.00%)    -0.65561 (  0.00%)    -0.65431
       4    221.13    -0.58134 (100.00%)    -0.61601 (  0.00%)    -0.58134
       5    238.32    -0.54127 (100.00%)    -0.59384 (  0.00%)    -0.54127
       6    298.21    -0.42544 (100.00%)    -0.52744 (  0.00%)    -0.42544
   ------------------------------------------------------------------------

   temp. (K)  partition function   enthalpy   heat capacity  entropy
                                   cal/mol     cal/K/mol   cal/K/mol   J/K/mol
 298.15  VIB   69.3                 3282.208     22.635     19.433
         ROT  0.194E+06              888.752      2.981     27.174
         INT  0.134E+08             4170.960     25.616     46.607
         TR   0.801E+27             1481.254      4.968     39.324
         TOT                        5652.2139    30.5845    85.9307   359.5339

       T/K    H(0)-H(T)+PV         H(T)/Eh          T*S/Eh         G(T)/Eh
   ------------------------------------------------------------------------
    298.15    0.900738E-02    0.171336E+00    0.408284E-01    0.130508E+00
   ------------------------------------------------------------------------

         :::::::::::::::::::::::::::::::::::::::::::::::::::::
         ::                  THERMODYNAMIC                  ::
         :::::::::::::::::::::::::::::::::::::::::::::::::::::
         :: total free energy         -20.761090368386 Eh   ::
         ::.................................................::
         :: total energy              -20.891597916063 Eh   ::
         :: zero point energy           0.162328606364 Eh   ::
         :: G(RRHO) w/o ZPVE           -0.031821058688 Eh   ::
         :: G(RRHO) contrib.            0.130507547676 Eh   ::
         :::::::::::::::::::::::::::::::::::::::::::::::::::::

optimized geometry written to: xtbopt.coord


           -------------------------------------------------
          | TOTAL ENERGY              -20.891597916063 Eh   |
          | TOTAL ENTHALPY            -20.720261933457 Eh   |
          | TOTAL FREE ENERGY         -20.761090368386 Eh   |
          | GRADIENT NORM               0.000046905482 Eh/α |
          | HOMO-LUMO GAP              12.075496991609 eV   |
           -------------------------------------------------

------------------------------------------------------------------------
 * finished run on 2025/04/11 at 12:31:05.475     
------------------------------------------------------------------------
 total:
 * wall-time:     0 d,  0 h,  0 min,  1.089 sec
 *  cpu-time:     0 d,  0 h,  0 min,  0.978 sec
 * ratio c/w:     0.898 speedup
 SCF:
 * wall-time:     0 d,  0 h,  0 min,  0.012 sec
 *  cpu-time:     0 d,  0 h,  0 min,  0.012 sec
 * ratio c/w:     0.987 speedup
 analytical hessian:
 * wall-time:     0 d,  0 h,  0 min,  0.843 sec
 *  cpu-time:     0 d,  0 h,  0 min,  0.831 sec
 * ratio c/w:     0.986 speedup

