
                                 *****************
                                 * O   R   C   A *
                                 *****************

                                            #,                                       
                                            ###                                      
                                            ####                                     
                                            #####                                    
                                            ######                                   
                                           ########,                                 
                                     ,,################,,,,,                         
                               ,,#################################,,                 
                          ,,##########################################,,             
                       ,#########################################, ''#####,          
                    ,#############################################,,   '####,        
                  ,##################################################,,,,####,       
                ,###########''''           ''''###############################       
              ,#####''   ,,,,##########,,,,          '''####'''          '####       
            ,##' ,,,,###########################,,,                        '##       
           ' ,,###''''                  '''############,,,                           
         ,,##''                                '''############,,,,        ,,,,,,###''
      ,#''                                            '''#######################'''  
     '                                                          ''''####''''         
             ,#######,   #######,   ,#######,      ##                                
            ,#'     '#,  ##    ##  ,#'     '#,    #''#        ,####,   ,####,        
            ##       ##  ##   ,#'  ##            #'  '#       #'       #'  '#        
            ##       ##  #######   ##           ,######,      #####,   #    #        
            '#,     ,#'  ##    ##  '#,     ,#' ,#      #,     #,   #   #,  ,#        
             '#######'   ##     ##  '#######'  #'      '#     '####' # '####'        



                #########################################################
                #                        -***-                          #
                #          Department of theory and spectroscopy        #
                #                                                       #
                #                      Frank Neese                      #
                #                                                       #
                #     Directorship, Architecture, Infrastructure        #
                #                    SHARK, DRIVERS                     #
                #        Core code/Algorithms in most modules           #
                #                                                       #
                #        Max Planck Institute fuer Kohlenforschung      #
                #                Kaiser Wilhelm Platz 1                 #
                #                 D-45470 Muelheim/Ruhr                 #
                #                      Germany                          #
                #                                                       #
                #                  All rights reserved                  #
                #                        -***-                          #
                #########################################################


                         Program Version 6.0.0  -   RELEASE  -


 With contributions from (in alphabetic order):
   Daniel Aravena         : Magnetic Suceptibility
   Michael Atanasov       : Ab Initio Ligand Field Theory (pilot matlab implementation)
   Alexander A. Auer      : GIAO ZORA, VPT2 properties, NMR spectrum
   Ute Becker             : All parallelization in ORCA, NUMFREQ, NUMCALC
   Giovanni Bistoni       : ED, misc. LED, open-shell LED, HFLD
   Martin Brehm           : Molecular dynamics
   Dmytro Bykov           : pre 5.0 version of the SCF Hessian
   Marcos Casanova-Páez   : Triplet and SCS-CIS(D). UHF-(DLPNO)-IP/EA/STEOM-CCSD. UHF-CVS-IP/STEOM-CCSD
   Vijay G. Chilkuri      : MRCI spin determinant printing, contributions to CSF-ICE
   Pauline Colinet        : FMM embedding
   Dipayan Datta          : RHF DLPNO-CCSD density
   Achintya Kumar Dutta   : EOM-CC, STEOM-CC
   Nicolas Foglia         : Exact transition moments, OPA infrastructure, MCD improvements
   Dmitry Ganyushin       : Spin-Orbit,Spin-Spin,Magnetic field MRCI
   Miquel Garcia          : C-PCM and meta-GGA Hessian, CCSD/C-PCM, Gaussian charge scheme
   Tiago L. C. Gouveia    : GS-ROHF, GS-ROCIS
   Yang Guo               : DLPNO-NEVPT2, F12-NEVPT2, CIM, IAO-localization
   Andreas Hansen         : Spin unrestricted coupled pair/coupled cluster methods
   Ingolf Harden          : AUTO-CI MPn and infrastructure 
   Benjamin Helmich-Paris : MC-RPA, TRAH-(SCF,CASSCF), AVAS, COSX integrals, SCF dyn. polar.
   Lee Huntington         : MR-EOM, pCC
   Robert Izsak           : Overlap fitted RIJCOSX, COSX-SCS-MP3, EOM
   Riya Kayal             : Wick's Theorem for AUTO-CI, AUTO-CI UHF-CCSDT
   Emily Kempfer          : AUTO-CI, RHF CISDT and CCSDT
   Christian Kollmar      : KDIIS, OOCD, Brueckner-CCSD(T), CCSD density, CASPT2, CASPT2-K, improved NEVPT2
   Axel Koslowski         : Symmetry handling
   Simone Kossmann        : Meta GGA functionals, TD-DFT gradient, OOMP2, (MP2 Hessian; deprecated post 5.0)
   Lucas Lang             : DCDCAS
   Marvin Lechner         : AUTO-CI (C++ implementation), FIC-MRCC
   Spencer Leger          : CASSCF response
   Dagmar Lenk            : GEPOL surface, SMD, ORCA-2-JSON
   Dimitrios Liakos       : Extrapolation schemes; Compound Job, initial MDCI parallelization
   Dimitrios Manganas     : Further ROCIS development; embedding schemes. LFT, Crystal Embedding
   Dimitrios Pantazis     : SARC Basis sets
   Anastasios Papadopoulos: AUTO-CI, single reference methods and gradients
   Taras Petrenko         : pre 6.0 DFT Hessian and TD-DFT gradient, (ASA, deprecated), ECA, 1-Electron XAS/XES, NRVS
   Peter Pinski           : DLPNO-MP2, DLPNO-MP2 Gradient
   Christoph Reimann      : Effective Core Potentials
   Marius Retegan         : Local ZFS, SOC
   Christoph Riplinger    : Optimizer, TS searches, QM/MM, DLPNO-CCSD(T), (RO)-DLPNO pert. Triples
   Michael Roemelt        : Original ROCIS implementation
   Masaaki Saitow         : Open-shell DLPNO-CCSD energy and density
   Barbara Sandhoefer     : DKH picture change effects
   Kantharuban Sivalingam : CASSCF convergence/infrastructure, NEVPT2 and variants, FIC-MRCI
   Bernardo de Souza      : ESD, SOC TD-DFT
   Georgi Stoychev        : AutoAux, RI-MP2 NMR, DLPNO-MP2 response, X2C
   Van Anh Tran           : RI-MP2 g-tensors
   Willem Van den Heuvel  : Paramagnetic NMR
   Zikuan Wang            : NOTCH, Electric field optimization 
   Frank Wennmohs         : Technical directorship and infrastructure
   Hang Xu                : AUTO-CI-Response properties 


 We gratefully acknowledge several colleagues who have allowed us to
 interface, adapt or use parts of their codes:
   Stefan Grimme, W. Hujo, H. Kruse, P. Pracht,  : VdW corrections, initial TS optimization,
                  C. Bannwarth, S. Ehlert,         DFT functionals, gCP, sTDA/sTD-DF
                  L. Wittmann, M. Mueller
   Ed Valeev, F. Pavosevic, A. Kumar             : LibInt (2-el integral package), F12 methods
   Garnet Chan, S. Sharma, J. Yang, R. Olivares  : DMRG
   Ulf Ekstrom                                   : XCFun DFT Library
   Mihaly Kallay                                 : mrcc  (arbitrary order and MRCC methods)
   Frank Weinhold                                : gennbo (NPA and NBO analysis)
   Simon Mueller                                 : openCOSMO-RS
   Christopher J. Cramer and Donald G. Truhlar   : smd solvation model
   Lars Goerigk                                  : TD-DFT with DH, B97 family of functionals
   V. Asgeirsson, H. Jonsson                     : NEB implementation
   FAccTs GmbH                                   : IRC, NEB, NEB-TS, DLPNO-Multilevel, CI-OPT
                                                   MM, QMMM, 2- and 3-layer-ONIOM, Crystal-QMMM,
                                                   LR-CPCM, SF, NACMEs, symmetry and pop. for TD-DFT,
                                                   nearIR, NL-DFT gradient (VV10), updates on ESD,
                                                   ML-optimized integration grids, MBIS, APM,
                                                   GOAT, DOCKER, SOLVATOR, interface openCOSMO-RS
   S Lehtola, MJT Oliveira, MAL Marques          : LibXC Library
   Liviu Ungur et al                             : ANISO software


 Your calculation uses the libint2 library for the computation of 2-el integrals
 For citations please refer to: http://libint.valeyev.net

 Your ORCA version has been built with support for libXC version: 6.2.2
 For citations please refer to: https://libxc.gitlab.io

 This ORCA versions uses:
   CBLAS   interface :  Fast vector & matrix operations
   LAPACKE interface :  Fast linear algebra routines
   SCALAPACK package :  Parallel linear algebra routines
   Shared memory     :  Shared parallel matrices
   BLAS/LAPACK       :  OpenBLAS 0.3.27  USE64BITINT DYNAMIC_ARCH NO_AFFINITY SkylakeX SINGLE_THREADED
        Core in use  :  SkylakeX
   Copyright (c) 2011-2014, The OpenBLAS Project


Your calculation utilizes the geometrical counterpoise correction gCP
Please cite in your paper:
H.Kruse, S. Grimme J.Chem.Phys., 136, (2012), 154101 
   

Your calculation utilizes the atom-pairwise dispersion correction
based on EEQ partial charges (D4)


================================================================================

----- Orbital basis set information -----
Your calculation utilizes the basis: def2-mTZVPP
   Stefan Grimme, Andreas Hansen, Sebastian Ehlert, and Jan-Michael Mewes 
   J. Chem. Phys. 154, 064103 (2021). DOI: 10.1063/5.0040021

----- AuxJ basis set information -----
Your calculation utilizes the auxiliary basis: def2/J
   F. Weigend, Phys. Chem. Chem. Phys. 8, 1057 (2006).

================================================================================
                                        WARNINGS
                       Please study these warnings very carefully!
================================================================================

Using LibXC functional ID 497 : Re-regularized SCAN exchange by Furness et al
[ 1]  J. W. Furness, A. D. Kaplan, J. Ning, J. P. Perdew, and J. Sun.,  J. Phys. Chem. Lett. 11, 8208-8215 (2020)
[ 2]  J. W. Furness, A. D. Kaplan, J. Ning, J. P. Perdew, and J. Sun.,  J. Phys. Chem. Lett. 11, 9248-9248 (2020)
Using LibXC functional ID 498 : Re-regularized SCAN correlation by Furness et al
[ 1]  J. W. Furness, A. D. Kaplan, J. Ning, J. P. Perdew, and J. Sun.,  J. Phys. Chem. Lett. 11, 8208-8215 (2020)
[ 2]  J. W. Furness, A. D. Kaplan, J. Ning, J. P. Perdew, and J. Sun.,  J. Phys. Chem. Lett. 11, 9248-9248 (2020)
Using LibXC functional ID 497 : Re-regularized SCAN exchange by Furness et al
[ 1]  J. W. Furness, A. D. Kaplan, J. Ning, J. P. Perdew, and J. Sun.,  J. Phys. Chem. Lett. 11, 8208-8215 (2020)
[ 2]  J. W. Furness, A. D. Kaplan, J. Ning, J. P. Perdew, and J. Sun.,  J. Phys. Chem. Lett. 11, 9248-9248 (2020)
Using LibXC functional ID 498 : Re-regularized SCAN correlation by Furness et al
[ 1]  J. W. Furness, A. D. Kaplan, J. Ning, J. P. Perdew, and J. Sun.,  J. Phys. Chem. Lett. 11, 8208-8215 (2020)
[ 2]  J. W. Furness, A. D. Kaplan, J. Ning, J. P. Perdew, and J. Sun.,  J. Phys. Chem. Lett. 11, 9248-9248 (2020)

================================================================================
                                       INPUT FILE
================================================================================
NAME = sp_gas.inp
|  1> ! r2scan-3c def2/J RI DEFGRID2 scfconv6 printgap
|  2> %output
|  3>     printlevel normal
|  4> end
|  5> * xyz 0 1
|  6> C 1.9378627635 -1.020239972 0.2966636599
|  7> C 1.2474223471 0.2078743327 0.8800348129
|  8> C 0.1701660759 0.8477157343 -0.0106575836
|  9> H -0.047274421 1.8348824187 0.438242368
| 10> C -1.1912707712 0.1206621967 -0.1165432181
| 11> C -1.1159961771 -1.2327789139 -0.8208749351
| 12> C -1.8682247226 -0.0116623666 1.2451532542
| 13> O 0.7420594846 1.0502848827 -1.292922451
| 14> H 1.2936183405 -1.8924133387 0.3131423262
| 15> H 2.8295702175 -1.2444769182 0.8774475881
| 16> H 2.2334229933 -0.8214646782 -0.7297629109
| 17> H 0.8085676086 -0.0257155362 1.8493151977
| 18> H 2.008321671 0.9762943858 1.0362264932
| 19> H -1.8175866806 0.778379815 -0.7351698253
| 20> H -0.4253793824 -1.1852392384 -1.658893754
| 21> H -0.7846047856 -2.0086213177 -0.1371359793
| 22> H -2.0987265265 -1.5117520735 -1.1944320851
| 23> H -1.3346174039 -0.7171283992 1.876536152
| 24> H -2.8848104003 -0.3747752861 1.1163589912
| 25> H -1.9060232831 0.9495727602 1.7528860676
| 26> H 0.1183782271 1.5408924012 -1.8436930195
| 27> *
| 28> 
| 29>                          ****END OF INPUT****
================================================================================

                       ****************************
                       * Single Point Calculation *
                       ****************************

---------------------------------
CARTESIAN COORDINATES (ANGSTROEM)
---------------------------------
  C      1.937863   -1.020240    0.296664
  C      1.247422    0.207874    0.880035
  C      0.170166    0.847716   -0.010658
  H     -0.047274    1.834882    0.438242
  C     -1.191271    0.120662   -0.116543
  C     -1.115996   -1.232779   -0.820875
  C     -1.868225   -0.011662    1.245153
  O      0.742059    1.050285   -1.292922
  H      1.293618   -1.892413    0.313142
  H      2.829570   -1.244477    0.877448
  H      2.233423   -0.821465   -0.729763
  H      0.808568   -0.025716    1.849315
  H      2.008322    0.976294    1.036226
  H     -1.817587    0.778380   -0.735170
  H     -0.425379   -1.185239   -1.658894
  H     -0.784605   -2.008621   -0.137136
  H     -2.098727   -1.511752   -1.194432
  H     -1.334617   -0.717128    1.876536
  H     -2.884810   -0.374775    1.116359
  H     -1.906023    0.949573    1.752886
  H      0.118378    1.540892   -1.843693

----------------------------
CARTESIAN COORDINATES (A.U.)
----------------------------
  NO LB      ZA    FRAG     MASS         X           Y           Z
   0 C     6.0000    0    12.011    3.662030   -1.927974    0.560613
   1 C     6.0000    0    12.011    2.357287    0.392826    1.663025
   2 C     6.0000    0    12.011    0.321567    1.601951   -0.020140
   3 H     1.0000    0     1.008   -0.089336    3.467425    0.828158
   4 C     6.0000    0    12.011   -2.251176    0.228019   -0.220235
   5 C     6.0000    0    12.011   -2.108927   -2.329615   -1.551229
   6 C     6.0000    0    12.011   -3.530433   -0.022039    2.352999
   7 O     8.0000    0    15.999    1.402289    1.984751   -2.443269
   8 H     1.0000    0     1.008    2.444584   -3.576143    0.591753
   9 H     1.0000    0     1.008    5.347113   -2.351721    1.658136
  10 H     1.0000    0     1.008    4.220558   -1.552343   -1.379052
  11 H     1.0000    0     1.008    1.527971   -0.048595    3.494699
  12 H     1.0000    0     1.008    3.795178    1.844929    1.958184
  13 H     1.0000    0     1.008   -3.434741    1.470925   -1.389270
  14 H     1.0000    0     1.008   -0.803851   -2.239778   -3.134855
  15 H     1.0000    0     1.008   -1.482688   -3.795744   -0.259149
  16 H     1.0000    0     1.008   -3.966018   -2.856797   -2.257150
  17 H     1.0000    0     1.008   -2.522061   -1.355176    3.546139
  18 H     1.0000    0     1.008   -5.451502   -0.708223    2.109613
  19 H     1.0000    0     1.008   -3.601862    1.794432    3.312475
  20 H     1.0000    0     1.008    0.223702    2.911865   -3.484075

--------------------------------
INTERNAL COORDINATES (ANGSTROEM)
--------------------------------
 C      0   0   0     0.000000000000     0.00000000     0.00000000
 C      1   0   0     1.524891673582     0.00000000     0.00000000
 C      2   1   0     1.537273898245   115.52116584     0.00000000
 H      3   2   1     1.106024230760   105.90823363   193.17487722
 C      3   2   1     1.547038752835   117.43451080    75.19012287
 C      5   3   2     1.527596894456   113.86472621   293.41611814
 C      5   3   2     1.526431696815   111.71344636    59.97227164
 O      3   2   1     1.418555434576   107.49692333   309.10605849
 H      1   2   3     1.084439396458   111.89666917   286.18749174
 H      1   2   3     1.087535913345   109.45126459   166.19496991
 H      1   2   3     1.086470879549   109.70928991    47.11074772
 H      2   1   3     1.089340246532   110.49409585   124.05180392
 H      2   1   3     1.092626651749   107.80503443   241.50916023
 H      5   3   2     1.098891697541   104.99991879   176.23414647
 H      6   5   3     1.086962335456   110.36701367   321.15521967
 H      6   5   3     1.085933077852   110.96072248    81.88058491
 H      6   5   3     1.087717751866   109.94161214   201.26450498
 H      7   5   3     1.086767434807   110.90334849   290.13701145
 H      7   5   3     1.087145525951   109.75347458   170.72765675
 H      7   5   3     1.087747355765   110.80594967    50.86875421
 H      8   3   2     0.965930777691   109.12539790   186.25194365

---------------------------
INTERNAL COORDINATES (A.U.)
---------------------------
 C      0   0   0     0.000000000000     0.00000000     0.00000000
 C      1   0   0     2.881627646967     0.00000000     0.00000000
 C      2   1   0     2.905026660508   115.52116584     0.00000000
 H      3   2   1     2.090082893617   105.90823363   193.17487722
 C      3   2   1     2.923479561420   117.43451080    75.19012287
 C      5   3   2     2.886739773550   113.86472621   293.41611814
 C      5   3   2     2.884537869118   111.71344636    59.97227164
 O      3   2   1     2.680681277135   107.49692333   309.10605849
 H      1   2   3     2.049293468141   111.89666917   286.18749174
 H      1   2   3     2.055145037026   109.45126459   166.19496991
 H      1   2   3     2.053132414829   109.70928991    47.11074772
 H      2   1   3     2.058554732604   110.49409585   124.05180392
 H      2   1   3     2.064765138429   107.80503443   241.50916023
 H      5   3   2     2.076604359193   104.99991879   176.23414647
 H      6   5   3     2.054061131898   110.36701367   321.15521967
 H      6   5   3     2.052116116906   110.96072248    81.88058491
 H      6   5   3     2.055488662032   109.94161214   201.26450498
 H      7   5   3     2.053692823049   110.90334849   290.13701145
 H      7   5   3     2.054407311764   109.75347458   170.72765675
 H      7   5   3     2.055544605292   110.80594967    50.86875421
 H      8   3   2     1.825344634162   109.12539790   186.25194365

---------------------
BASIS SET INFORMATION
---------------------
There are 3 groups of distinct atoms

 Group   1 Type C   : 11s6p1d contracted to 5s3p1d pattern {62111/411/1}
 Group   2 Type H   : 4s1p contracted to 2s1p pattern {31/1}
 Group   3 Type O   : 11s6p2d contracted to 5s3p2d pattern {62111/411/11}

Atom   0C    basis set group =>   1
Atom   1C    basis set group =>   1
Atom   2C    basis set group =>   1
Atom   3H    basis set group =>   2
Atom   4C    basis set group =>   1
Atom   5C    basis set group =>   1
Atom   6C    basis set group =>   1
Atom   7O    basis set group =>   3
Atom   8H    basis set group =>   2
Atom   9H    basis set group =>   2
Atom  10H    basis set group =>   2
Atom  11H    basis set group =>   2
Atom  12H    basis set group =>   2
Atom  13H    basis set group =>   2
Atom  14H    basis set group =>   2
Atom  15H    basis set group =>   2
Atom  16H    basis set group =>   2
Atom  17H    basis set group =>   2
Atom  18H    basis set group =>   2
Atom  19H    basis set group =>   2
Atom  20H    basis set group =>   2
---------------------------------
AUXILIARY/J BASIS SET INFORMATION
---------------------------------
There are 3 groups of distinct atoms

 Group   1 Type C   : 12s5p4d2f1g contracted to 6s4p3d1f1g pattern {711111/2111/211/2/1}
 Group   2 Type H   : 5s2p1d contracted to 3s1p1d pattern {311/2/1}
 Group   3 Type O   : 12s5p4d2f1g contracted to 6s4p3d1f1g pattern {711111/2111/211/2/1}

Atom   0C    basis set group =>   1
Atom   1C    basis set group =>   1
Atom   2C    basis set group =>   1
Atom   3H    basis set group =>   2
Atom   4C    basis set group =>   1
Atom   5C    basis set group =>   1
Atom   6C    basis set group =>   1
Atom   7O    basis set group =>   3
Atom   8H    basis set group =>   2
Atom   9H    basis set group =>   2
Atom  10H    basis set group =>   2
Atom  11H    basis set group =>   2
Atom  12H    basis set group =>   2
Atom  13H    basis set group =>   2
Atom  14H    basis set group =>   2
Atom  15H    basis set group =>   2
Atom  16H    basis set group =>   2
Atom  17H    basis set group =>   2
Atom  18H    basis set group =>   2
Atom  19H    basis set group =>   2
Atom  20H    basis set group =>   2

Checking for AutoStart:
The File: sp_gas.gbw exists
Trying to determine its content:
     ... Fine, the file contains calculation information
     ... Fine, the calculation information was read
     ... Fine, the file contains a basis set
     ... Fine, the basis set was read
     ... Fine, the file contains a geometry
     ... Fine, the geometry was read
     ... Fine, the file contains a set of orbitals
     ... Fine, the orbitals can be read
     => possible old guess file was deleted
     => GBW file was renamed to GES file
     => GES file is set as startup file
     => Guess is set to MORead
     ... now leaving AutoStart

------------------------------------------------------------------------------
                             ORCA STARTUP CALCULATIONS
                           -- RI-GTO INTEGRALS CHOSEN --
------------------------------------------------------------------------------
------------------------------------------------------------------------------
                   ___                                                        
                  /   \      - P O W E R E D   B Y -                         
                 /     \                                                     
                 |  |  |   _    _      __       _____    __    __             
                 |  |  |  | |  | |    /  \     |  _  \  |  |  /  |          
                  \  \/   | |  | |   /    \    | | | |  |  | /  /          
                 / \  \   | |__| |  /  /\  \   | |_| |  |  |/  /          
                |  |  |   |  __  | /  /__\  \  |    /   |      \           
                |  |  |   | |  | | |   __   |  |    \   |  |\   \          
                \     /   | |  | | |  |  |  |  | |\  \  |  | \   \       
                 \___/    |_|  |_| |__|  |__|  |_| \__\ |__|  \__/        
                                                                              
                      - O R C A' S   B I G   F R I E N D -                    
                                      &                                       
                       - I N T E G R A L  F E E D E R -                       
                                                                              
 v1 FN, 2020, v2 2021, v3 2022-2024                                           
------------------------------------------------------------------------------


----------------------
SHARK INTEGRAL PACKAGE
----------------------

Number of atoms                             ...     21
Number of basis functions                   ...    208
Number of shells                            ...    106
Maximum angular momentum                    ...      2
Integral batch strategy                     ... SHARK/LIBINT Hybrid
RI-J (if used) integral strategy            ... SPLIT-RIJ (Revised 2003 algorithm where possible)
Printlevel                                  ...      1
Contraction scheme used                     ... SEGMENTED contraction
Prescreening option                         ... SCHWARTZ
   Thresh                                   ... 1.000e-10
   Tcut                                     ... 1.000e-11
   Tpresel                                  ... 1.000e-11 
Coulomb Range Separation                    ... NOT USED
Exchange Range Separation                   ... NOT USED
Multipole approximations                    ... NOT USED
Finite Nucleus Model                        ... NOT USED
CABS basis                                  ... NOT available
Auxiliary Coulomb fitting basis             ... AVAILABLE
   # of basis functions in Aux-J            ...    497
   # of shells in Aux-J                     ...    175
   Maximum angular momentum in Aux-J        ...      4
Auxiliary J/K fitting basis                 ... NOT available
Auxiliary Correlation fitting basis         ... NOT available
Auxiliary 'external' fitting basis          ... NOT available

Checking pre-screening integrals            ... done (  0.0 sec) Dimension = 106
Check shell pair data                       ... done (  0.0 sec)
Shell pair information
Shell pair cut-off parameter TPreSel        ...   1.0e-11
Total number of shell pairs                 ...      5671
Shell pairs after pre-screening             ...      5289
Total number of primitive shell pairs       ...     19699
Primitive shell pairs kept                  ...     13229
          la=0 lb=0:   1865 shell pairs
          la=1 lb=0:   2044 shell pairs
          la=1 lb=1:    586 shell pairs
          la=2 lb=0:    485 shell pairs
          la=2 lb=1:    273 shell pairs
          la=2 lb=2:     36 shell pairs

Calculating one electron integrals          ... done (  0.0 sec)
Calculating RI/J V-Matrix + Cholesky decomp.... done (  0.1 sec)
Calculating Nuclear repulsion               ... done (  0.0 sec) ENN=    343.086367338215 Eh

Diagonalization of the overlap matrix:
Smallest eigenvalue                        ... 1.414e-04
Time for diagonalization                   ...    0.004 sec
Threshold for overlap eigenvalues          ... 1.000e-07
Number of eigenvalues below threshold      ... 0
Time for construction of square roots      ...    0.015 sec
Total time needed                          ...    0.030 sec

-------------------
DFT GRID GENERATION
-------------------

General Integration Accuracy     IntAcc      ... 4.388
Radial Grid Type                 RadialGrid  ... OptM3 with GC (2021)
Angular Grid (max. ang.)         AngularGrid ... 4 (Lebedev-302)
Angular grid pruning method      GridPruning ... 4 (adaptive)
Weight generation scheme         WeightScheme... mBecke (2022)
Basis function cutoff            BFCut       ... 1.0000e-10
Integration weight cutoff        WCut        ... 1.0000e-14
Partially contracted basis set               ... off
Rotationally invariant grid construction     ... off
Angular grids for H and He will be reduced by one unit
Diffuse basis detected: some atoms will have their outermost
                        angular grid increased by 1.

Total number of grid points                  ...    86929
Total number of batches                      ...     1371
Average number of points per batch           ...       63
Average number of grid points per atom       ...     4139
Initializing property integral containers    ... done (  0.0 sec)

SHARK setup successfully completed in   1.2 seconds

Maximum memory used throughout the entire STARTUP-calculation: 38.1 MB
-------------------------------------------------------------------------------
                                 ORCA GUESS
                   Start orbitals & Density for SCF / CASSCF
-------------------------------------------------------------------------------

------------
SCF SETTINGS
------------
Hamiltonian:
 Density Functional     Method          .... DFT(GTOs)
  Functional kind                       .... Exchange
  Functional name                       .... Re-regularized SCAN exchange by Furness et al
  Functional family                     .... MGGA
  Functional refs                              
    [ 0] J. W. Furness, A. D. Kaplan, J. Ning, J. P. Perdew, and J. Sun.,  J. Phys. Chem. Lett. 11, 8208-8215 (2020), doi: 10.1021/acs.jpclett.0c02405
    [ 1] J. W. Furness, A. D. Kaplan, J. Ning, J. P. Perdew, and J. Sun.,  J. Phys. Chem. Lett. 11, 9248-9248 (2020), doi: 10.1021/acs.jpclett.0c03077
  Functional external parameters        .... 6
    Parameter  0 _c1        =  6.670000e-01 : c1 parameter        
    Parameter  1 _c2        =  8.000000e-01 : c2 parameter        
    Parameter  2 _d         =  1.240000e+00 : d parameter         
    Parameter  3 _k1        =  6.500000e-02 : k1 parameter        
    Parameter  4 _eta       =  1.000000e-03 : eta parameter       
    Parameter  5 _dp2       =  3.610000e-01 : dp2 parameter       
  Functional kind                       .... Correlation
  Functional name                       .... Re-regularized SCAN correlation by Furness et al
  Functional family                     .... MGGA
  Functional refs                              
    [ 0] J. W. Furness, A. D. Kaplan, J. Ning, J. P. Perdew, and J. Sun.,  J. Phys. Chem. Lett. 11, 8208-8215 (2020), doi: 10.1021/acs.jpclett.0c02405
    [ 1] J. W. Furness, A. D. Kaplan, J. Ning, J. P. Perdew, and J. Sun.,  J. Phys. Chem. Lett. 11, 9248-9248 (2020), doi: 10.1021/acs.jpclett.0c03077
  Functional external parameters        .... 1
    Parameter  0 _eta       =  1.000000e-03 : Regularization parameter
 Gradients option       PostSCFGGA      .... off
 RI-approximation to the Coulomb term is turned on
   Number of AuxJ basis functions       .... 497


General Settings:
 Integral files         IntName         .... sp_gas
 Hartree-Fock type      HFTyp           .... RHF
 Total Charge           Charge          ....    0
 Multiplicity           Mult            ....    1
 Number of Electrons    NEL             ....   58
 Basis Dimension        Dim             ....  208
 Nuclear Repulsion      ENuc            ....    343.0863673382 Eh

Convergence Acceleration:
 AO-DIIS                CNVDIIS         .... on
   Start iteration      DIISMaxIt       ....    12
   Startup error        DIISStart       ....  0.200000
   # of expansion vecs  DIISMaxEq       ....     5
   Bias factor          DIISBfac        ....   1.050
   Max. coefficient     DIISMaxC        ....  10.000
 MO-DIIS                CNVKDIIS        .... off
 Trust-Rad. Augm. Hess. CNVTRAH         .... auto
   Auto Start mean grad. ratio tolernc. ....  1.125000
   Auto Start start iteration           ....     1
   Auto Start num. interpolation iter.  ....    10
   Max. Number of Micro iterations      ....    24
   Max. Number of Macro iterations      .... Maxiter - #DIIS iter
   Number of Davidson start vectors     ....     2
   Converg. threshold    (grad. norm)   ....   3.330e-04
   Grad. Scal. Fac. for Micro threshold ....   0.100
   Minimum threshold for Micro iter.    ....   1.000e-02
   NR start threshold (gradient norm)   ....   1.000e-04
   Initial trust radius                 ....   0.400
   Minimum AH scaling param. (alpha)    ....   1.000
   Maximum AH scaling param. (alpha)    .... 1000.000
   Quad. conv. algorithm                .... NR
   White noise on init. David. guess    .... on
   Maximum white noise                  ....   0.010
   Pseudo random numbers                .... off
   Inactive MOs                         .... canonical
   Orbital update algorithm             .... Taylor
   Preconditioner                       .... Diag
   Full preconditioner red. dimension   ....   250
   COSX micro iterations for RIJONX calc.... off
 SOSCF                  CNVSOSCF        .... on
   Start iteration      SOSCFMaxIt      ....   150
   Startup grad/error   SOSCFStart      ....  0.003300
   Hessian update       SOSCFHessUp     .... L-BFGS
 Level Shifting         CNVShift        .... on
   Level shift para.    LevelShift      ....    0.2500
   Turn off err/grad.   ShiftErr        ....    0.0010
 Zerner damping         CNVZerner       .... off
 Static damping         CNVDamp         .... on
   Fraction old density DampFac         ....    0.7000
   Max. Damping (<1)    DampMax         ....    0.9800
   Min. Damping (>=0)   DampMin         ....    0.0000
   Turn off err/grad.   DampErr         ....    0.1000

SCF Procedure:
 Maximum # iterations   MaxIter         ....   125
 SCF integral mode      SCFMode         .... Direct
   Integral package                     .... SHARK and LIBINT hybrid scheme
 Reset frequency        DirectResetFreq ....    20
 Integral Threshold     Thresh          ....  1.000e-10 Eh
 Primitive CutOff       TCut            ....  1.000e-11 Eh

Convergence Tolerance:
 Convergence Check Mode ConvCheckMode   .... Total+1el-Energy
 Convergence forced     ConvForced      .... 0
 Energy Change          TolE            ....  1.000e-06 Eh
 1-El. energy change                    ....  1.000e-03 Eh
 Orbital Gradient       TolG            ....  3.330e-04
 Orbital Rotation angle TolX            ....  3.330e-04
 DIIS Error             TolErr          ....  1.000e-06

---------------------
INITIAL GUESS: MOREAD
---------------------
Guess MOs are being read from file: sp_gas.ges
Input Geometry matches current geometry (good)
Atom 0: N(Shells)= 9 and 6 - projection required
Input basis set needs projection
NBasis(read)= 126
NBasis(calc)= 208
Basis set overlap was calculated
Using GuessMode=FMatrix for the initial guess
C*T matrix was formed
Effective Fockian was calculated
Effective Fockian was diagonalized
Initial density was built
                      ------------------
                      INITIAL GUESS DONE (   0.0 sec)
                      ------------------
             **** ENERGY FILE WAS UPDATED (sp_gas.en.tmp) ****
Finished Guess after   0.2 sec
Maximum memory used throughout the entire GUESS-calculation: 14.5 MB

-------------------------------------------------------------------------------------------
                                      ORCA LEAN-SCF
                              memory conserving SCF solver
-------------------------------------------------------------------------------------------

----------------------------------------D-I-I-S--------------------------------------------
Iteration    Energy (Eh)           Delta-E    RMSDP     MaxDP     DIISErr   Damp  Time(sec)
-------------------------------------------------------------------------------------------
               ***  Starting incremental Fock matrix formation  ***
    1    -312.0272663078961273     0.00e+00  4.84e-03  2.45e-01  6.28e-01  0.700   2.8
    2    -312.0796858087470014    -5.24e-02  3.81e-03  1.71e-01  4.41e-01  0.700   2.6
    3    -312.1168155663122548    -3.71e-02  2.76e-03  1.18e-01  3.09e-01  0.700   2.5
    4    -312.1428917561776757    -2.61e-02  1.96e-03  8.16e-02  2.16e-01  0.700   2.5
                               ***Turning on AO-DIIS***
    5    -312.1611883327512373    -1.83e-02  1.40e-03  5.54e-02  1.52e-01  0.700   2.4
    6    -312.1740190363884153    -1.28e-02  9.91e-04  3.82e-02  1.06e-01  0.700   2.4
    7    -312.1830153863859891    -9.00e-03  6.97e-04  2.65e-02  7.42e-02  0.700   2.4
    8    -312.1893204305175118    -6.31e-03  1.63e-03  6.14e-02  5.20e-02  0.000   2.4
                              *** Initializing SOSCF ***
---------------------------------------S-O-S-C-F--------------------------------------
Iteration    Energy (Eh)           Delta-E    RMSDP     MaxDP     MaxGrad    Time(sec)
--------------------------------------------------------------------------------------
    9    -312.2040570075086521    -1.47e-02  9.56e-06  1.99e-04  1.17e-04     2.5
               *** Restarting incremental Fock matrix formation ***
   10    -312.2040571353052769    -1.28e-07  6.25e-06  1.88e-04  1.97e-05     2.8
                  *** Gradient check signals convergence ***

               *****************************************************
               *                     SUCCESS                       *
               *           SCF CONVERGED AFTER  10 CYCLES          *
               *****************************************************

             **** ENERGY FILE WAS UPDATED (sp_gas.en.tmp) ****

----------------
TOTAL SCF ENERGY
----------------

Total Energy       :       -312.20405713530528 Eh           -8495.50430 eV

Components:
Nuclear Repulsion  :        343.08636733821453 Eh            9335.85468 eV
Electronic Energy  :       -655.29042447351981 Eh          -17831.35898 eV
One Electron Energy:      -1101.89919158444877 Eh          -29984.20137 eV
Two Electron Energy:        446.60876711092902 Eh           12152.84239 eV

Virial components:
Potential Energy   :       -622.99355056441129 Eh          -16952.51636 eV
Kinetic Energy     :        310.78949342910602 Eh            8457.01206 eV
Virial Ratio       :          2.00455151713976

DFT components:
N(Alpha)           :       28.999948625114 electrons
N(Beta)            :       28.999948625114 electrons
N(Total)           :       57.999897250228 electrons
E(X)               :      -44.501858519904 Eh       
E(C)               :       -1.814290583637 Eh       
E(XC)              :      -46.316149103541 Eh       

---------------
SCF CONVERGENCE
---------------

  Last Energy change         ...    1.2780e-07  Tolerance :   1.0000e-06
  Last MAX-Density change    ...    1.8816e-04  Tolerance :   1.0000e-05
  Last RMS-Density change    ...    6.2500e-06  Tolerance :   1.0000e-06
  Last DIIS Error            ...    1.1673e-04  Tolerance :   1.0000e-06
  Last Orbital Gradient      ...    1.9727e-05  Tolerance :   3.3300e-04
  Last Orbital Rotation      ...    3.5687e-05  Tolerance :   3.3300e-04


----------------
ORBITAL ENERGIES
----------------

  NO   OCC          E(Eh)            E(eV) 
   0   2.0000     -18.945600      -515.5360 
   1   2.0000     -10.077214      -274.2149 
   2   2.0000     -10.035095      -273.0688 
   3   2.0000     -10.022643      -272.7300 
   4   2.0000     -10.019677      -272.6493 
   5   2.0000     -10.011567      -272.4286 
   6   2.0000     -10.007215      -272.3102 
   7   2.0000      -0.983949       -26.7746 
   8   2.0000      -0.771490       -20.9933 
   9   2.0000      -0.725111       -19.7313 
  10   2.0000      -0.652535       -17.7564 
  11   2.0000      -0.637718       -17.3532 
  12   2.0000      -0.567681       -15.4474 
  13   2.0000      -0.522158       -14.2087 
  14   2.0000      -0.468650       -12.7526 
  15   2.0000      -0.448905       -12.2153 
  16   2.0000      -0.410553       -11.1717 
  17   2.0000      -0.392768       -10.6878 
  18   2.0000      -0.385389       -10.4870 
  19   2.0000      -0.371252       -10.1023 
  20   2.0000      -0.356405        -9.6983 
  21   2.0000      -0.345456        -9.4003 
  22   2.0000      -0.332705        -9.0534 
  23   2.0000      -0.314805        -8.5663 
  24   2.0000      -0.311542        -8.4775 
  25   2.0000      -0.297279        -8.0894 
  26   2.0000      -0.294816        -8.0224 
  27   2.0000      -0.270240        -7.3536 
  28   2.0000      -0.230718        -6.2782 
  29   0.0000       0.058194         1.5835 
  30   0.0000       0.092299         2.5116 
  31   0.0000       0.111120         3.0237 
  32   0.0000       0.121108         3.2955 
  33   0.0000       0.128704         3.5022 
  34   0.0000       0.132369         3.6019 
  35   0.0000       0.136683         3.7193 
  36   0.0000       0.145277         3.9532 
  37   0.0000       0.154334         4.1996 
  38   0.0000       0.160405         4.3648 
  39   0.0000       0.169856         4.6220 
*Only the first 10 virtual orbitals were printed.

                    ********************************
                    * MULLIKEN POPULATION ANALYSIS *
                    ********************************

-----------------------
MULLIKEN ATOMIC CHARGES
-----------------------
   0 C :   -0.493905
   1 C :   -0.284295
   2 C :    0.044921
   3 H :    0.130624
   4 C :    0.003857
   5 C :   -0.540206
   6 C :   -0.527332
   7 O :   -0.435477
   8 H :    0.137130
   9 H :    0.142742
  10 H :    0.180095
  11 H :    0.142574
  12 H :    0.147495
  13 H :    0.134270
  14 H :    0.178113
  15 H :    0.147023
  16 H :    0.148006
  17 H :    0.158099
  18 H :    0.149410
  19 H :    0.149028
  20 H :    0.287828
Sum of atomic charges:   -0.0000000

--------------------------------
MULLIKEN REDUCED ORBITAL CHARGES
--------------------------------
  0 C s       :     3.330735  s :     3.330735
      pz      :     1.086171  p :     3.136405
      px      :     1.052639
      py      :     0.997595
      dz2     :     0.006239  d :     0.026765
      dxz     :     0.005184
      dyz     :     0.003267
      dx2y2   :     0.004622
      dxy     :     0.007453

  1 C s       :     3.231791  s :     3.231791
      pz      :     1.006932  p :     3.016526
      px      :     1.018489
      py      :     0.991105
      dz2     :     0.006885  d :     0.035978
      dxz     :     0.007719
      dyz     :     0.005218
      dx2y2   :     0.005045
      dxy     :     0.011111

  2 C s       :     3.185322  s :     3.185322
      pz      :     0.748644  p :     2.702301
      px      :     0.914967
      py      :     1.038690
      dz2     :     0.016203  d :     0.067456
      dxz     :     0.016256
      dyz     :     0.014125
      dx2y2   :     0.010067
      dxy     :     0.010804

  3 H s       :     0.852752  s :     0.852752
      pz      :     0.003902  p :     0.016624
      px      :     0.003361
      py      :     0.009360

  4 C s       :     3.054980  s :     3.054980
      pz      :     0.954624  p :     2.895629
      px      :     0.983815
      py      :     0.957190
      dz2     :     0.008536  d :     0.045535
      dxz     :     0.008627
      dyz     :     0.010083
      dx2y2   :     0.008223
      dxy     :     0.010066

  5 C s       :     3.354474  s :     3.354474
      pz      :     1.080165  p :     3.159005
      px      :     1.112385
      py      :     0.966455
      dz2     :     0.002990  d :     0.026727
      dxz     :     0.005958
      dyz     :     0.007234
      dx2y2   :     0.006567
      dxy     :     0.003978

  6 C s       :     3.353475  s :     3.353475
      pz      :     0.965620  p :     3.146753
      px      :     1.087419
      py      :     1.093713
      dz2     :     0.005465  d :     0.027105
      dxz     :     0.005311
      dyz     :     0.007674
      dx2y2   :     0.005230
      dxy     :     0.003424

  7 O s       :     3.772603  s :     3.772603
      pz      :     1.266080  p :     4.648444
      px      :     1.616200
      py      :     1.766164
      dz2     :    -0.000465  d :     0.014429
      dxz     :     0.004103
      dyz     :    -0.000338
      dx2y2   :     0.004339
      dxy     :     0.006791

  8 H s       :     0.844175  s :     0.844175
      pz      :     0.003792  p :     0.018695
      px      :     0.006433
      py      :     0.008469

  9 H s       :     0.838938  s :     0.838938
      pz      :     0.005669  p :     0.018320
      px      :     0.008655
      py      :     0.003997

 10 H s       :     0.801451  s :     0.801451
      pz      :     0.010470  p :     0.018454
      px      :     0.004077
      py      :     0.003907

 11 H s       :     0.839177  s :     0.839177
      pz      :     0.009576  p :     0.018249
      px      :     0.004788
      py      :     0.003886

 12 H s       :     0.834703  s :     0.834703
      pz      :     0.003671  p :     0.017802
      px      :     0.007073
      py      :     0.007058

 13 H s       :     0.848292  s :     0.848292
      pz      :     0.005662  p :     0.017438
      px      :     0.005975
      py      :     0.005801

 14 H s       :     0.803379  s :     0.803379
      pz      :     0.007912  p :     0.018508
      px      :     0.006919
      py      :     0.003676

 15 H s       :     0.834468  s :     0.834468
      pz      :     0.006460  p :     0.018509
      px      :     0.004565
      py      :     0.007484

 16 H s       :     0.833709  s :     0.833709
      pz      :     0.004686  p :     0.018285
      px      :     0.009418
      py      :     0.004181

 17 H s       :     0.823530  s :     0.823530
      pz      :     0.006146  p :     0.018371
      px      :     0.005456
      py      :     0.006769

 18 H s       :     0.832274  s :     0.832274
      pz      :     0.003713  p :     0.018316
      px      :     0.010069
      py      :     0.004534

 19 H s       :     0.832703  s :     0.832703
      pz      :     0.005318  p :     0.018269
      px      :     0.003705
      py      :     0.009246

 20 H s       :     0.668838  s :     0.668838
      pz      :     0.012875  p :     0.043334
      px      :     0.015138
      py      :     0.015321


------------------------
MULLIKEN OVERLAP CHARGES
------------------------
B(  0-C ,  1-C ) :   0.2855 B(  0-C ,  2-C ) :  -0.1654 B(  0-C ,  7-O ) :   0.0590 
B(  0-C ,  8-H ) :   0.8090 B(  0-C ,  9-H ) :   0.7965 B(  0-C , 10-H ) :   0.8834 
B(  0-C , 11-H ) :  -0.0617 B(  0-C , 12-H ) :  -0.0524 B(  1-C ,  2-C ) :   0.3274 
B(  1-C ,  3-H ) :  -0.0859 B(  1-C ,  4-C ) :  -0.1255 B(  1-C ,  5-C ) :   0.0612 
B(  1-C ,  7-O ) :  -0.1672 B(  1-C ,  8-H ) :  -0.0515 B(  1-C ,  9-H ) :  -0.0796 
B(  1-C , 10-H ) :  -0.1214 B(  1-C , 11-H ) :   0.8424 B(  1-C , 12-H ) :   0.8076 
B(  2-C ,  3-H ) :   0.8676 B(  2-C ,  4-C ) :   0.4158 B(  2-C ,  5-C ) :  -0.2004 
B(  2-C ,  6-C ) :  -0.1689 B(  2-C ,  7-O ) :   0.3668 B(  2-C , 11-H ) :  -0.0841 
B(  2-C , 12-H ) :  -0.0657 B(  2-C , 13-H ) :  -0.1260 B(  2-C , 20-H ) :  -0.0963 
B(  3-H ,  4-C ) :  -0.1700 B(  3-H ,  7-O ) :  -0.1059 B(  4-C ,  5-C ) :   0.2871 
B(  4-C ,  6-C ) :   0.3885 B(  4-C ,  7-O ) :  -0.1575 B(  4-C , 13-H ) :   0.8657 
B(  4-C , 14-H ) :  -0.1118 B(  4-C , 15-H ) :  -0.1034 B(  4-C , 17-H ) :  -0.0839 
B(  4-C , 18-H ) :  -0.0671 B(  4-C , 19-H ) :  -0.1021 B(  5-C ,  6-C ) :  -0.1855 
B(  5-C , 13-H ) :  -0.0910 B(  5-C , 14-H ) :   0.8317 B(  5-C , 15-H ) :   0.8423 
B(  5-C , 16-H ) :   0.7717 B(  6-C , 17-H ) :   0.8856 B(  6-C , 18-H ) :   0.7859 
B(  6-C , 19-H ) :   0.8111 B(  7-O , 20-H ) :   0.5799 


                     *******************************
                     * LOEWDIN POPULATION ANALYSIS *
                     *******************************

----------------------
LOEWDIN ATOMIC CHARGES
----------------------
   0 C :   -0.415333
   1 C :   -0.276148
   2 C :    0.057325
   3 H :    0.166198
   4 C :   -0.225786
   5 C :   -0.412235
   6 C :   -0.413736
   7 O :   -0.626757
   8 H :    0.148573
   9 H :    0.148779
  10 H :    0.168309
  11 H :    0.159412
  12 H :    0.162629
  13 H :    0.155714
  14 H :    0.167225
  15 H :    0.151529
  16 H :    0.152127
  17 H :    0.153111
  18 H :    0.155920
  19 H :    0.154694
  20 H :    0.268449

-------------------------------
LOEWDIN REDUCED ORBITAL CHARGES
-------------------------------
  0 C s       :     2.967554  s :     2.967554
      pz      :     1.154048  p :     3.384926
      px      :     1.133912
      py      :     1.096967
      dz2     :     0.015253  d :     0.062853
      dxz     :     0.012497
      dyz     :     0.007092
      dx2y2   :     0.010167
      dxy     :     0.017843

  1 C s       :     2.930177  s :     2.930177
      pz      :     1.086083  p :     3.268792
      px      :     1.088019
      py      :     1.094691
      dz2     :     0.015004  d :     0.077178
      dxz     :     0.017045
      dyz     :     0.010757
      dx2y2   :     0.009329
      dxy     :     0.025044

  2 C s       :     2.835961  s :     2.835961
      pz      :     0.888376  p :     2.962078
      px      :     1.018538
      py      :     1.055164
      dz2     :     0.034548  d :     0.144635
      dxz     :     0.035726
      dyz     :     0.030702
      dx2y2   :     0.019993
      dxy     :     0.023667

  3 H s       :     0.793732  s :     0.793732
      pz      :     0.009396  p :     0.040070
      px      :     0.008101
      py      :     0.022574

  4 C s       :     2.910636  s :     2.910636
      pz      :     1.079181  p :     3.221758
      px      :     1.057521
      py      :     1.085056
      dz2     :     0.017480  d :     0.093392
      dxz     :     0.018087
      dyz     :     0.020705
      dx2y2   :     0.016381
      dxy     :     0.020739

  5 C s       :     2.965660  s :     2.965660
      pz      :     1.141270  p :     3.383466
      px      :     1.157181
      py      :     1.085015
      dz2     :     0.006325  d :     0.063109
      dxz     :     0.015107
      dyz     :     0.017447
      dx2y2   :     0.015912
      dxy     :     0.008318

  6 C s       :     2.967652  s :     2.967652
      pz      :     1.089979  p :     3.382196
      px      :     1.138689
      py      :     1.153528
      dz2     :     0.012365  d :     0.063888
      dxz     :     0.012191
      dyz     :     0.017855
      dx2y2   :     0.013053
      dxy     :     0.008424

  7 O s       :     3.512837  s :     3.512837
      pz      :     1.399651  p :     4.808658
      px      :     1.644260
      py      :     1.764747
      dz2     :     0.078397  d :     0.305262
      dxz     :     0.088413
      dyz     :     0.074962
      dx2y2   :     0.022110
      dxy     :     0.041380

  8 H s       :     0.806937  s :     0.806937
      pz      :     0.008525  p :     0.044490
      px      :     0.015361
      py      :     0.020605

  9 H s       :     0.807741  s :     0.807741
      pz      :     0.013686  p :     0.043480
      px      :     0.020931
      py      :     0.008864

 10 H s       :     0.786895  s :     0.786895
      pz      :     0.026741  p :     0.044796
      px      :     0.009209
      py      :     0.008846

 11 H s       :     0.796496  s :     0.796496
      pz      :     0.023289  p :     0.044092
      px      :     0.011543
      py      :     0.009260

 12 H s       :     0.794380  s :     0.794380
      pz      :     0.008290  p :     0.042991
      px      :     0.017346
      py      :     0.017355

 13 H s       :     0.801875  s :     0.801875
      pz      :     0.013916  p :     0.042411
      px      :     0.014168
      py      :     0.014328

 14 H s       :     0.787747  s :     0.787747
      pz      :     0.019951  p :     0.045028
      px      :     0.016846
      py      :     0.008231

 15 H s       :     0.804283  s :     0.804283
      pz      :     0.015736  p :     0.044187
      px      :     0.010333
      py      :     0.018118

 16 H s       :     0.804082  s :     0.804082
      pz      :     0.010815  p :     0.043791
      px      :     0.023430
      py      :     0.009545

 17 H s       :     0.802938  s :     0.802938
      pz      :     0.014645  p :     0.043951
      px      :     0.012966
      py      :     0.016340

 18 H s       :     0.800313  s :     0.800313
      pz      :     0.008533  p :     0.043766
      px      :     0.024951
      py      :     0.010282

 19 H s       :     0.801644  s :     0.801644
      pz      :     0.012398  p :     0.043663
      px      :     0.008174
      py      :     0.023091

 20 H s       :     0.608286  s :     0.608286
      pz      :     0.035621  p :     0.123266
      px      :     0.045441
      py      :     0.042203


---------------------------------
LOEWDIN BOND ORDERS (THRESH 0.050000)
---------------------------------
B(  0-C ,  1-C ) :   1.1317 B(  0-C ,  2-C ) :   0.0565 B(  0-C ,  8-H ) :   0.9250 
B(  0-C ,  9-H ) :   0.9277 B(  0-C , 10-H ) :   0.9135 B(  1-C ,  2-C ) :   1.0100 
B(  1-C ,  4-C ) :   0.0542 B(  1-C ,  7-O ) :   0.1646 B(  1-C , 11-H ) :   0.8812 
B(  1-C , 12-H ) :   0.8835 B(  2-C ,  3-H ) :   0.7941 B(  2-C ,  4-C ) :   0.9794 
B(  2-C ,  5-C ) :   0.0563 B(  2-C ,  6-C ) :   0.0724 B(  2-C ,  7-O ) :   1.3924 
B(  3-H ,  7-O ) :   0.0984 B(  4-C ,  5-C ) :   1.1045 B(  4-C ,  6-C ) :   1.1048 
B(  4-C ,  7-O ) :   0.1654 B(  4-C , 13-H ) :   0.8511 B(  5-C ,  6-C ) :   0.0715 
B(  5-C , 14-H ) :   0.9093 B(  5-C , 15-H ) :   0.9191 B(  5-C , 16-H ) :   0.9238 
B(  6-C , 17-H ) :   0.9210 B(  6-C , 18-H ) :   0.9204 B(  6-C , 19-H ) :   0.9214 
B(  7-O , 20-H ) :   0.9686 

------------------------------------------
LOEWDIN REDUCED ORBITAL POPULATIONS PER MO
-------------------------------------------
THRESHOLD FOR PRINTING IS 0.1%%
                      0         1         2         3         4         5   
                 -18.94560 -10.07721 -10.03510 -10.02264 -10.01968 -10.01157
                   2.00000   2.00000   2.00000   2.00000   2.00000   2.00000
                  --------  --------  --------  --------  --------  --------
 1 C  s               0.0       0.0       0.0      99.7       0.0       0.0
 2 C  s               0.0      99.4       0.0       0.0       0.0       0.0
 4 C  s               0.0       0.0      99.6       0.0       0.0       0.0
 5 C  s               0.0       0.0       0.0       0.0       0.0      99.7
 6 C  s               0.0       0.0       0.0       0.0      99.7       0.0
 7 O  s              99.9       0.0       0.0       0.0       0.0       0.0
 7 O  dz2             0.0       0.2       0.0       0.0       0.0       0.0
 7 O  dxz             0.0       0.1       0.0       0.0       0.0       0.0

                      6         7         8         9        10        11   
                 -10.00721  -0.98395  -0.77149  -0.72511  -0.65253  -0.63772
                   2.00000   2.00000   2.00000   2.00000   2.00000   2.00000
                  --------  --------  --------  --------  --------  --------
 0 C  s              99.7       0.1       2.5      18.0       2.3      14.9
 0 C  pz              0.0       0.0       0.1       0.4       0.0       0.0
 0 C  px              0.0       0.1       0.3       0.4       0.0       0.2
 0 C  py              0.0       0.2       0.4       1.6       0.1       0.4
 1 C  s               0.0       0.8       6.7      23.2       0.1       0.1
 1 C  pz              0.0       1.0       0.3       0.3       0.1       0.1
 1 C  px              0.0       0.3       0.6       0.5       0.7       4.1
 1 C  py              0.1       0.2       0.0       0.7       1.0       5.7
 1 C  dxz             0.0       0.0       0.0       0.0       0.0       0.1
 2 C  s               0.0       9.5       7.9       2.0       1.5      12.2
 2 C  pz              0.0       7.2       1.8       2.3       0.9       0.7
 2 C  px              0.0       1.0       1.7       5.8       0.0       0.1
 2 C  py              0.0       0.2       2.0       0.2       0.5       0.2
 2 C  dz2             0.0       0.4       0.1       0.0       0.0       0.0
 2 C  dxz             0.0       0.2       0.1       0.1       0.0       0.0
 3 H  s               0.0       0.7       1.1       0.3       0.7       3.5
 3 H  py              0.0       0.0       0.1       0.0       0.1       0.3
 4 C  s               0.0       0.9      23.3       5.1       0.0       0.3
 4 C  pz              0.0       0.1       0.5       0.0       9.2       1.6
 4 C  px              0.0       1.1       0.1       1.5       0.2       4.6
 4 C  py              0.0       0.3       0.3       0.7       6.0       1.4
 4 C  dz2             0.0       0.0       0.0       0.0       0.1       0.1
 4 C  dx2y2           0.0       0.0       0.0       0.0       0.1       0.0
 5 C  s               0.0       0.1       9.6       4.1      26.3       0.0
 5 C  pz              0.0       0.0       0.9       0.1       0.4       0.1
 5 C  px              0.0       0.1       0.0       0.2       0.1       0.1
 5 C  py              0.0       0.2       1.9       0.4       0.3       0.1
 6 C  s               0.0       0.1      11.7       4.9      14.1      11.7
 6 C  pz              0.0       0.1       2.2       0.5       0.7       0.4
 6 C  px              0.0       0.1       0.8       0.0       0.0       0.5
 6 C  py              0.0       0.0       0.0       0.0       0.3       0.1
 7 O  s               0.0      59.2       3.1       0.4       0.0       2.0
 7 O  pz              0.0       0.5       1.7       1.3       0.5       7.1
 7 O  px              0.0       1.9       0.1       0.2       0.0       0.2
 7 O  py              0.0       0.2       0.3       0.2       0.0       0.5
 7 O  dz2             0.0       0.1       0.2       0.4       0.2       0.7
 7 O  dxz             0.0       0.1       0.3       0.0       0.1       0.8
 7 O  dyz             0.0       0.1       0.1       0.1       0.0       0.0
 7 O  dxy             0.0       0.0       0.1       0.1       0.0       0.1
 8 H  s               0.0       0.0       0.4       2.7       0.7       3.7
 8 H  px              0.0       0.0       0.0       0.1       0.0       0.1
 8 H  py              0.0       0.0       0.0       0.2       0.0       0.2
 9 H  s               0.0       0.0       0.3       2.9       0.5       4.0
 9 H  px              0.0       0.0       0.0       0.2       0.0       0.2
10 H  s               0.0       0.0       0.3       2.7       0.5       3.3
10 H  pz              0.0       0.0       0.0       0.2       0.0       0.3
11 H  s               0.0       0.0       1.0       3.6       0.1       0.0
11 H  pz              0.0       0.0       0.1       0.3       0.0       0.0
12 H  s               0.0       0.0       0.8       3.9       0.0       0.1
12 H  px              0.0       0.0       0.0       0.2       0.0       0.0
12 H  py              0.0       0.0       0.0       0.2       0.0       0.0
13 H  s               0.0       0.1       3.1       1.0       0.0       0.1
13 H  py              0.0       0.0       0.1       0.0       0.0       0.0
14 H  s               0.0       0.0       1.2       0.6       6.3       0.0
14 H  pz              0.0       0.0       0.1       0.0       0.3       0.0
14 H  px              0.0       0.0       0.0       0.0       0.2       0.0
15 H  s               0.0       0.0       1.3       0.6       5.9       0.0
15 H  pz              0.0       0.0       0.0       0.0       0.2       0.0
15 H  py              0.0       0.0       0.1       0.0       0.2       0.0
16 H  s               0.0       0.0       1.2       0.8       6.2       0.0
16 H  px              0.0       0.0       0.1       0.1       0.4       0.0
17 H  s               0.0       0.0       1.6       0.7       3.2       3.0
17 H  py              0.0       0.0       0.1       0.0       0.1       0.1
18 H  s               0.0       0.0       1.5       0.9       3.1       3.5
18 H  px              0.0       0.0       0.1       0.1       0.2       0.2
19 H  s               0.0       0.0       1.5       0.7       4.0       2.7
19 H  py              0.0       0.0       0.1       0.0       0.3       0.2
20 H  s               0.0      10.3       1.0       0.5       0.1       1.9
20 H  pz              0.0       0.9       0.1       0.0       0.0       0.0
20 H  px              0.0       0.8       0.1       0.0       0.0       0.2
20 H  py              0.0       0.6       0.1       0.0       0.0       0.1

                     12        13        14        15        16        17   
                  -0.56768  -0.52216  -0.46865  -0.44891  -0.41055  -0.39277
                   2.00000   2.00000   2.00000   2.00000   2.00000   2.00000
                  --------  --------  --------  --------  --------  --------
 0 C  s               8.2       1.0       0.5       0.2       0.1       0.0
 0 C  pz              0.7       2.6       0.0       0.1       1.1      18.2
 0 C  px              0.9       0.1       0.0       4.8       0.5       0.1
 0 C  py              3.0       1.4       4.2       0.1       0.4       4.8
 1 C  s               7.7       5.7       0.7       0.0       0.3       0.0
 1 C  pz              1.8       7.4       0.9       0.1       1.1      11.6
 1 C  px              0.1       0.3       3.4       6.2       0.1       0.1
 1 C  py              2.8       0.1       0.0       4.7       2.2       3.8
 2 C  s               0.7       2.9       2.2       0.1       0.0       0.1
 2 C  pz              1.7       2.3       6.6       0.1       3.5       5.9
 2 C  px              8.8       3.0       5.7       0.2       1.5       0.3
 2 C  py              0.0       0.5       5.0      18.9       2.1       1.9
 2 C  dz2             0.1       0.0       0.0       0.0       0.0       0.2
 2 C  dxz             0.0       0.3       0.1       0.0       0.0       0.1
 2 C  dx2y2           0.0       0.0       0.2       0.0       0.0       0.0
 3 H  s               0.2       0.6       8.4       5.8       1.4       0.0
 3 H  py              0.0       0.0       0.3       0.1       0.0       0.0
 4 C  s               6.5       4.4       2.4       0.3       0.6       0.0
 4 C  pz              0.9       0.6       2.1       2.1       6.5       0.7
 4 C  px              0.3       0.9       5.8      10.1       1.7       0.1
 4 C  py              5.6       0.7       0.8       3.4       6.2       0.5
 5 C  s               4.8       0.9       0.9       0.5       0.1       0.0
 5 C  pz              0.1       0.1       0.2       3.4      16.6       1.7
 5 C  px              0.1       0.3       1.2       6.1       3.5       1.2
 5 C  py              3.3       2.6       5.5       0.5       0.5       0.0
 6 C  s               2.7       1.6       0.0       0.0       0.4       0.0
 6 C  pz              2.4       3.0       3.2       0.4      10.1       0.0
 6 C  px              0.4       0.6       1.6       5.6       2.1       0.3
 6 C  py              0.8       0.2       0.3       1.9       7.5       7.1
 7 O  s               0.5       0.0       1.1       0.3       0.3       0.2
 7 O  pz              0.2      22.2       6.6       1.3       0.2      10.3
 7 O  px              1.0       1.3       4.5       0.0       3.4       4.0
 7 O  py              0.1       3.9       7.5       3.5       3.3       0.3
 7 O  dz2             0.1       0.2       0.1       0.1       0.3       0.1
 7 O  dxz             0.5       0.3       0.2       0.0       0.0       0.4
 7 O  dyz             0.0       0.1       0.1       0.6       0.0       0.3
 7 O  dx2y2           0.1       0.1       0.0       0.1       0.0       0.1
 7 O  dxy             0.0       0.0       0.2       0.2       0.3       0.1
 8 H  s               3.1       0.8       1.8       0.4       0.1       1.6
 8 H  pz              0.0       0.0       0.0       0.0       0.0       0.1
 8 H  px              0.1       0.0       0.0       0.0       0.0       0.0
 8 H  py              0.1       0.0       0.0       0.0       0.0       0.0
 9 H  s               3.1       0.2       0.5       1.5       0.1       2.2
 9 H  px              0.1       0.0       0.0       0.0       0.0       0.1
10 H  s               3.0       1.4       0.0       0.2       0.6       7.7
10 H  pz              0.2       0.1       0.0       0.0       0.0       0.2
11 H  s               3.5       5.2       0.1       0.6       1.0       5.1
11 H  pz              0.2       0.2       0.0       0.0       0.0       0.1
12 H  s               3.6       2.6       1.2       3.1       0.0       0.5
12 H  px              0.2       0.1       0.0       0.0       0.0       0.0
12 H  py              0.1       0.1       0.1       0.0       0.0       0.0
13 H  s               3.9       3.6       2.9       3.2       0.9       0.0
13 H  px              0.1       0.1       0.0       0.0       0.1       0.0
13 H  py              0.1       0.1       0.2       0.0       0.0       0.0
14 H  s               1.4       0.6       1.0       0.1       8.0       1.5
14 H  px              0.0       0.0       0.0       0.0       0.1       0.0
15 H  s               2.3       1.1       2.3       0.2       1.8       0.1
16 H  s               2.1       0.3       0.2       4.2       0.0       0.1
16 H  pz              0.0       0.0       0.0       0.0       0.1       0.0
16 H  px              0.1       0.0       0.0       0.1       0.0       0.0
17 H  s               1.9       1.2       0.6       1.7       0.0       1.1
18 H  s               1.4       1.0       0.4       1.2       0.2       0.7
19 H  s               0.8       0.9       0.7       0.5       7.6       2.4
19 H  py              0.1       0.1       0.0       0.0       0.2       0.0
20 H  s               0.0       6.6       4.2       0.0       0.0       0.5
20 H  px              0.0       0.3       0.1       0.0       0.1       0.1
20 H  py              0.0       0.1       0.0       0.0       0.0       0.0

                     18        19        20        21        22        23   
                  -0.38539  -0.37125  -0.35640  -0.34546  -0.33270  -0.31480
                   2.00000   2.00000   2.00000   2.00000   2.00000   2.00000
                  --------  --------  --------  --------  --------  --------
 0 C  s               0.0       0.0       0.1       0.3       0.0       0.3
 0 C  pz              0.4       3.7       0.4       0.1       5.5      15.0
 0 C  px             18.1       1.2       1.8       2.3      13.7       3.8
 0 C  py              5.0       0.1       1.2      13.6       0.3       0.3
 0 C  dz2             0.0       0.0       0.0       0.0       0.0       0.3
 0 C  dxz             0.1       0.0       0.0       0.1       0.1       0.0
 0 C  dx2y2           0.0       0.0       0.0       0.0       0.2       0.0
 0 C  dxy             0.0       0.0       0.0       0.1       0.2       0.0
 1 C  s               0.1       0.1       0.2       0.4       0.1       0.2
 1 C  pz              0.0       2.6       0.5       4.5       0.1      12.5
 1 C  px             13.4       0.7       4.2       0.8       3.2       1.2
 1 C  py              2.7       0.2       0.1       8.1       0.4       1.5
 1 C  dz2             0.1       0.0       0.0       0.0       0.0       0.2
 1 C  dxz             0.0       0.0       0.0       0.0       0.0       0.1
 1 C  dx2y2           0.0       0.0       0.0       0.0       0.1       0.1
 1 C  dxy             0.0       0.0       0.0       0.0       0.2       0.1
 2 C  s               0.0       0.7       0.0       0.2       1.5       0.0
 2 C  pz              1.7       0.7       1.3       1.7       1.4       0.7
 2 C  px              1.9       0.1       0.4       1.1       0.4       2.1
 2 C  py              0.1       0.0       0.0       0.6       5.9       0.5
 2 C  dz2             0.0       0.0       0.0       0.0       0.0       0.1
 2 C  dxz             0.0       0.4       0.0       0.0       0.0       0.0
 2 C  dxy             0.1       0.0       0.0       0.0       0.0       0.0
 3 H  s               0.0       0.4       0.0       0.4       0.2       0.5
 4 C  s               0.2       0.3       0.0       0.2       0.1       0.1
 4 C  pz              0.0       6.2       0.7       0.3       2.4       0.0
 4 C  px              5.5       0.5       0.1       0.2       3.0       0.1
 4 C  py              1.1       1.3       0.4       1.4       0.3       7.1
 4 C  dxz             0.0       0.0       0.1       0.0       0.0       0.0
 4 C  dyz             0.0       0.0       0.0       0.0       0.1       0.2
 4 C  dx2y2           0.0       0.0       0.0       0.0       0.2       0.0
 4 C  dxy             0.0       0.0       0.0       0.1       0.2       0.0
 5 C  s               0.1       0.1       0.0       0.0       0.0       0.3
 5 C  pz              0.5       0.6      10.0       0.6       0.3       0.4
 5 C  px              2.9       0.1      14.3      17.1       2.6       0.1
 5 C  py              0.9       5.3       6.1       5.4       0.2       9.7
 5 C  dxz             0.0       0.0       0.0       0.2       0.0       0.0
 5 C  dyz             0.0       0.0       0.2       0.0       0.0       0.1
 6 C  s               0.1       0.0       0.0       0.0       0.0       0.1
 6 C  pz              2.8       0.5       4.3       0.7       3.5       0.0
 6 C  px              5.0      13.5      10.3       1.3       8.8       0.6
 6 C  py              3.6      19.1       2.2       0.0       0.4       2.3
 6 C  dxz             0.0       0.1       0.0       0.0       0.0       0.0
 6 C  dx2y2           0.0       0.2       0.0       0.0       0.1       0.0
 6 C  dxy             0.1       0.0       0.1       0.0       0.1       0.0
 7 O  s               0.5       2.4       0.6       1.4       0.2       0.2
 7 O  pz              0.1       1.6       0.2       0.3       2.3       0.1
 7 O  px              2.7       7.6       3.7      10.3       0.0       0.1
 7 O  py              0.0       1.2       0.3       0.2       3.1       8.7
 7 O  dz2             0.1       0.0       0.0       0.0       0.1       0.3
 7 O  dxz             0.0       0.0       0.0       0.0       0.1       0.1
 7 O  dyz             0.0       0.2       0.0       0.4       0.2       0.0
 7 O  dx2y2           0.1       0.0       0.0       0.1       0.0       0.1
 7 O  dxy             0.0       0.0       0.0       0.3       0.1       0.0
 8 H  s               7.4       0.0       0.1       2.2       4.7       0.5
 8 H  pz              0.0       0.0       0.0       0.0       0.1       0.1
 8 H  px              0.0       0.0       0.1       0.1       0.0       0.0
 8 H  py              0.2       0.0       0.0       0.0       0.1       0.1
 9 H  s               4.6       1.6       0.7       2.4      10.3       0.2
 9 H  py              0.1       0.0       0.0       0.1       0.0       0.0
10 H  s               0.2       1.0       0.7       0.2       0.6       9.9
10 H  px              0.1       0.0       0.0       0.0       0.1       0.0
11 H  s               1.3       0.6       1.1       0.7       0.0       8.1
11 H  pz              0.1       0.0       0.0       0.0       0.0       0.0
12 H  s               5.2       0.0       1.2       0.9       2.5       0.1
12 H  pz              0.0       0.0       0.0       0.0       0.0       0.1
12 H  py              0.1       0.0       0.0       0.0       0.0       0.0
13 H  s               1.2       0.0       0.0       0.0       4.3       1.8
14 H  s               0.2       0.2       0.0       5.8       0.1       0.4
14 H  pz              0.0       0.0       0.1       0.2       0.0       0.0
14 H  px              0.0       0.0       0.1       0.0       0.0       0.0
15 H  s               0.0       2.4      11.9       0.3       0.6       3.3
15 H  px              0.0       0.0       0.0       0.2       0.0       0.0
15 H  py              0.0       0.0       0.2       0.0       0.0       0.0
16 H  s               1.8       0.2       7.4       8.8       2.0       0.2
16 H  py              0.0       0.0       0.2       0.0       0.0       0.1
17 H  s               4.9       1.0       7.1       0.4       6.0       0.3
17 H  px              0.0       0.2       0.0       0.0       0.0       0.0
17 H  py              0.1       0.0       0.1       0.0       0.1       0.0
18 H  s               1.1      11.9       3.5       0.8       5.3       0.9
18 H  px              0.0       0.2       0.0       0.0       0.0       0.0
19 H  s               0.3       5.3       0.2       0.1       0.0       1.7
19 H  pz              0.0       0.1       0.1       0.0       0.0       0.0
19 H  px              0.0       0.1       0.1       0.0       0.1       0.0
20 H  s               0.0       2.0       0.2       0.6       0.0       0.3

                     24        25        26        27        28        29   
                  -0.31154  -0.29728  -0.29482  -0.27024  -0.23072   0.05819
                   2.00000   2.00000   2.00000   2.00000   2.00000   0.00000
                  --------  --------  --------  --------  --------  --------
 0 C  s               0.1       0.0       0.0       0.0       0.0       3.7
 0 C  pz              1.9       6.6       0.0       0.2       0.5       0.0
 0 C  px              0.7       0.3       1.2       5.9       0.1       0.1
 0 C  py              6.3       1.9       8.7       0.1       0.7       0.1
 0 C  dz2             0.0       0.2       0.1       0.0       0.0       0.0
 0 C  dxz             0.0       0.1       0.0       0.1       0.0       0.0
 0 C  dx2y2           0.0       0.0       0.1       0.1       0.0       0.0
 0 C  dxy             0.1       0.0       0.2       0.1       0.0       0.0
 1 C  s               0.0       0.0       0.0       0.4       0.0       3.2
 1 C  pz              0.4       5.1       0.2       3.4       0.2       0.3
 1 C  px              0.7       0.8       1.9      10.9       0.1       0.0
 1 C  py              7.7       2.4       9.1       0.6       0.4       0.5
 1 C  dz2             0.0       0.2       0.1       0.0       0.0       0.2
 1 C  dxz             0.0       0.2       0.2       0.0       0.0       0.0
 1 C  dyz             0.0       0.0       0.0       0.1       0.0       0.1
 1 C  dxy             0.1       0.0       0.2       0.1       0.2       0.4
 2 C  s               0.0       0.3       0.1       0.1       0.1       2.8
 2 C  pz              0.2       1.8       0.6       0.3       0.7       6.9
 2 C  px              1.1       0.1       0.1      13.5       1.9       1.1
 2 C  py              1.6       1.9       2.5       2.3       5.9       6.6
 2 C  dz2             0.1       0.2       0.1       0.1       0.2       0.7
 2 C  dxz             0.2       0.1       0.0       0.2       0.0       0.0
 2 C  dyz             0.0       0.1       0.0       0.4       0.7       0.2
 2 C  dx2y2           0.0       0.1       0.1       0.0       0.3       0.2
 2 C  dxy             0.0       0.0       0.0       0.1       0.6       0.0
 3 H  s               1.2       0.0       2.6       3.9       7.8       1.9
 3 H  px              0.0       0.0       0.0       0.1       0.0       0.0
 3 H  py              0.0       0.0       0.0       0.0       0.0       1.1
 4 C  s               0.0       0.1       0.0       0.2       0.9       3.5
 4 C  pz              4.5       5.1       9.6       0.4       0.2       2.0
 4 C  px              1.0       0.4       0.0       8.4       7.4       1.9
 4 C  py              5.9       6.5       0.7       1.3       2.4       1.9
 4 C  dz2             0.1       0.1       0.1       0.1       0.0       0.0
 4 C  dxz             0.0       0.3       0.1       0.0       0.0       0.1
 4 C  dyz             0.1       0.1       0.0       0.2       0.0       0.2
 4 C  dx2y2           0.0       0.0       0.2       0.0       0.1       0.0
 4 C  dxy             0.0       0.0       0.1       0.4       0.0       0.1
 5 C  s               0.2       0.2       0.3       0.1       0.0       3.4
 5 C  pz             10.6       1.6       7.9       0.1       0.9       0.1
 5 C  px              3.8       0.5       0.6       2.9       0.2       0.0
 5 C  py              3.4       3.7       1.2       2.2       0.8       0.3
 5 C  dxz             0.1       0.1       0.0       0.0       0.1       0.0
 5 C  dyz             0.0       0.1       0.0       0.1       0.0       0.0
 5 C  dx2y2           0.1       0.0       0.2       0.0       0.0       0.1
 5 C  dxy             0.0       0.0       0.0       0.1       0.1       0.1
 6 C  s               0.1       0.3       0.6       0.0       0.0       1.0
 6 C  pz              5.0       7.4       7.0       0.0       0.3       1.8
 6 C  px              0.8       0.2       1.9       1.6       0.9       0.2
 6 C  py              9.0       2.3       0.3       0.0       0.1       0.0
 6 C  dz2             0.0       0.0       0.0       0.1       0.0       0.2
 6 C  dyz             0.4       0.1       0.0       0.1       0.0       0.1
 7 O  s               0.6       0.6       0.5       1.3       0.0       6.3
 7 O  pz              0.0       6.6       0.0       1.3       5.6       1.6
 7 O  px              7.0       6.0      11.9       6.4       9.8       3.3
 7 O  py              0.0       4.1       2.4       4.5      44.0       1.3
 7 O  dz2             0.0       0.2       0.1       0.2       0.2       0.4
 7 O  dxz             0.1       0.0       0.2       0.9       0.1       2.0
 7 O  dyz             0.2       0.1       0.1       0.5       0.7       0.4
 7 O  dx2y2           0.0       0.2       0.0       0.0       0.0       0.0
 7 O  dxy             0.0       0.1       0.0       0.1       0.2       1.3
 8 H  s               1.2       1.8       5.7       1.4       0.1       0.2
 8 H  px              0.1       0.0       0.1       0.0       0.0       0.1
 9 H  s               0.1       1.0       0.1       4.1       0.0       0.5
 9 H  px              0.0       0.0       0.0       0.0       0.0       0.1
10 H  s               0.4       5.4       1.1       0.1       0.1       0.3
10 H  pz              0.0       0.1       0.0       0.0       0.0       0.2
11 H  s               0.0       5.4       2.0       0.0       0.0       1.4
11 H  pz              0.0       0.0       0.0       0.0       0.0       0.2
11 H  px              0.0       0.0       0.0       0.1       0.0       0.0
11 H  py              0.1       0.0       0.1       0.0       0.0       0.2
12 H  s               1.5       1.5       7.2       2.7       0.9       0.9
12 H  px              0.1       0.0       0.1       0.0       0.0       0.1
12 H  py              0.0       0.0       0.0       0.1       0.0       0.1
13 H  s               0.4       5.3       1.3       6.9       0.0       1.9
13 H  pz              0.1       0.0       0.0       0.0       0.0       0.5
13 H  py              0.0       0.0       0.0       0.0       0.0       0.6
14 H  s               7.7       2.1       1.4       0.7       0.1       0.4
14 H  px              0.1       0.0       0.0       0.0       0.0       0.1
15 H  s               0.1       3.0       1.6       1.4       0.1       0.4
15 H  pz              0.1       0.0       0.0       0.0       0.0       0.2
15 H  py              0.0       0.0       0.1       0.0       0.0       0.0
16 H  s               0.2       0.2       2.0       1.5       0.8       0.9
16 H  pz              0.1       0.0       0.0       0.0       0.0       0.0
16 H  px              0.0       0.0       0.0       0.0       0.0       0.3
17 H  s               1.3       3.0       0.1       0.9       0.0       0.5
17 H  pz              0.1       0.0       0.1       0.0       0.0       0.0
17 H  px              0.0       0.1       0.0       0.0       0.0       0.2
18 H  s               0.3       0.1       0.1       1.2       0.9       0.1
18 H  pz              0.0       0.1       0.1       0.0       0.0       0.1
19 H  s               8.8       0.1       1.5       0.1       0.1       0.5
19 H  py              0.1       0.0       0.0       0.0       0.0       0.2
20 H  s               0.5       0.1       0.3       1.2       0.0      19.4
20 H  pz              0.0       0.2       0.0       0.1       0.1       1.6
20 H  px              0.0       0.0       0.1       0.0       0.2       1.8
20 H  py              0.0       0.0       0.1       0.0       0.8       1.3

                     30        31        32        33        34        35   
                   0.09230   0.11112   0.12111   0.12870   0.13237   0.13668
                   0.00000   0.00000   0.00000   0.00000   0.00000   0.00000
                  --------  --------  --------  --------  --------  --------
 0 C  s               0.8      13.0       0.7       2.0       4.2       3.3
 0 C  pz              0.3       1.3       0.7       6.2       1.6       0.3
 0 C  px              0.3       0.9       2.5       0.4       2.6       1.7
 0 C  py              1.8       4.4       0.5       2.1       6.9       0.2
 0 C  dxz             0.1       0.0       0.2       0.0       0.1       0.0
 0 C  dyz             0.0       0.0       0.1       0.3       0.2       0.0
 0 C  dx2y2           0.1       0.0       0.3       0.1       0.0       0.2
 0 C  dxy             0.1       0.1       0.1       0.1       0.5       0.0
[...]
 2 C  dyz             0.1       1.7       0.0       0.0       0.0       0.0
 2 C  dx2y2           0.0       0.6       0.0       0.0       0.0       0.0
 2 C  dxy             0.8       0.2       0.1       0.0       0.0       0.0
 3 H  s               0.0       1.0       0.0       0.0       0.0       0.0
 3 H  py              0.0       1.6       0.0       0.0       0.0       0.0
 4 C  s               0.7       0.1       0.0       8.7       1.5      12.0
 4 C  pz              2.0       0.0       0.0       0.0       0.0       0.0
 4 C  px              1.1       0.1       0.0       0.0       0.0       0.0
 4 C  py              1.7       0.0       0.0       0.0       0.0       0.0
 4 C  dz2             0.1       0.1       0.0       0.0       0.0       0.0
 4 C  dxz             3.9       0.1       0.0       0.0       0.0       0.0
 4 C  dyz             2.7       0.0       0.0       0.0       0.0       0.0
 4 C  dxy             2.9       0.1       0.0       0.0       0.0       0.0
 5 C  s               0.2       0.0       0.0      15.0       4.1      24.8
 5 C  px              0.7       0.0       0.0       0.0       0.0       0.0
 5 C  py              0.7       0.0       0.0       0.0       0.0       0.0
 5 C  dz2             0.1       0.0       0.0       0.0       0.0       0.0
 5 C  dxz             1.9       0.0       0.0       0.0       0.0       0.0
 5 C  dyz             0.7       0.0       0.0       0.0       0.0       0.0
 5 C  dx2y2           0.2       0.0       0.0       0.0       0.0       0.0
 6 C  s               0.5       0.1       0.0      38.2      46.0       0.0
 6 C  pz              1.0       0.0       0.0       0.0       0.0       0.0
 6 C  px              0.2       0.1       0.0       0.0       0.0       0.0
 6 C  py              0.2       0.1       0.0       0.0       0.0       0.0
 6 C  dz2             0.5       0.0       0.0       0.0       0.0       0.0
 6 C  dxz             1.3       0.0       0.0       0.0       0.0       0.0
 6 C  dyz             0.4       0.0       0.0       0.0       0.0       0.0
 6 C  dxy             0.3       0.0       0.0       0.0       0.0       0.0
 7 O  s               0.1      27.0       6.6       0.0       0.0       0.0
 7 O  pz              0.1      13.0      11.3       0.0       0.0       0.0
 7 O  px              0.1       5.4       4.7       0.0       0.0       0.0
 7 O  py              0.0       0.1       4.6       0.0       0.0       0.0
 7 O  dz2             0.0      12.3       1.4       0.0       0.0       0.0
 7 O  dxz             0.0       3.7      19.3       0.0       0.0       0.0
 7 O  dyz             0.0       4.7       6.5       0.0       0.0       0.0
 7 O  dx2y2           0.1       1.4       0.5       0.0       0.0       0.0
 7 O  dxy             0.1       0.7      11.5       0.0       0.0       0.0
 8 H  s               0.2       0.0       0.0       0.0       0.0       0.0
 8 H  px              0.1       0.0       0.0       0.0       0.0       0.0
 8 H  py              0.4       0.0       0.0       0.0       0.0       0.0
 9 H  s               0.8       0.0       0.0       0.0       0.0       0.0
 9 H  pz              0.8       0.0       0.0       0.0       0.0       0.0
 9 H  px              0.8       0.0       0.0       0.0       0.0       0.0
10 H  s               0.9       0.0       0.0       0.0       0.0       0.0
10 H  pz              1.5       0.0       0.0       0.0       0.0       0.0
10 H  px              0.6       0.0       0.0       0.0       0.0       0.0
11 H  s               2.4       0.1       0.0       0.0       0.0       0.0
11 H  pz              5.4       0.2       0.0       0.0       0.0       0.0
11 H  px              0.2       0.0       0.0       0.0       0.0       0.0
12 H  s               4.6       0.0       0.0       0.0       0.0       0.0
12 H  pz              0.3       0.0       0.0       0.0       0.0       0.0
12 H  px              4.2       0.1       0.0       0.0       0.0       0.0
12 H  py              5.4       0.0       0.0       0.0       0.0       0.0
13 H  s               3.9       0.0       0.0       0.0       0.0       0.0
13 H  pz              2.8       0.0       0.0       0.0       0.0       0.0
13 H  px              3.3       0.0       0.0       0.0       0.0       0.0
13 H  py              3.5       0.0       0.0       0.0       0.0       0.0
14 H  s               0.5       0.0       0.0       0.0       0.0       0.0
14 H  pz              1.0       0.0       0.0       0.0       0.0       0.0
15 H  s               0.2       0.0       0.0       0.0       0.0       0.0
15 H  px              0.1       0.0       0.0       0.0       0.0       0.0
15 H  py              0.4       0.0       0.0       0.0       0.0       0.0
16 H  s               0.6       0.0       0.0       0.0       0.0       0.0
16 H  px              1.2       0.0       0.0       0.0       0.0       0.0
17 H  s               0.5       0.0       0.0       0.0       0.0       0.0
17 H  pz              0.6       0.0       0.0       0.0       0.0       0.0
17 H  px              0.2       0.0       0.0       0.0       0.0       0.0
17 H  py              0.5       0.0       0.0       0.0       0.0       0.0
20 H  s               0.0       0.6      13.9       0.0       0.0       0.0
20 H  pz              0.1       0.5       5.0       0.0       0.0       0.0
20 H  px              0.0       0.3       6.8       0.0       0.0       0.0
20 H  py              0.0       0.3       4.1       0.0       0.0       0.0

                    204       205       206       207   
                  22.08260  22.14251  22.21762  43.72196
                   0.00000   0.00000   0.00000   0.00000
                  --------  --------  --------  --------
 0 C  s               3.7       0.4       0.5       0.0
 1 C  s              29.4      16.9       1.5       0.0
 2 C  s               1.3      31.5      65.0       0.1
 4 C  s               7.4      41.9      28.3       0.0
 5 C  s              55.3       0.3       0.2       0.0
 6 C  s               2.5       8.6       4.2       0.0
 7 O  s               0.0       0.0       0.0      99.8


                      *****************************
                      * MAYER POPULATION ANALYSIS *
                      *****************************

  NA   - Mulliken gross atomic population
  ZA   - Total nuclear charge
  QA   - Mulliken gross atomic charge
  VA   - Mayer's total valence
  BVA  - Mayer's bonded valence
  FA   - Mayer's free valence

  ATOM       NA         ZA         QA         VA         BVA        FA
  0 C      6.4939     6.0000    -0.4939     3.7884     3.7884    -0.0000
  1 C      6.2843     6.0000    -0.2843     3.7125     3.7125    -0.0000
  2 C      5.9551     6.0000     0.0449     3.5287     3.5287    -0.0000
  3 H      0.8694     1.0000     0.1306     0.9496     0.9496    -0.0000
  4 C      5.9961     6.0000     0.0039     3.4472     3.4472    -0.0000
  5 C      6.5402     6.0000    -0.5402     3.7101     3.7101    -0.0000
  6 C      6.5273     6.0000    -0.5273     3.8235     3.8235    -0.0000
  7 O      8.4355     8.0000    -0.4355     1.7998     1.7998     0.0000
  8 H      0.8629     1.0000     0.1371     0.9668     0.9668     0.0000
  9 H      0.8573     1.0000     0.1427     0.9621     0.9621     0.0000
 10 H      0.8199     1.0000     0.1801     0.9565     0.9565    -0.0000
 11 H      0.8574     1.0000     0.1426     0.9633     0.9633    -0.0000
 12 H      0.8525     1.0000     0.1475     0.9602     0.9602    -0.0000
 13 H      0.8657     1.0000     0.1343     0.9627     0.9627    -0.0000
 14 H      0.8219     1.0000     0.1781     0.9567     0.9567     0.0000
 15 H      0.8530     1.0000     0.1470     0.9650     0.9650    -0.0000
 16 H      0.8520     1.0000     0.1480     0.9628     0.9628    -0.0000
 17 H      0.8419     1.0000     0.1581     0.9617     0.9617    -0.0000
 18 H      0.8506     1.0000     0.1494     0.9624     0.9624    -0.0000
 19 H      0.8510     1.0000     0.1490     0.9628     0.9628    -0.0000
 20 H      0.7122     1.0000     0.2878     0.9168     0.9168     0.0000

  Mayer bond orders larger than 0.100000
B(  0-C ,  1-C ) :   0.8882 B(  0-C ,  8-H ) :   0.9683 B(  0-C ,  9-H ) :   0.9721 
B(  0-C , 10-H ) :   0.9837 B(  1-C ,  2-C ) :   0.9446 B(  1-C , 11-H ) :   0.9768 
B(  1-C , 12-H ) :   0.9605 B(  2-C ,  3-H ) :   0.9663 B(  2-C ,  4-C ) :   0.9069 
B(  2-C ,  7-O ) :   0.8906 B(  4-C ,  5-C ) :   0.8624 B(  4-C ,  6-C ) :   0.9045 
B(  4-C , 13-H ) :   0.9609 B(  5-C , 14-H ) :   0.9727 B(  5-C , 15-H ) :   0.9826 
B(  5-C , 16-H ) :   0.9667 B(  6-C , 17-H ) :   0.9858 B(  6-C , 18-H ) :   0.9660 
B(  6-C , 19-H ) :   0.9739 B(  7-O , 20-H ) :   0.8983 

-------
TIMINGS
-------

Total SCF time: 0 days 0 hours 0 min 25 sec 

Total time                  ....      25.691 sec
Sum of individual times     ....      25.178 sec  ( 98.0%)

SCF preparation             ....       0.186 sec  (  0.7%)
Fock matrix formation       ....      24.007 sec  ( 93.4%)
  Startup                   ....       0.083 sec  (  0.3% of F)
  Split-RI-J                ....       4.410 sec  ( 18.4% of F)
  XC integration            ....      18.879 sec  ( 78.6% of F)
    XC Preparation          ....       0.000 sec  (  0.0% of XC)
    Basis function eval.    ....       3.409 sec  ( 18.1% of XC)
    Density eval.           ....       5.695 sec  ( 30.2% of XC)
    XC-Functional eval.     ....       2.418 sec  ( 12.8% of XC)
    XC-Potential eval.      ....       6.226 sec  ( 33.0% of XC)
Diagonalization             ....       0.000 sec  (  0.0%)
Density matrix formation    ....       0.262 sec  (  1.0%)
Total Energy calculation    ....       0.036 sec  (  0.1%)
Population analysis         ....       0.118 sec  (  0.5%)
Orbital Transformation      ....       0.061 sec  (  0.2%)
Orbital Orthonormalization  ....       0.000 sec  (  0.0%)
DIIS solution               ....       0.453 sec  (  1.8%)
  MO trafo                  ....       0.000 sec  (  0.0 % of DIIS)
  Orb grad                  ....       0.000 sec  (  0.0 % of DIIS)
  Energy W gradient         ....       0.000 sec  (  0.0 % of DIIS)
  DIIS error                ....       0.012 sec  (  2.6 % of DIIS)
  DIIS work                 ....       0.394 sec  ( 86.9 % of DIIS)
  Form Q                    ....       0.000 sec  (  0.0 % of DIIS)
  Form QpQm                 ....       0.000 sec  (  0.0 % of DIIS)
  Exp/Cayley                ....       0.000 sec  (  0.0 % of DIIS)
  Orb update                ....       0.000 sec  (  0.0 % of DIIS)
  Wake-sleep                ....       0.020 sec  (  4.4 % of DIIS)
SOSCF solution              ....       0.054 sec  (  0.2%)
  MO trafo                  ....       0.042 sec  ( 78.2 % of SOSCF)
  Orb grad                  ....       0.001 sec  (  1.2 % of SOSCF)
  Rot update                ....       0.000 sec  (  0.1 % of SOSCF)
  Step                      ....       0.011 sec  ( 20.4 % of SOSCF)
Finished LeanSCF after  25.8 sec

Maximum memory used throughout the entire LEANSCF-calculation: 23.5 MB


-------------------------------------------------------------------------------
                          DFT DISPERSION CORRECTION                            
                                                                               
                                DFTD4 V3.4.0                                   
-------------------------------------------------------------------------------
The R2SCAN3C composite method is recognized
Using three-body term ABC
Active option DFTDOPT                   ...         5   

-------------------------   ----------------
Dispersion correction           -0.005881721
-------------------------   ----------------

------------------   -----------------
gCP correction             0.011396810
------------------   -----------------

-------------------------   --------------------
FINAL SINGLE POINT ENERGY      -312.198542046031
-------------------------   --------------------


------------------------------------------------------------------------------
                              ORCA PROPERTY CALCULATIONS
------------------------------------------------------------------------------

GBWName                                 ... sp_gas.gbw
Number of atoms                         ...     21
Number of basis functions               ...    208
Max core memory                         ...   1024 MB

Electric properties:
Dipole moment                           ... YES
Quadrupole moment                       ...  NO
Static polarizability (Dipole/Dipole)   ...  NO
Static polarizability (Dipole/Quad.)    ...  NO
Static polarizability (Quad./Quad.)     ...  NO
Static polarizability (Velocity)        ...  NO

Atomic electric properties:
Dipole moment                           ...  NO
Quadrupole moment                       ...  NO
Static polarizability                   ...  NO

Choice of electric origin               ... Center of mass
Position of electric origin             ...    -0.000009    -0.000015     0.000015

General magnetic properties:
Magnetizability                         ...  NO

EPR properties:
g-Tensor (aka g-matrix)                 ...  NO
Zero-Field splitting spin-orbit         ...  NO
Zero-field splitting spin-spin          ...  NO
Hyperfine couplings                     ...  NO (   0 nuclei)
Quadrupole couplings                    ...  NO (   0 nuclei)
Contact density                         ...  NO (   0 nuclei)

NMR properties:
Chemical shifts                         ...  NO (   0 nuclei)
Spin-rotation constants                 ...  NO (   0 nuclei)
Spin-spin couplings                     ...  NO (   0 nuclei,    0 pairs)

Choice of magnetic origin               ... GIAO
Position of magnetic origin             ...     0.000000     0.000000     0.000000

Properties with geometric perturbations:
SCF Hessian                             ...  NO
IR spectrum                             ...  NO
VCD spectrum                            ...  NO
X-ray spectroscopy properties:
SCF XES/XAS/RIXS spectra                ...  NO


-------------
DIPOLE MOMENT
-------------

Method             : SCF
Type of density    : Electron Density
Multiplicity       :   1
Irrep              :   0
Energy             :  -312.2040571353052769 Eh
Relativity type    : 
Basis              : AO
                                X                 Y                 Z
Electronic contribution:      1.343084359       3.661078790      -2.645933714
Nuclear contribution   :     -1.872016434      -3.457086315       2.758777722
                        -----------------------------------------
Total Dipole Moment    :     -0.528932075       0.203992475       0.112844008
                        -----------------------------------------
Magnitude (a.u.)       :      0.578027542
Magnitude (Debye)      :      1.469229251



--------------------
Rotational spectrum 
--------------------
 
Rotational constants in cm-1:             0.102221             0.064089             0.059622 
Rotational constants in MHz :          3064.508220          1921.354522          1787.418404 

Dipole components along the rotational axes: 
x,y,z [a.u.] :    -0.521810    -0.100715    -0.227348 
x,y,z [Debye]:    -1.326335    -0.255996    -0.577873 

 

Dipole moment calculation done in   0.0 sec 

Maximum memory used throughout the entire PROP-calculation: 13.2 MB

--------------------------------
SUGGESTED CITATIONS FOR THIS RUN
--------------------------------

Below you find a list of papers that are relevant to this ORCA run
We neither can nor want to force you to cite these papers, but we appreciate if you do
You receive ORCA, which is the product of decades of hard work by many enthusiastic individuals, for free
The only thing we kindly ask in return is that you cite our papers,
We deeply appreciate it, if you show your appreciation for ORCA by not just citing the generic ORCA reference.

Please note that relegating all ORCA citations to the supporting information does *not* help us.
SI sections are not indexed - citations you put there will not count into any citation statistics
But we need these citations in order to attract the funding resources that allow us to do what we are doing

Therefore, if you are a happy ORCA user, please consider citing a few of the papers listed below in the main body of your paper

In addition to the list printed below, the program has created the file sp_gas.bibtex that contains the list in bibtex format
You can import this file easily into all common literature databanks and citation aid programs


List of essential papers. We consider these as the minimum necessary citations

  1. Neese,F.
     Software update: the ORCA program system, version 5.0
     WIRES Comput. Molec. Sci., 2022 12(1)e1606
     doi.org/10.1002/wcms.1606
  2. Grimme,S.; Hansen,A.; Ehlert,S.; Mewes,J.
     r2SCAN-3c: A 'Swiss army knife' composite electronic-structure method
     J. Chem. Phys., 2021 154 064103
     doi.org/10.1063/5.0040021

List of papers to cite with high priority. The work reported in these papers was absolutely
necessary for this run to complete.
Our perspective: the developers of density functionals and basis sets usually get cited in chemistry papers
Good! But without the algorithms to do something with them, the functionals or basis sets would not do anything.
Hence, in our opinion, the algorithm design and method developments papers are equally worthy of getting cited

  1. Neese,F.
     An improvement of the resolution of the identity approximation for the formation of the Coulomb matrix
     J. Comp. Chem., 2003 24(14)1740-1747
     doi.org/10.1002/jcc.10318
  2. Neese,F.
     The SHARK Integral Generation and Digestion System
     J. Comp. Chem., 2022  1-16
     doi.org/10.1002/jcc.26942
  3. Lehtola,S.; Steigemann,C.; Oliveira,M.; Marques,M.
     Recent developments in Libxc - A comprehensive library of functionals for density functional theory
     Software X, 2018 7 
     doi.org/10.1016/j.softx.2017.11.002
  4. Caldeweyher,E.; Bannwarth,C.; Grimme,S.
     Extension of the D3 dispersion coefficient model
     J. Chem. Phys., 2017 147 034112-XXXX
     doi.org/10.1063/1.4993215
  5. Caldeweyher,E.; Ehlert,S.; Hansen,A.; Neugebauer,H.; Spicher,S.; Bannwarth,C.; Grimme,S.
     A generally applicable atomic-charge dependent London dispersion correction
     J. Chem. Phys., 2019 150 154122-XXXX
     doi.org/10.1063/1.5090222
  6. Caldeweyher,E.; Mewes,J.; Ehlert,S.; Grimme,S.
     Extension and evaluation of the D4 London-dispersion model for periodic systems
     Phys. Chem. Chem. Phys., 2020 22(16)8499-8512
     doi.org/10.1039/D0CP00502A

List of suggested additional citations. These are papers that are important in the 'surrounding' of 
of this run, or papers that preceded the highly important papers. If you like your results we are grateful for a citation.

  1. Neese,F.
     The ORCA program system
     WIRES Comput. Molec. Sci., 2012 2(1)73-78
     doi.org/10.1002/wcms.81
  2. Neese,F.
     Software update: the ORCA program system, version 4.0
     WIRES Comput. Molec. Sci., 2018 8(1)1-6
     doi.org/10.1002/wcms.1327
  3. Neese,F.; Wennmohs,F.; Becker,U.; Riplinger,C.
     The ORCA quantum chemistry program package
     J. Chem. Phys., 2020 152 Art. No. L224108
     doi.org/10.1063/5.0004608

List of optional additional citations

  1. Neese,F.
     Approximate second-order SCF convergence for spin unrestricted wavefunctions
     Chem. Phys. Lett., 2000 325(1-3)93-98
     doi.org/10.1016/s0009-2614(00)00662-x

Timings for individual modules:

Sum of individual times          ...       27.430 sec (=   0.457 min)
Startup calculation              ...        1.240 sec (=   0.021 min)   4.5 %
SCF iterations                   ...       26.065 sec (=   0.434 min)  95.0 %
Property calculations            ...        0.126 sec (=   0.002 min)   0.5 %
                             ****ORCA TERMINATED NORMALLY****
TOTAL RUN TIME: 0 days 0 hours 0 minutes 28 seconds 242 msec
