      -----------------------------------------------------------      
     |                   =====================                   |     
     |                           x T B                           |     
     |                   =====================                   |     
     |                         S. Grimme                         |     
     |          Mulliken Center for Theoretical Chemistry        |     
     |                    University of Bonn                     |     
      -----------------------------------------------------------      

   * xtb version 6.7.1 (edcfbbe) compiled by 'albert@albert-system' on 2024-07-22

   xtb is free software: you can redistribute it and/or modify it under
   the terms of the GNU Lesser General Public License as published by
   the Free Software Foundation, either version 3 of the License, or
   (at your option) any later version.
   
   xtb is distributed in the hope that it will be useful,
   but WITHOUT ANY WARRANTY; without even the implied warranty of
   MERCHANTABILITY or FITNESS FOR A PARTICULAR PURPOSE.  See the
   GNU Lesser General Public License for more details.
   
   Cite this work as:
   * C. Bannwarth, E. Caldeweyher, S. Ehlert, A. Hansen, P. Pracht,
     J. Seibert, S. Spicher, S. Grimme, WIREs Comput. Mol. Sci., 2020, 11,
     e01493. DOI: 10.1002/wcms.1493
   
   for GFN2-xTB:
   * C. Bannwarth, S. Ehlert and S. Grimme., J. Chem. Theory Comput., 2019,
     15, 1652-1671. DOI: 10.1021/acs.jctc.8b01176
   for GFN1-xTB:
   * S. Grimme, C. Bannwarth, P. Shushkov, J. Chem. Theory Comput., 2017,
     13, 1989-2009. DOI: 10.1021/acs.jctc.7b00118
   for GFN0-xTB:
   * P. Pracht, E. Caldeweyher, S. Ehlert, S. Grimme, ChemRxiv, 2019, preprint.
     DOI: 10.26434/chemrxiv.8326202.v1
   for GFN-FF:
   * S. Spicher and S. Grimme, Angew. Chem. Int. Ed., 2020, 59, 15665-15673.
     DOI: 10.1002/anie.202004239
   
   for ALPB and GBSA implicit solvation:
   * S. Ehlert, M. Stahn, S. Spicher, S. Grimme, J. Chem. Theory Comput.,
     2021, 17, 4250-4261. DOI: 10.1021/acs.jctc.1c00471
   
   for ddCOSMO and CPCM-X implicit solvation:
   * M. Stahn, S. Ehlert, S. Grimme, J. Phys. Chem. A,
     2023, XX, XXXX-XXXX. DOI: 10.1021/acs.jpca.3c04382
   
   for DFT-D4:
   * E. Caldeweyher, C. Bannwarth and S. Grimme, J. Chem. Phys., 2017,
     147, 034112. DOI: 10.1063/1.4993215
   * E. Caldeweyher, S. Ehlert, A. Hansen, H. Neugebauer, S. Spicher,
     C. Bannwarth and S. Grimme, J. Chem. Phys., 2019, 150, 154122.
     DOI: 10.1063/1.5090222
   * E. Caldeweyher, J.-M. Mewes, S. Ehlert and S. Grimme, Phys. Chem. Chem. Phys.
     2020, 22, 8499-8512. DOI: 10.1039/D0CP00502A
   
   for sTDA-xTB:
   * S. Grimme and C. Bannwarth, J. Chem. Phys., 2016, 145, 054103.
     DOI: 10.1063/1.4959605
   
   in the mass-spec context:
   * V. Asgeirsson, C. Bauer and S. Grimme, Chem. Sci., 2017, 8, 4879.
     DOI: 10.1039/c7sc00601b
   * J. Koopman and S. Grimme, ACS Omega 2019, 4, 12, 15120-15133.
     DOI: 10.1021/acsomega.9b02011
   
   for metadynamics refer to:
   * S. Grimme, J. Chem. Theory Comput., 2019, 155, 2847-2862
     DOI: 10.1021/acs.jctc.9b00143
   
   for SPH calculations refer to:
   * S. Spicher and S. Grimme, J. Chem. Theory Comput., 2021, 17, 1701-1714
     DOI: 10.1021/acs.jctc.0c01306
   
   for ONIOM refer to:
   * C. Plett, A. Katbashev, S. Ehlert, S. Grimme, M. Bursch,
     Phys. Chem. Chem. Phys., 2023, 25, 17860-17868. DOI: 10.1039/D3CP02178E
   
   for DIPRO refer to:
   * J. Kohn, N. Gildemeister, S. Grimme, D. Fazzi, A. Hansen,
     J. Chem. Phys., 2023, just accepted.
   
   for PTB refer to:
   * S. Grimme, M. Mueller, A. Hansen, J. Chem. Phys., 2023, 158, 124111.
     DOI: 10.1063/5.0137838
   
   with help from (in alphabetical order)
   P. Atkinson, C. Bannwarth, F. Bohle, G. Brandenburg, E. Caldeweyher
   M. Checinski, S. Dohm, S. Ehlert, S. Ehrlich, I. Gerasimov, C. Hölzer
   A. Katbashev, J. Kohn, J. Koopman, C. Lavigne, S. Lehtola, F. März, M. Müller,
   F. Musil, H. Neugebauer, J. Pisarek, C. Plett, P. Pracht, F. Pultar,
   J. Seibert, P. Shushkov, S. Spicher, M. Stahn, M. Steiner, T. Strunk,
   J. Stückrath, T. Rose, and J. Unsleber
   
 * started run on 2025/04/11 at 11:10:56.277     
   ID    Z sym.   atoms
    1    6 C      1-4, 6
    2    1 H      5, 8-18
    3    8 O      7

           -------------------------------------------------
          |                Calculation Setup                |
           -------------------------------------------------

          program call               : /srv/scratch/z5358697/.xtb/bin/xtb solv.coord --gfn2 --sp --chrg 0 --norestart --parallel 1 --alpb water reference -I xtb_sp-xcontrol-inp
          hostname                   : k128
          coordinate file            : solv.coord
          omp threads                :                     1


           -------------------------------------------------
          |                 G F N 2 - x T B                 |
           -------------------------------------------------

        Reference                      10.1021/acs.jctc.8b01176
      * Hamiltonian:
        H0-scaling (s, p, d)           1.850000    2.230000    2.230000
        zeta-weighting                 0.500000
      * Dispersion:
        s8                             2.700000
        a1                             0.520000
        a2                             5.000000
        s9                             5.000000
      * Repulsion:
        kExp                           1.500000    1.000000
        rExp                           1.000000
      * Coulomb:
        alpha                          2.000000
        third order                    shell-resolved
        anisotropic                    true
        a3                             3.000000
        a5                             4.000000
        cn-shift                       1.200000
        cn-exp                         4.000000
        max-rad                        5.000000

      * Solvation model:               ALPB
        Solvent                        water
        Parameter file                 internal GFN2-xTB/ALPB
        Dielectric constant                8.0200E+01
        Reference state                gsolv=reference [X=1]
        Free energy shift                  2.8945E-03 Eh       1.8164E+00 kcal/mol
        Temperature                        2.9815E+02 K
        Density                            1.0000E+00 kg/L
        Solvent mass                       1.8000E+01 g/mol
        Interaction kernel             P16
        Born radius scaling (c1)           1.4744E+00
        Born radii integrator          GBOBC
        Born offset                        0.0000E+00 a0       0.0000E+00 AA
        H-bond correction              true
        Ion screening                  false
        Surface tension                    1.0000E-05 Eh       1.5569E+01 dyn/cm
        Grid points                               974 per atom

          ...................................................
          :                      SETUP                      :
          :.................................................:
          :  # basis functions                  36          :
          :  # atomic orbitals                  36          :
          :  # shells                           24          :
          :  # electrons                        38          :
          :  max. iterations                   250          :
          :  Hamiltonian                  GFN2-xTB          :
          :  restarted?                      false          :
          :  GBSA solvation                   true          :
          :  PC potential                    false          :
          :  electronic temp.          300.0000000     K    :
          :  accuracy                    1.0000000          :
          :  -> integral cutoff          0.2500000E+02      :
          :  -> integral neglect         0.1000000E-07      :
          :  -> SCF convergence          0.1000000E-05 Eh   :
          :  -> wf. convergence          0.1000000E-03 e    :
          :  Broyden damping             0.4000000          :
          :  net charge                          0          :
          :  unpaired electrons                  0          :
          ...................................................

 iter      E             dE          RMSdq      gap      omega  full diag
   1    -21.1283960 -0.211284E+02  0.311E+00   12.51       0.0  T
   2    -21.1570516 -0.286556E-01  0.166E+00   12.39       1.0  T
   3    -21.1578917 -0.840097E-03  0.594E-01   12.41       1.0  T
   4    -21.1581325 -0.240823E-03  0.130E-01   12.36       1.0  T
   5    -21.1581912 -0.587077E-04  0.640E-02   12.38       1.0  T
   6    -21.1581931 -0.188422E-05  0.102E-02   12.38       2.3  T
   7    -21.1581933 -0.241905E-06  0.496E-03   12.38       4.7  T
   8    -21.1581934 -0.502700E-07  0.195E-03   12.38      12.1  T
   9    -21.1581934 -0.553893E-08  0.629E-04   12.38      37.5  T
  10    -21.1581934 -0.117889E-08  0.150E-04   12.38     157.4  T

   *** convergence criteria satisfied after 10 iterations ***

         #    Occupation            Energy/Eh            Energy/eV
      -------------------------------------------------------------
         1        2.0000           -0.6837834             -18.6067
       ...           ...                  ...                  ...
        13        2.0000           -0.4631146             -12.6020
        14        2.0000           -0.4575684             -12.4511
        15        2.0000           -0.4432852             -12.0624
        16        2.0000           -0.4359755             -11.8635
        17        2.0000           -0.4307861             -11.7223
        18        2.0000           -0.4203028             -11.4370
        19        2.0000           -0.4034398             -10.9782 (HOMO)
        20                          0.0516391               1.4052 (LUMO)
        21                          0.0739631               2.0126
        22                          0.1036647               2.8209
        23                          0.1248715               3.3979
        24                          0.1290260               3.5110
       ...                                ...                  ...
        36                          0.3080697               8.3830
      -------------------------------------------------------------
                  HL-Gap            0.4550789 Eh           12.3833 eV
             Fermi-level           -0.1759003 Eh           -4.7865 eV

 SCC (total)                   0 d,  0 h,  0 min,  0.014 sec
 SCC setup                      ...        0 min,  0.001 sec (  8.760%)
 Dispersion                     ...        0 min,  0.000 sec (  0.738%)
 classical contributions        ...        0 min,  0.000 sec (  0.176%)
 integral evaluation            ...        0 min,  0.001 sec (  8.841%)
 iterations                     ...        0 min,  0.007 sec ( 52.751%)
 molecular gradient             ...        0 min,  0.004 sec ( 27.228%)
 printout                       ...        0 min,  0.000 sec (  1.203%)

         :::::::::::::::::::::::::::::::::::::::::::::::::::::
         ::                     SUMMARY                     ::
         :::::::::::::::::::::::::::::::::::::::::::::::::::::
         :: total energy             -20.895865424603 Eh    ::
         :: total w/o Gsasa/hb       -20.894350058858 Eh    ::
         :: gradient norm              0.000041483988 Eh/a0 ::
         :: HOMO-LUMO gap             12.383326449616 eV    ::
         ::.................................................::
         :: SCC energy               -21.158166198503 Eh    ::
         :: -> isotropic ES            0.036487014200 Eh    ::
         :: -> anisotropic ES          0.004129217726 Eh    ::
         :: -> anisotropic XC          0.008120992515 Eh    ::
         :: -> dispersion             -0.009736916503 Eh    ::
         :: -> Gsolv                  -0.005854287313 Eh    ::
         ::    -> Gelec               -0.004338921568 Eh    ::
         ::    -> Gsasa                0.000328438670 Eh    ::
         ::    -> Ghb                 -0.004738353576 Eh    ::
         ::    -> Gshift               0.002894549160 Eh    ::
         :: repulsion energy           0.262300773900 Eh    ::
         :: add. restraining           0.000000000000 Eh    ::
         :: total charge              -0.000000000000 e     ::
         :::::::::::::::::::::::::::::::::::::::::::::::::::::

           -------------------------------------------------
          |                Property Printout                |
           -------------------------------------------------

    * Orbital Energies and Occupations

         #    Occupation            Energy/Eh            Energy/eV
      -------------------------------------------------------------
         1        2.0000           -0.6837834             -18.6067
       ...           ...                  ...                  ...
         7        2.0000           -0.5358396             -14.5809
         8        2.0000           -0.5238333             -14.2542
         9        2.0000           -0.5140084             -13.9869
        10        2.0000           -0.4953486             -13.4791
        11        2.0000           -0.4855324             -13.2120
        12        2.0000           -0.4769085             -12.9773
        13        2.0000           -0.4631146             -12.6020
        14        2.0000           -0.4575684             -12.4511
        15        2.0000           -0.4432852             -12.0624
        16        2.0000           -0.4359755             -11.8635
        17        2.0000           -0.4307861             -11.7223
        18        2.0000           -0.4203028             -11.4370
        19        2.0000           -0.4034398             -10.9782 (HOMO)
        20                          0.0516391               1.4052 (LUMO)
        21                          0.0739631               2.0126
        22                          0.1036647               2.8209
        23                          0.1248715               3.3979
        24                          0.1290260               3.5110
        25                          0.1437396               3.9114
        26                          0.1592947               4.3346
        27                          0.1725120               4.6943
        28                          0.1860291               5.0621
        29                          0.2010114               5.4698
        30                          0.2162230               5.8837
       ...                                ...                  ...
        36                          0.3080697               8.3830
      -------------------------------------------------------------
                  HL-Gap            0.4550789 Eh           12.3833 eV
             Fermi-level           -0.1759003 Eh           -4.7865 eV

     #   Z          covCN         q      C6AA      α(0)
     1   6 C        3.752    -0.111    22.688     6.793
     2   6 C        3.800    -0.059    21.629     6.622
     3   6 C        3.802    -0.079    22.001     6.678
     4   6 C        3.724     0.114    18.813     6.194
     5   1 H        0.924     0.035     2.515     2.480
     6   6 C        3.752    -0.132    23.090     6.852
     7   8 O        1.654    -0.517    23.252     6.509
     8   1 H        0.925     0.038     2.477     2.461
     9   1 H        0.925     0.037     2.485     2.465
    10   1 H        0.925     0.035     2.520     2.483
    11   1 H        0.924     0.034     2.536     2.490
    12   1 H        0.924     0.040     2.449     2.447
    13   1 H        0.924     0.042     2.425     2.435
    14   1 H        0.924     0.037     2.486     2.465
    15   1 H        0.925     0.047     2.354     2.399
    16   1 H        0.925     0.046     2.369     2.407
    17   1 H        0.925     0.050     2.319     2.381
    18   1 H        0.805     0.341     0.609     1.226

 Mol. C6AA /au·bohr⁶  :       2112.448495
 Mol. C8AA /au·bohr⁸  :      43614.552741
 Mol. α(0) /au        :         67.788331


Wiberg/Mayer (AO) data.
largest (>0.10) Wiberg bond orders for each atom

 ---------------------------------------------------------------------------
     #   Z sym  total        # sym  WBO       # sym  WBO       # sym  WBO
 ---------------------------------------------------------------------------
     1   6 C    3.997 --     2 C    1.021     8 H    0.987     9 H    0.987
                            10 H    0.986
     2   6 C    3.997 --     1 C    1.021     3 C    1.007    11 H    0.979
                            12 H    0.976
     3   6 C    3.997 --     2 C    1.007     4 C    0.988    14 H    0.975
                            13 H    0.975
     4   6 C    3.951 --     6 C    1.000     3 C    0.988     7 O    0.982
                             5 H    0.962
     5   1 H    0.999 --     4 C    0.962
     6   6 C    3.994 --     4 C    1.000    17 H    0.985    15 H    0.985
                            16 H    0.985
     7   8 O    1.921 --     4 C    0.982    18 H    0.867
     8   1 H    0.999 --     1 C    0.987
     9   1 H    0.998 --     1 C    0.987
    10   1 H    0.999 --     1 C    0.986
    11   1 H    0.999 --     2 C    0.979
    12   1 H    0.998 --     2 C    0.976
    13   1 H    0.998 --     3 C    0.975
    14   1 H    0.999 --     3 C    0.975
    15   1 H    0.998 --     6 C    0.985
    16   1 H    0.998 --     6 C    0.985
    17   1 H    0.997 --     6 C    0.985
    18   1 H    0.883 --     7 O    0.867
 ---------------------------------------------------------------------------

Topologies differ in total number of bonds
Writing topology from bond orders to xtbtopo.mol

molecular dipole:
                 x           y           z       tot (Debye)
 q only:       -0.110      -0.488       0.513
   full:       -0.159      -0.578       0.633       2.217
molecular quadrupole (traceless):
                xx          xy          yy          xz          yz          zz
 q only:        1.339       0.861      -1.846      -2.221       2.384       0.508
  q+dip:        1.125       0.757      -2.805      -2.638       2.711       1.680
   full:        1.252       0.821      -2.639      -2.866       2.891       1.387


           -------------------------------------------------
          | TOTAL ENERGY              -20.895865424603 Eh   |
          | GRADIENT NORM               0.000041483988 Eh/α |
          | HOMO-LUMO GAP              12.383326449616 eV   |
           -------------------------------------------------

------------------------------------------------------------------------
 * finished run on 2025/04/11 at 11:10:56.327     
------------------------------------------------------------------------
 total:
 * wall-time:     0 d,  0 h,  0 min,  0.050 sec
 *  cpu-time:     0 d,  0 h,  0 min,  0.021 sec
 * ratio c/w:     0.421 speedup
 SCF:
 * wall-time:     0 d,  0 h,  0 min,  0.014 sec
 *  cpu-time:     0 d,  0 h,  0 min,  0.012 sec
 * ratio c/w:     0.896 speedup

