21
 energy: -312.205701819105 gnorm: 0.002711357734 xtb: 6.7.1 (edcfbbe)
C            1.84031509162996       -1.06919233800284        0.46169577153727
C            1.32440256967468        0.33384129075926        0.78325608820973
C            0.18402230694523        0.87712266292275       -0.08620291289376
H           -0.01901432786768        1.89286533667928        0.27713744394373
C           -1.16860696578261        0.13468463822857       -0.05419601159079
C           -1.22208365106524       -1.17997552447783       -0.83901103600516
C           -1.64110918226304       -0.07716100417312        1.38522314004451
O            0.62749570871752        1.07912785998210       -1.44794365218845
H            1.13888592074904       -1.84620789236912        0.77471767602165
H            2.78371723319668       -1.24919678212355        0.98730227492685
H            2.03669441107750       -1.19882710882571       -0.60876323591761
H            1.00933158975196        0.37741309609423        1.83230538757344
H            2.15024065221153        1.04914794066502        0.68364080173580
H           -1.87633453881484        0.82115050076089       -0.54058808765776
H           -2.25841572457688       -1.53335249422643       -0.87782066296733
H           -0.88818006926824       -1.06325387958628       -1.87649938157965
H           -0.62501575881659       -1.96781721900150       -0.37284545211775
H           -2.67804808737813       -0.42825318527520        1.39775682182157
H           -1.59237860134503        0.85106661721531        1.96536464073327
H           -1.02891955729762       -0.82966977076352        1.89469561308006
H            0.80620284567506        0.21286613305448       -1.83216963520810
21
 energy: -312.205709649367 gnorm: 0.000837464215 xtb: 6.7.1 (edcfbbe)
C            1.83963478920240       -1.06928477082284        0.46080551305407
C            1.32413422902076        0.33343606539156        0.78247435069839
C            0.18350213856812        0.87731221785144       -0.08579054077813
H           -0.01928683060060        1.89281899542550        0.27796375241500
C           -1.16890329196706        0.13450384322228       -0.05401841618789
C           -1.22156026183207       -1.18014893411273       -0.83839933396929
C           -1.64137270651881       -0.07689740798287        1.38523122197975
O            0.62629162022277        1.08079596083075       -1.44819317757442
H            1.13844838451182       -1.84618128653191        0.77477248947970
H            2.78358466491774       -1.24919270863678        0.98539576910302
H            2.03495208657133       -1.19997368024308       -0.60976373103536
H            1.00925760248251        0.37690568458937        1.83161625252148
H            2.14983923439488        1.04888608230688        0.68341537245214
H           -1.87646144235602        0.82077922812137       -0.54079032116908
H           -2.25760213448305       -1.53374618628196       -0.87921516330886
H           -0.88529440607546       -1.06379516193258       -1.87469606167297
H           -0.62573135808983       -1.96792502283261       -0.37102025073510
H           -2.67825624301834       -0.42821842584533        1.39842247220960
H           -1.59270134700833        0.85157150552471        1.96506231662685
H           -1.02902028072661       -0.82885774277835        1.89530605249625
H            0.80974728536361        0.21359061426094       -1.83152299872586
21
 energy: -312.205716587053 gnorm: 0.002851134391 xtb: 6.7.1 (edcfbbe)
C            1.83718888965184       -1.06990897629609        0.45727808325528
C            1.32331270746187        0.33225352514743        0.77970746718757
C            0.18171976467422        0.87776684316486       -0.08510002448823
H           -0.02094657133109        1.89214081844171        0.28115230652838
C           -1.17001583357605        0.13378923023579       -0.05305612631203
C           -1.21943088712869       -1.18110247196849       -0.83606220819585
C           -1.64269300487256       -0.07571386841308        1.38579483519167
O            0.62165000026691        1.08588329476178       -1.44948385433912
H            1.13728909141157       -1.84644709141407        0.77531078506613
H            2.78346888749851       -1.24933321617106        0.97770994913577
H            2.02803943971277       -1.20377416447243       -0.61386557725558
H            1.00936755218171        0.37498031063128        1.82933376905695
H            2.14880609701301        1.04796799080256        0.68176620871712
H           -1.87719913123924        0.81918566745448       -0.54138465512231
H           -2.25525146208982       -1.53385940707081       -0.88488168871459
H           -0.87374770670586       -1.06633075359546       -1.86873671806540
H           -0.62889594913317       -1.96909861388984       -0.36289407989498
H           -2.67925550624381       -0.42818936518992        1.40043931560859
H           -1.59476337330848        0.85383541167221        1.96422261122722
H           -1.02946544453976       -0.82583908829772        1.89768466835743
H            0.82402360294702        0.21817277147431       -1.82787957810114
21
 energy: -312.205720433808 gnorm: 0.001744664159 xtb: 6.7.1 (edcfbbe)
C            1.83726376419947       -1.07009052855638        0.45678875662436
C            1.32354419082285        0.33231194663110        0.77954702409649
C            0.18147884107228        0.87794652541257       -0.08459148984132
H           -0.02109821631373        1.89238941107468        0.28168212338836
C           -1.17012223118168        0.13377068772956       -0.05316700769016
C           -1.21942217531496       -1.18152757950248       -0.83573638678392
C           -1.64299866371758       -0.07550077130363        1.38578021897634
O            0.62154305467478        1.08604032875332       -1.44885541147566
H            1.13765950684613       -1.84659578872186        0.77539055490193
H            2.78389392941625       -1.24947055799076        0.97660645832822
H            2.02748856697835       -1.20400832370907       -0.61442225315758
H            1.00991425781082        0.37492844718431        1.82921728195139
H            2.14917481413291        1.04785324872248        0.68115212274431
H           -1.87742505812525        0.81896023094205       -0.54168750339346
H           -2.25548787401389       -1.53355291149103       -0.88581268838553
H           -0.87230937163627       -1.06723632598512       -1.86818922341669
H           -0.62991746735599       -1.96974504875754       -0.36145782705344
H           -2.67944057363270       -0.42825520850426        1.40009970347604
H           -1.59557476931031        0.85416763998720        1.96399230352466
H           -1.02975224173563       -0.82540861759766        1.89792121318233
H            0.82478874034372        0.21940205269074       -1.82720246921013
21
 energy: -312.205725359056 gnorm: 0.001833557887 xtb: 6.7.1 (edcfbbe)
C            1.83701380027539       -1.07103789948216        0.45357826223318
C            1.32411189396583        0.33205250292321        0.77860375562340
C            0.18066411722049        0.87826332262189       -0.08342201005301
H           -0.02231612817440        1.89219915215331        0.28457534337123
C           -1.17030633958099        0.13346679253141       -0.05262667320592
C           -1.21840260868249       -1.18341948559165       -0.83333976681666
C           -1.64536998458276       -0.07433983578255        1.38630453090486
O            0.61976370237621        1.08855790913918       -1.44740305438520
H            1.13926509113815       -1.84752843582820        0.77575528564732
H            2.78601543701308       -1.24971494584934        0.96938015989656
H            2.02298377101925       -1.20521410799038       -0.61823393536605
H            1.01293511874349        0.37367965186264        1.82892364083325
H            2.15002673825143        1.04703506584074        0.67798823609908
H           -1.87764121214701        0.81757921716658       -0.54280885803956
H           -2.25585388675631       -1.53065732715211       -0.89186631369084
H           -0.86160412046224       -1.07238694485093       -1.86355188893081
H           -0.63629577506934       -1.97324522338781       -0.35198769280476
H           -2.68112627742473       -0.42900841378099        1.39904797361722
H           -1.60077748489790        0.85632922268689        1.96293112224940
H           -1.03158997358807       -0.82255681158431        1.90015156331758
H            0.83170428497070        0.22632551547894       -1.82494407066357
21
 energy: -312.205727743204 gnorm: 0.000700576968 xtb: 6.7.1 (edcfbbe)
C            1.83685834808113       -1.07125241209032        0.45231696771920
C            1.32425974989055        0.33169668548175        0.77788343299674
C            0.18020623247091        0.87846713774921       -0.08295878235047
H           -0.02291287608261        1.89198406315196        0.28599127246205
C           -1.17053525939031        0.13323952515704       -0.05242111142476
C           -1.21799548972759       -1.18398368057516       -0.83244328968798
C           -1.64594273256483       -0.07378602458147        1.38639697506984
O            0.61825313568776        1.09005835374145       -1.44706517536256
H            1.13949241078414       -1.84776161761880        0.77540044760043
H            2.78656459818663       -1.24989318025608        0.96680485763784
H            2.02133161503346       -1.20561889680303       -0.61976588192152
H            1.01347793060709        0.37290299199331        1.82836293454598
H            2.15013332796232        1.04673301491890        0.67750398980368
H           -1.87762923458838        0.81708286261651       -0.54328349962501
H           -2.25559236338509       -1.53004223792543       -0.89424529669806
H           -0.85738207873397       -1.07402555506947       -1.86123600800422
H           -0.63861325984535       -1.97423098364054       -0.34865929167002
H           -2.68148662380314       -0.42915415112833        1.39884079616681
H           -1.60229851444955        0.85734934739533        1.96243140801988
H           -1.03196809591296       -0.82120138836714        1.90125283891647
H            0.83497903908886        0.22781507841296       -1.82405194647592
21
 energy: -312.205727743204 gnorm: 0.000700576968 xtb: 6.7.1 (edcfbbe)
C            1.83685834808113       -1.07125241209032        0.45231696771920
C            1.32425974989055        0.33169668548175        0.77788343299674
C            0.18020623247091        0.87846713774921       -0.08295878235047
H           -0.02291287608261        1.89198406315196        0.28599127246205
C           -1.17053525939031        0.13323952515704       -0.05242111142476
C           -1.21799548972759       -1.18398368057516       -0.83244328968798
C           -1.64594273256483       -0.07378602458147        1.38639697506984
O            0.61825313568776        1.09005835374145       -1.44706517536256
H            1.13949241078414       -1.84776161761880        0.77540044760043
H            2.78656459818663       -1.24989318025608        0.96680485763784
H            2.02133161503346       -1.20561889680303       -0.61976588192152
H            1.01347793060709        0.37290299199331        1.82836293454598
H            2.15013332796232        1.04673301491890        0.67750398980368
H           -1.87762923458838        0.81708286261651       -0.54328349962501
H           -2.25559236338509       -1.53004223792543       -0.89424529669806
H           -0.85738207873397       -1.07402555506947       -1.86123600800422
H           -0.63861325984535       -1.97423098364054       -0.34865929167002
H           -2.68148662380314       -0.42915415112833        1.39884079616681
H           -1.60229851444955        0.85734934739533        1.96243140801988
H           -1.03196809591296       -0.82120138836714        1.90125283891647
H            0.83497903908886        0.22781507841296       -1.82405194647592
