
                                 *****************
                                 * O   R   C   A *
                                 *****************

                                            #,                                       
                                            ###                                      
                                            ####                                     
                                            #####                                    
                                            ######                                   
                                           ########,                                 
                                     ,,################,,,,,                         
                               ,,#################################,,                 
                          ,,##########################################,,             
                       ,#########################################, ''#####,          
                    ,#############################################,,   '####,        
                  ,##################################################,,,,####,       
                ,###########''''           ''''###############################       
              ,#####''   ,,,,##########,,,,          '''####'''          '####       
            ,##' ,,,,###########################,,,                        '##       
           ' ,,###''''                  '''############,,,                           
         ,,##''                                '''############,,,,        ,,,,,,###''
      ,#''                                            '''#######################'''  
     '                                                          ''''####''''         
             ,#######,   #######,   ,#######,      ##                                
            ,#'     '#,  ##    ##  ,#'     '#,    #''#        ,####,   ,####,        
            ##       ##  ##   ,#'  ##            #'  '#       #'       #'  '#        
            ##       ##  #######   ##           ,######,      #####,   #    #        
            '#,     ,#'  ##    ##  '#,     ,#' ,#      #,     #,   #   #,  ,#        
             '#######'   ##     ##  '#######'  #'      '#     '####' # '####'        



                #########################################################
                #                        -***-                          #
                #          Department of theory and spectroscopy        #
                #                                                       #
                #                      Frank Neese                      #
                #                                                       #
                #     Directorship, Architecture, Infrastructure        #
                #                    SHARK, DRIVERS                     #
                #        Core code/Algorithms in most modules           #
                #                                                       #
                #        Max Planck Institute fuer Kohlenforschung      #
                #                Kaiser Wilhelm Platz 1                 #
                #                 D-45470 Muelheim/Ruhr                 #
                #                      Germany                          #
                #                                                       #
                #                  All rights reserved                  #
                #                        -***-                          #
                #########################################################


                         Program Version 6.0.0  -   RELEASE  -


 With contributions from (in alphabetic order):
   Daniel Aravena         : Magnetic Suceptibility
   Michael Atanasov       : Ab Initio Ligand Field Theory (pilot matlab implementation)
   Alexander A. Auer      : GIAO ZORA, VPT2 properties, NMR spectrum
   Ute Becker             : All parallelization in ORCA, NUMFREQ, NUMCALC
   Giovanni Bistoni       : ED, misc. LED, open-shell LED, HFLD
   Martin Brehm           : Molecular dynamics
   Dmytro Bykov           : pre 5.0 version of the SCF Hessian
   Marcos Casanova-Páez   : Triplet and SCS-CIS(D). UHF-(DLPNO)-IP/EA/STEOM-CCSD. UHF-CVS-IP/STEOM-CCSD
   Vijay G. Chilkuri      : MRCI spin determinant printing, contributions to CSF-ICE
   Pauline Colinet        : FMM embedding
   Dipayan Datta          : RHF DLPNO-CCSD density
   Achintya Kumar Dutta   : EOM-CC, STEOM-CC
   Nicolas Foglia         : Exact transition moments, OPA infrastructure, MCD improvements
   Dmitry Ganyushin       : Spin-Orbit,Spin-Spin,Magnetic field MRCI
   Miquel Garcia          : C-PCM and meta-GGA Hessian, CCSD/C-PCM, Gaussian charge scheme
   Tiago L. C. Gouveia    : GS-ROHF, GS-ROCIS
   Yang Guo               : DLPNO-NEVPT2, F12-NEVPT2, CIM, IAO-localization
   Andreas Hansen         : Spin unrestricted coupled pair/coupled cluster methods
   Ingolf Harden          : AUTO-CI MPn and infrastructure 
   Benjamin Helmich-Paris : MC-RPA, TRAH-(SCF,CASSCF), AVAS, COSX integrals, SCF dyn. polar.
   Lee Huntington         : MR-EOM, pCC
   Robert Izsak           : Overlap fitted RIJCOSX, COSX-SCS-MP3, EOM
   Riya Kayal             : Wick's Theorem for AUTO-CI, AUTO-CI UHF-CCSDT
   Emily Kempfer          : AUTO-CI, RHF CISDT and CCSDT
   Christian Kollmar      : KDIIS, OOCD, Brueckner-CCSD(T), CCSD density, CASPT2, CASPT2-K, improved NEVPT2
   Axel Koslowski         : Symmetry handling
   Simone Kossmann        : Meta GGA functionals, TD-DFT gradient, OOMP2, (MP2 Hessian; deprecated post 5.0)
   Lucas Lang             : DCDCAS
   Marvin Lechner         : AUTO-CI (C++ implementation), FIC-MRCC
   Spencer Leger          : CASSCF response
   Dagmar Lenk            : GEPOL surface, SMD, ORCA-2-JSON
   Dimitrios Liakos       : Extrapolation schemes; Compound Job, initial MDCI parallelization
   Dimitrios Manganas     : Further ROCIS development; embedding schemes. LFT, Crystal Embedding
   Dimitrios Pantazis     : SARC Basis sets
   Anastasios Papadopoulos: AUTO-CI, single reference methods and gradients
   Taras Petrenko         : pre 6.0 DFT Hessian and TD-DFT gradient, (ASA, deprecated), ECA, 1-Electron XAS/XES, NRVS
   Peter Pinski           : DLPNO-MP2, DLPNO-MP2 Gradient
   Christoph Reimann      : Effective Core Potentials
   Marius Retegan         : Local ZFS, SOC
   Christoph Riplinger    : Optimizer, TS searches, QM/MM, DLPNO-CCSD(T), (RO)-DLPNO pert. Triples
   Michael Roemelt        : Original ROCIS implementation
   Masaaki Saitow         : Open-shell DLPNO-CCSD energy and density
   Barbara Sandhoefer     : DKH picture change effects
   Kantharuban Sivalingam : CASSCF convergence/infrastructure, NEVPT2 and variants, FIC-MRCI
   Bernardo de Souza      : ESD, SOC TD-DFT
   Georgi Stoychev        : AutoAux, RI-MP2 NMR, DLPNO-MP2 response, X2C
   Van Anh Tran           : RI-MP2 g-tensors
   Willem Van den Heuvel  : Paramagnetic NMR
   Zikuan Wang            : NOTCH, Electric field optimization 
   Frank Wennmohs         : Technical directorship and infrastructure
   Hang Xu                : AUTO-CI-Response properties 


 We gratefully acknowledge several colleagues who have allowed us to
 interface, adapt or use parts of their codes:
   Stefan Grimme, W. Hujo, H. Kruse, P. Pracht,  : VdW corrections, initial TS optimization,
                  C. Bannwarth, S. Ehlert,         DFT functionals, gCP, sTDA/sTD-DF
                  L. Wittmann, M. Mueller
   Ed Valeev, F. Pavosevic, A. Kumar             : LibInt (2-el integral package), F12 methods
   Garnet Chan, S. Sharma, J. Yang, R. Olivares  : DMRG
   Ulf Ekstrom                                   : XCFun DFT Library
   Mihaly Kallay                                 : mrcc  (arbitrary order and MRCC methods)
   Frank Weinhold                                : gennbo (NPA and NBO analysis)
   Simon Mueller                                 : openCOSMO-RS
   Christopher J. Cramer and Donald G. Truhlar   : smd solvation model
   Lars Goerigk                                  : TD-DFT with DH, B97 family of functionals
   V. Asgeirsson, H. Jonsson                     : NEB implementation
   FAccTs GmbH                                   : IRC, NEB, NEB-TS, DLPNO-Multilevel, CI-OPT
                                                   MM, QMMM, 2- and 3-layer-ONIOM, Crystal-QMMM,
                                                   LR-CPCM, SF, NACMEs, symmetry and pop. for TD-DFT,
                                                   nearIR, NL-DFT gradient (VV10), updates on ESD,
                                                   ML-optimized integration grids, MBIS, APM,
                                                   GOAT, DOCKER, SOLVATOR, interface openCOSMO-RS
   S Lehtola, MJT Oliveira, MAL Marques          : LibXC Library
   Liviu Ungur et al                             : ANISO software


 Your calculation uses the libint2 library for the computation of 2-el integrals
 For citations please refer to: http://libint.valeyev.net

 Your ORCA version has been built with support for libXC version: 6.2.2
 For citations please refer to: https://libxc.gitlab.io

 This ORCA versions uses:
   CBLAS   interface :  Fast vector & matrix operations
   LAPACKE interface :  Fast linear algebra routines
   SCALAPACK package :  Parallel linear algebra routines
   Shared memory     :  Shared parallel matrices
   BLAS/LAPACK       :  OpenBLAS 0.3.27  USE64BITINT DYNAMIC_ARCH NO_AFFINITY SkylakeX SINGLE_THREADED
        Core in use  :  SkylakeX
   Copyright (c) 2011-2014, The OpenBLAS Project


Your calculation utilizes the geometrical counterpoise correction gCP
Please cite in your paper:
H.Kruse, S. Grimme J.Chem.Phys., 136, (2012), 154101 
   

Your calculation utilizes the atom-pairwise dispersion correction
based on EEQ partial charges (D4)


================================================================================

----- Orbital basis set information -----
Your calculation utilizes the basis: def2-mTZVPP
   Stefan Grimme, Andreas Hansen, Sebastian Ehlert, and Jan-Michael Mewes 
   J. Chem. Phys. 154, 064103 (2021). DOI: 10.1063/5.0040021

----- AuxJ basis set information -----
Your calculation utilizes the auxiliary basis: def2/J
   F. Weigend, Phys. Chem. Chem. Phys. 8, 1057 (2006).

================================================================================
                                        WARNINGS
                       Please study these warnings very carefully!
================================================================================

Using LibXC functional ID 497 : Re-regularized SCAN exchange by Furness et al
[ 1]  J. W. Furness, A. D. Kaplan, J. Ning, J. P. Perdew, and J. Sun.,  J. Phys. Chem. Lett. 11, 8208-8215 (2020)
[ 2]  J. W. Furness, A. D. Kaplan, J. Ning, J. P. Perdew, and J. Sun.,  J. Phys. Chem. Lett. 11, 9248-9248 (2020)
Using LibXC functional ID 498 : Re-regularized SCAN correlation by Furness et al
[ 1]  J. W. Furness, A. D. Kaplan, J. Ning, J. P. Perdew, and J. Sun.,  J. Phys. Chem. Lett. 11, 8208-8215 (2020)
[ 2]  J. W. Furness, A. D. Kaplan, J. Ning, J. P. Perdew, and J. Sun.,  J. Phys. Chem. Lett. 11, 9248-9248 (2020)
Using LibXC functional ID 497 : Re-regularized SCAN exchange by Furness et al
[ 1]  J. W. Furness, A. D. Kaplan, J. Ning, J. P. Perdew, and J. Sun.,  J. Phys. Chem. Lett. 11, 8208-8215 (2020)
[ 2]  J. W. Furness, A. D. Kaplan, J. Ning, J. P. Perdew, and J. Sun.,  J. Phys. Chem. Lett. 11, 9248-9248 (2020)
Using LibXC functional ID 498 : Re-regularized SCAN correlation by Furness et al
[ 1]  J. W. Furness, A. D. Kaplan, J. Ning, J. P. Perdew, and J. Sun.,  J. Phys. Chem. Lett. 11, 8208-8215 (2020)
[ 2]  J. W. Furness, A. D. Kaplan, J. Ning, J. P. Perdew, and J. Sun.,  J. Phys. Chem. Lett. 11, 9248-9248 (2020)

================================================================================
                                       INPUT FILE
================================================================================
NAME = sp_gas.inp
|  1> ! r2scan-3c def2/J RI DEFGRID2 scfconv6 printgap
|  2> %output
|  3>     printlevel normal
|  4> end
|  5> * xyz 0 1
|  6> C -1.7773290812 -1.1536450597 0.1869755782
|  7> C -1.5005300641 0.1865067139 -0.4657993126
|  8> S 0.0178932638 1.0028481919 0.1471842132
|  9> C 1.333486557 -0.074704146 -0.540713722
| 10> C 1.9047410716 -1.0279320985 0.4923784699
| 11> H -1.7838514436 -1.0504526324 1.2695054991
| 12> H -2.748859712 -1.5211376641 -0.135821473
| 13> H -1.0234235348 -1.8858781229 -0.0918546398
| 14> H -2.288304058 0.9025171429 -0.2345790362
| 15> H -1.4056141859 0.0990021692 -1.5482417801
| 16> H 0.8988469475 -0.6029492784 -1.3873847174
| 17> H 2.1028249621 0.6073597416 -0.9016358471
| 18> H 2.3205141343 -0.4681716084 1.3265812372
| 19> H 1.1364791375 -1.6935564683 0.8769628599
| 20> H 2.6944177486 -1.625847383 0.0426814256
| 21> *
| 22> 
| 23>                          ****END OF INPUT****
================================================================================

                       ****************************
                       * Single Point Calculation *
                       ****************************

---------------------------------
CARTESIAN COORDINATES (ANGSTROEM)
---------------------------------
  C     -1.777329   -1.153645    0.186976
  C     -1.500530    0.186507   -0.465799
  S      0.017893    1.002848    0.147184
  C      1.333487   -0.074704   -0.540714
  C      1.904741   -1.027932    0.492378
  H     -1.783851   -1.050453    1.269505
  H     -2.748860   -1.521138   -0.135821
  H     -1.023424   -1.885878   -0.091855
  H     -2.288304    0.902517   -0.234579
  H     -1.405614    0.099002   -1.548242
  H      0.898847   -0.602949   -1.387385
  H      2.102825    0.607360   -0.901636
  H      2.320514   -0.468172    1.326581
  H      1.136479   -1.693556    0.876963
  H      2.694418   -1.625847    0.042681

----------------------------
CARTESIAN COORDINATES (A.U.)
----------------------------
  NO LB      ZA    FRAG     MASS         X           Y           Z
   0 C     6.0000    0    12.011   -3.358665   -2.180073    0.353333
   1 C     6.0000    0    12.011   -2.835591    0.352447   -0.880233
   2 S    16.0000    0    32.060    0.033813    1.895108    0.278138
   3 C     6.0000    0    12.011    2.519924   -0.141170   -1.021801
   4 C     6.0000    0    12.011    3.599439   -1.942510    0.930460
   5 H     1.0000    0     1.008   -3.370991   -1.985068    2.399018
   6 H     1.0000    0     1.008   -5.194592   -2.874534   -0.256665
   7 H     1.0000    0     1.008   -1.933990   -3.563793   -0.173580
   8 H     1.0000    0     1.008   -4.324268    1.705510   -0.443290
   9 H     1.0000    0     1.008   -2.656226    0.187087   -2.925753
  10 H     1.0000    0     1.008    1.698575   -1.139409   -2.621777
  11 H     1.0000    0     1.008    3.973763    1.147744   -1.703845
  12 H     1.0000    0     1.008    4.385136   -0.884716    2.506875
  13 H     1.0000    0     1.008    2.147634   -3.200358    1.657220
  14 H     1.0000    0     1.008    5.091712   -3.072406    0.080656

--------------------------------
INTERNAL COORDINATES (ANGSTROEM)
--------------------------------
 C      0   0   0     0.000000000000     0.00000000     0.00000000
 C      1   0   0     1.516159467276     0.00000000     0.00000000
 S      2   1   0     1.829691671926   113.68047315     0.00000000
 C      3   2   1     1.834423158183   101.97323014    69.74478806
 C      4   3   2     1.517318268144   112.56389661   258.46463394
 H      1   2   3     1.087456779788   110.23136950    53.61413117
 H      1   2   3     1.087713435209   109.50752600   173.26922147
 H      1   2   3     1.087329353143   110.99318789   292.91574855
 H      2   1   3     1.089367530322   110.95068509   243.66724416
 H      2   1   3     1.090113647619   111.86732966   121.63743011
 H      4   3   2     1.088488072742   106.88102069    21.86818067
 H      4   3   2     1.089659354439   105.24056312   137.84472341
 H      5   4   3     1.087241142946   110.05595876   301.05461043
 H      5   4   3     1.086824435726   111.07296389    60.99193948
 H      5   4   3     1.087804841545   109.70317613   181.35288086

---------------------------
INTERNAL COORDINATES (A.U.)
---------------------------
 C      0   0   0     0.000000000000     0.00000000     0.00000000
 C      1   0   0     2.865126168503     0.00000000     0.00000000
 S      2   1   0     3.457616169457   113.68047315     0.00000000
 C      3   2   1     3.466557382689   101.97323014    69.74478806
 C      4   3   2     2.867315984788   112.56389661   258.46463394
 H      1   2   3     2.054995496275   110.23136950    53.61413117
 H      1   2   3     2.055480504732   109.50752600   173.26922147
 H      1   2   3     2.054754694814   110.99318789   292.91574855
 H      2   1   3     2.058606291495   110.95068509   243.66724416
 H      2   1   3     2.060016248850   111.86732966   121.63743011
 H      4   3   2     2.056944357523   106.88102069    21.86818067
 H      4   3   2     2.059157759155   105.24056312   137.84472341
 H      5   4   3     2.054588001700   110.05595876   301.05461043
 H      5   4   3     2.053800539175   111.07296389    60.99193948
 H      5   4   3     2.055653237674   109.70317613   181.35288086

---------------------
BASIS SET INFORMATION
---------------------
There are 3 groups of distinct atoms

 Group   1 Type C   : 11s6p1d contracted to 5s3p1d pattern {62111/411/1}
 Group   2 Type S   : 14s9p2d contracted to 5s4p2d pattern {73211/6111/11}
 Group   3 Type H   : 4s1p contracted to 2s1p pattern {31/1}

Atom   0C    basis set group =>   1
Atom   1C    basis set group =>   1
Atom   2S    basis set group =>   2
Atom   3C    basis set group =>   1
Atom   4C    basis set group =>   1
Atom   5H    basis set group =>   3
Atom   6H    basis set group =>   3
Atom   7H    basis set group =>   3
Atom   8H    basis set group =>   3
Atom   9H    basis set group =>   3
Atom  10H    basis set group =>   3
Atom  11H    basis set group =>   3
Atom  12H    basis set group =>   3
Atom  13H    basis set group =>   3
Atom  14H    basis set group =>   3
---------------------------------
AUXILIARY/J BASIS SET INFORMATION
---------------------------------
There are 3 groups of distinct atoms

 Group   1 Type C   : 12s5p4d2f1g contracted to 6s4p3d1f1g pattern {711111/2111/211/2/1}
 Group   2 Type S   : 14s5p5d2f1g contracted to 8s4p3d1f1g pattern {71111111/2111/311/2/1}
 Group   3 Type H   : 5s2p1d contracted to 3s1p1d pattern {311/2/1}

Atom   0C    basis set group =>   1
Atom   1C    basis set group =>   1
Atom   2S    basis set group =>   2
Atom   3C    basis set group =>   1
Atom   4C    basis set group =>   1
Atom   5H    basis set group =>   3
Atom   6H    basis set group =>   3
Atom   7H    basis set group =>   3
Atom   8H    basis set group =>   3
Atom   9H    basis set group =>   3
Atom  10H    basis set group =>   3
Atom  11H    basis set group =>   3
Atom  12H    basis set group =>   3
Atom  13H    basis set group =>   3
Atom  14H    basis set group =>   3

Checking for AutoStart:
The File: sp_gas.gbw exists
Trying to determine its content:
     ... Fine, the file contains calculation information
     ... Fine, the calculation information was read
     ... Fine, the file contains a basis set
     ... Fine, the basis set was read
     ... Fine, the file contains a geometry
     ... Fine, the geometry was read
     ... Fine, the file contains a set of orbitals
     ... Fine, the orbitals can be read
     => possible old guess file was deleted
     => GBW file was renamed to GES file
     => GES file is set as startup file
     => Guess is set to MORead
     ... now leaving AutoStart

------------------------------------------------------------------------------
                             ORCA STARTUP CALCULATIONS
                           -- RI-GTO INTEGRALS CHOSEN --
------------------------------------------------------------------------------
------------------------------------------------------------------------------
                   ___                                                        
                  /   \      - P O W E R E D   B Y -                         
                 /     \                                                     
                 |  |  |   _    _      __       _____    __    __             
                 |  |  |  | |  | |    /  \     |  _  \  |  |  /  |          
                  \  \/   | |  | |   /    \    | | | |  |  | /  /          
                 / \  \   | |__| |  /  /\  \   | |_| |  |  |/  /          
                |  |  |   |  __  | /  /__\  \  |    /   |      \           
                |  |  |   | |  | | |   __   |  |    \   |  |\   \          
                \     /   | |  | | |  |  |  |  | |\  \  |  | \   \       
                 \___/    |_|  |_| |__|  |__|  |_| \__\ |__|  \__/        
                                                                              
                      - O R C A' S   B I G   F R I E N D -                    
                                      &                                       
                       - I N T E G R A L  F E E D E R -                       
                                                                              
 v1 FN, 2020, v2 2021, v3 2022-2024                                           
------------------------------------------------------------------------------


----------------------
SHARK INTEGRAL PACKAGE
----------------------

Number of atoms                             ...     15
Number of basis functions                   ...    153
Number of shells                            ...     77
Maximum angular momentum                    ...      2
Integral batch strategy                     ... SHARK/LIBINT Hybrid
RI-J (if used) integral strategy            ... SPLIT-RIJ (Revised 2003 algorithm where possible)
Printlevel                                  ...      1
Contraction scheme used                     ... SEGMENTED contraction
Prescreening option                         ... SCHWARTZ
   Thresh                                   ... 1.000e-10
   Tcut                                     ... 1.000e-11
   Tpresel                                  ... 1.000e-11 
Coulomb Range Separation                    ... NOT USED
Exchange Range Separation                   ... NOT USED
Multipole approximations                    ... NOT USED
Finite Nucleus Model                        ... NOT USED
CABS basis                                  ... NOT available
Auxiliary Coulomb fitting basis             ... AVAILABLE
   # of basis functions in Aux-J            ...    357
   # of shells in Aux-J                     ...    127
   Maximum angular momentum in Aux-J        ...      4
Auxiliary J/K fitting basis                 ... NOT available
Auxiliary Correlation fitting basis         ... NOT available
Auxiliary 'external' fitting basis          ... NOT available

Checking pre-screening integrals            ... done (  0.0 sec) Dimension = 77
Check shell pair data                       ... done (  0.0 sec)
Shell pair information
Shell pair cut-off parameter TPreSel        ...   1.0e-11
Total number of shell pairs                 ...      3003
Shell pairs after pre-screening             ...      2794
Total number of primitive shell pairs       ...     11036
Primitive shell pairs kept                  ...      7515
          la=0 lb=0:    955 shell pairs
          la=1 lb=0:   1080 shell pairs
          la=1 lb=1:    328 shell pairs
          la=2 lb=0:    259 shell pairs
          la=2 lb=1:    151 shell pairs
          la=2 lb=2:     21 shell pairs

Calculating one electron integrals          ... done (  0.0 sec)
Calculating RI/J V-Matrix + Cholesky decomp.... done (  0.1 sec)
Calculating Nuclear repulsion               ... done (  0.0 sec) ENN=    238.723507557476 Eh

Diagonalization of the overlap matrix:
Smallest eigenvalue                        ... 4.210e-04
Time for diagonalization                   ...    0.002 sec
Threshold for overlap eigenvalues          ... 1.000e-07
Number of eigenvalues below threshold      ... 0
Time for construction of square roots      ...    0.014 sec
Total time needed                          ...    0.028 sec

-------------------
DFT GRID GENERATION
-------------------

General Integration Accuracy     IntAcc      ... 4.388
Radial Grid Type                 RadialGrid  ... OptM3 with GC (2021)
Angular Grid (max. ang.)         AngularGrid ... 4 (Lebedev-302)
Angular grid pruning method      GridPruning ... 4 (adaptive)
Weight generation scheme         WeightScheme... mBecke (2022)
Basis function cutoff            BFCut       ... 1.0000e-10
Integration weight cutoff        WCut        ... 1.0000e-14
Partially contracted basis set               ... off
Rotationally invariant grid construction     ... off
Angular grids for H and He will be reduced by one unit

Total number of grid points                  ...    63632
Total number of batches                      ...     1001
Average number of points per batch           ...       63
Average number of grid points per atom       ...     4242
Initializing property integral containers    ... done (  0.0 sec)

SHARK setup successfully completed in   0.8 seconds

Maximum memory used throughout the entire STARTUP-calculation: 27.9 MB
-------------------------------------------------------------------------------
                                 ORCA GUESS
                   Start orbitals & Density for SCF / CASSCF
-------------------------------------------------------------------------------

------------
SCF SETTINGS
------------
Hamiltonian:
 Density Functional     Method          .... DFT(GTOs)
  Functional kind                       .... Exchange
  Functional name                       .... Re-regularized SCAN exchange by Furness et al
  Functional family                     .... MGGA
  Functional refs                              
    [ 0] J. W. Furness, A. D. Kaplan, J. Ning, J. P. Perdew, and J. Sun.,  J. Phys. Chem. Lett. 11, 8208-8215 (2020), doi: 10.1021/acs.jpclett.0c02405
    [ 1] J. W. Furness, A. D. Kaplan, J. Ning, J. P. Perdew, and J. Sun.,  J. Phys. Chem. Lett. 11, 9248-9248 (2020), doi: 10.1021/acs.jpclett.0c03077
  Functional external parameters        .... 6
    Parameter  0 _c1        =  6.670000e-01 : c1 parameter        
    Parameter  1 _c2        =  8.000000e-01 : c2 parameter        
    Parameter  2 _d         =  1.240000e+00 : d parameter         
    Parameter  3 _k1        =  6.500000e-02 : k1 parameter        
    Parameter  4 _eta       =  1.000000e-03 : eta parameter       
    Parameter  5 _dp2       =  3.610000e-01 : dp2 parameter       
  Functional kind                       .... Correlation
  Functional name                       .... Re-regularized SCAN correlation by Furness et al
  Functional family                     .... MGGA
  Functional refs                              
    [ 0] J. W. Furness, A. D. Kaplan, J. Ning, J. P. Perdew, and J. Sun.,  J. Phys. Chem. Lett. 11, 8208-8215 (2020), doi: 10.1021/acs.jpclett.0c02405
    [ 1] J. W. Furness, A. D. Kaplan, J. Ning, J. P. Perdew, and J. Sun.,  J. Phys. Chem. Lett. 11, 9248-9248 (2020), doi: 10.1021/acs.jpclett.0c03077
  Functional external parameters        .... 1
    Parameter  0 _eta       =  1.000000e-03 : Regularization parameter
 Gradients option       PostSCFGGA      .... off
 RI-approximation to the Coulomb term is turned on
   Number of AuxJ basis functions       .... 357


General Settings:
 Integral files         IntName         .... sp_gas
 Hartree-Fock type      HFTyp           .... RHF
 Total Charge           Charge          ....    0
 Multiplicity           Mult            ....    1
 Number of Electrons    NEL             ....   50
 Basis Dimension        Dim             ....  153
 Nuclear Repulsion      ENuc            ....    238.7235075575 Eh

Convergence Acceleration:
 AO-DIIS                CNVDIIS         .... on
   Start iteration      DIISMaxIt       ....    12
   Startup error        DIISStart       ....  0.200000
   # of expansion vecs  DIISMaxEq       ....     5
   Bias factor          DIISBfac        ....   1.050
   Max. coefficient     DIISMaxC        ....  10.000
 MO-DIIS                CNVKDIIS        .... off
 Trust-Rad. Augm. Hess. CNVTRAH         .... auto
   Auto Start mean grad. ratio tolernc. ....  1.125000
   Auto Start start iteration           ....     1
   Auto Start num. interpolation iter.  ....    10
   Max. Number of Micro iterations      ....    24
   Max. Number of Macro iterations      .... Maxiter - #DIIS iter
   Number of Davidson start vectors     ....     2
   Converg. threshold    (grad. norm)   ....   3.330e-04
   Grad. Scal. Fac. for Micro threshold ....   0.100
   Minimum threshold for Micro iter.    ....   1.000e-02
   NR start threshold (gradient norm)   ....   1.000e-04
   Initial trust radius                 ....   0.400
   Minimum AH scaling param. (alpha)    ....   1.000
   Maximum AH scaling param. (alpha)    .... 1000.000
   Quad. conv. algorithm                .... NR
   White noise on init. David. guess    .... on
   Maximum white noise                  ....   0.010
   Pseudo random numbers                .... off
   Inactive MOs                         .... canonical
   Orbital update algorithm             .... Taylor
   Preconditioner                       .... Diag
   Full preconditioner red. dimension   ....   250
   COSX micro iterations for RIJONX calc.... off
 SOSCF                  CNVSOSCF        .... on
   Start iteration      SOSCFMaxIt      ....   150
   Startup grad/error   SOSCFStart      ....  0.003300
   Hessian update       SOSCFHessUp     .... L-BFGS
 Level Shifting         CNVShift        .... on
   Level shift para.    LevelShift      ....    0.2500
   Turn off err/grad.   ShiftErr        ....    0.0010
 Zerner damping         CNVZerner       .... off
 Static damping         CNVDamp         .... on
   Fraction old density DampFac         ....    0.7000
   Max. Damping (<1)    DampMax         ....    0.9800
   Min. Damping (>=0)   DampMin         ....    0.0000
   Turn off err/grad.   DampErr         ....    0.1000

SCF Procedure:
 Maximum # iterations   MaxIter         ....   125
 SCF integral mode      SCFMode         .... Direct
   Integral package                     .... SHARK and LIBINT hybrid scheme
 Reset frequency        DirectResetFreq ....    20
 Integral Threshold     Thresh          ....  1.000e-10 Eh
 Primitive CutOff       TCut            ....  1.000e-11 Eh

Convergence Tolerance:
 Convergence Check Mode ConvCheckMode   .... Total+1el-Energy
 Convergence forced     ConvForced      .... 0
 Energy Change          TolE            ....  1.000e-06 Eh
 1-El. energy change                    ....  1.000e-03 Eh
 Orbital Gradient       TolG            ....  3.330e-04
 Orbital Rotation angle TolX            ....  3.330e-04
 DIIS Error             TolErr          ....  1.000e-06

---------------------
INITIAL GUESS: MOREAD
---------------------
Guess MOs are being read from file: sp_gas.ges
Input Geometry matches current geometry (good)
Atom 0: N(Shells)= 9 and 6 - projection required
Input basis set needs projection
NBasis(read)= 94
NBasis(calc)= 153
Basis set overlap was calculated
Using GuessMode=FMatrix for the initial guess
C*T matrix was formed
Effective Fockian was calculated
Effective Fockian was diagonalized
Initial density was built
                      ------------------
                      INITIAL GUESS DONE (   0.0 sec)
                      ------------------
             **** ENERGY FILE WAS UPDATED (sp_gas.en.tmp) ****
Finished Guess after   0.2 sec
Maximum memory used throughout the entire GUESS-calculation: 10.4 MB

-------------------------------------------------------------------------------------------
                                      ORCA LEAN-SCF
                              memory conserving SCF solver
-------------------------------------------------------------------------------------------

----------------------------------------D-I-I-S--------------------------------------------
Iteration    Energy (Eh)           Delta-E    RMSDP     MaxDP     DIISErr   Damp  Time(sec)
-------------------------------------------------------------------------------------------
               ***  Starting incremental Fock matrix formation  ***
    1    -556.4510221341930674     0.00e+00  3.46e-03  8.59e-02  4.63e-01  0.700   1.4
    2    -556.4834651136907269    -3.24e-02  2.86e-03  6.00e-02  3.24e-01  0.700   1.3
    3    -556.5064566163728159    -2.30e-02  2.11e-03  4.13e-02  2.27e-01  0.700   1.3
                               ***Turning on AO-DIIS***
    4    -556.5226048241753460    -1.61e-02  1.55e-03  2.98e-02  1.59e-01  0.700   1.3
    5    -556.5339342489074852    -1.13e-02  1.11e-03  2.12e-02  1.11e-01  0.700   1.3
    6    -556.5418791229337785    -7.94e-03  7.84e-04  1.50e-02  7.78e-02  0.700   1.2
    7    -556.5474482518602599    -5.57e-03  1.84e-03  3.52e-02  5.45e-02  0.000   1.2
                              *** Initializing SOSCF ***
---------------------------------------S-O-S-C-F--------------------------------------
Iteration    Energy (Eh)           Delta-E    RMSDP     MaxDP     MaxGrad    Time(sec)
--------------------------------------------------------------------------------------
    8    -556.5604681021569604    -1.30e-02  1.35e-05  3.81e-04  1.19e-04     1.3
               *** Restarting incremental Fock matrix formation ***
    9    -556.5604681896256807    -8.75e-08  8.98e-06  1.29e-04  3.45e-05     1.5
                  *** Gradient check signals convergence ***

               *****************************************************
               *                     SUCCESS                       *
               *           SCF CONVERGED AFTER   9 CYCLES          *
               *****************************************************

             **** ENERGY FILE WAS UPDATED (sp_gas.en.tmp) ****

----------------
TOTAL SCF ENERGY
----------------

Total Energy       :       -556.56046818962568 Eh          -15144.78029 eV

Components:
Nuclear Repulsion  :        238.72350755747610 Eh            6495.99689 eV
Electronic Energy  :       -795.28397574710175 Eh          -21640.77718 eV
One Electron Energy:      -1235.74577202850514 Eh          -33626.35199 eV
Two Electron Energy:        440.46179628140334 Eh           11985.57481 eV

Virial components:
Potential Energy   :      -1111.34936892646419 Eh          -30241.35377 eV
Kinetic Energy     :        554.78890073683863 Eh           15096.57348 eV
Virial Ratio       :          2.00319322800156

DFT components:
N(Alpha)           :       25.000005422940 electrons
N(Beta)            :       25.000005422940 electrons
N(Total)           :       50.000010845880 electrons
E(X)               :      -49.400045413245 Eh       
E(C)               :       -1.651936789699 Eh       
E(XC)              :      -51.051982202944 Eh       

---------------
SCF CONVERGENCE
---------------

  Last Energy change         ...    8.7469e-08  Tolerance :   1.0000e-06
  Last MAX-Density change    ...    1.2946e-04  Tolerance :   1.0000e-05
  Last RMS-Density change    ...    8.9779e-06  Tolerance :   1.0000e-06
  Last DIIS Error            ...    1.1918e-04  Tolerance :   1.0000e-06
  Last Orbital Gradient      ...    3.4502e-05  Tolerance :   3.3300e-04
  Last Orbital Rotation      ...    1.0623e-04  Tolerance :   3.3300e-04


----------------
ORBITAL ENERGIES
----------------

  NO   OCC          E(Eh)            E(eV) 
   0   2.0000     -88.539571     -2409.2842 
   1   2.0000     -10.060819      -273.7688 
   2   2.0000     -10.059690      -273.7381 
   3   2.0000     -10.026274      -272.8288 
   4   2.0000     -10.023564      -272.7550 
   5   2.0000      -7.833628      -213.1638 
   6   2.0000      -5.781200      -157.3144 
   7   2.0000      -5.777334      -157.2093 
   8   2.0000      -5.770210      -157.0154 
   9   2.0000      -0.778011       -21.1707 
  10   2.0000      -0.732324       -19.9276 
  11   2.0000      -0.655898       -17.8479 
  12   2.0000      -0.590913       -16.0796 
  13   2.0000      -0.536891       -14.6096 
  14   2.0000      -0.443946       -12.0804 
  15   2.0000      -0.425311       -11.5733 
  16   2.0000      -0.398068       -10.8320 
  17   2.0000      -0.390712       -10.6318 
  18   2.0000      -0.357464        -9.7271 
  19   2.0000      -0.355894        -9.6844 
  20   2.0000      -0.338714        -9.2169 
  21   2.0000      -0.329667        -8.9707 
  22   2.0000      -0.300671        -8.1817 
  23   2.0000      -0.269450        -7.3321 
  24   2.0000      -0.188680        -5.1342 
  25   0.0000       0.024208         0.6587 
  26   0.0000       0.048549         1.3211 
  27   0.0000       0.084132         2.2894 
  28   0.0000       0.110550         3.0082 
  29   0.0000       0.120993         3.2924 
  30   0.0000       0.133028         3.6199 
  31   0.0000       0.147336         4.0092 
  32   0.0000       0.152815         4.1583 
  33   0.0000       0.168172         4.5762 
  34   0.0000       0.173972         4.7340 
  35   0.0000       0.176828         4.8117 
*Only the first 10 virtual orbitals were printed.

                    ********************************
                    * MULLIKEN POPULATION ANALYSIS *
                    ********************************

-----------------------
MULLIKEN ATOMIC CHARGES
-----------------------
   0 C :   -0.441415
   1 C :   -0.249751
   2 S :   -0.141176
   3 C :   -0.238341
   4 C :   -0.426498
   5 H :    0.161957
   6 H :    0.140573
   7 H :    0.142838
   8 H :    0.152210
   9 H :    0.157045
  10 H :    0.143328
  11 H :    0.161726
  12 H :    0.151423
  13 H :    0.146459
  14 H :    0.139622
Sum of atomic charges:    0.0000000

--------------------------------
MULLIKEN REDUCED ORBITAL CHARGES
--------------------------------
  0 C s       :     3.311021  s :     3.311021
      pz      :     1.065224  p :     3.103377
      px      :     1.081127
      py      :     0.957026
      dz2     :     0.008122  d :     0.027017
      dxz     :     0.001994
      dyz     :     0.004399
      dx2y2   :     0.004955
      dxy     :     0.007547

  1 C s       :     3.220491  s :     3.220491
      pz      :     1.044184  p :     2.992500
      px      :     0.967537
      py      :     0.980778
      dz2     :     0.010529  d :     0.036761
      dxz     :     0.004032
      dyz     :     0.005512
      dx2y2   :     0.005749
      dxy     :     0.010938

  2 S s       :     5.886323  s :     5.886323
      pz      :     3.731187  p :    10.156089
      px      :     2.915056
      py      :     3.509846
      dz2     :     0.013580  d :     0.098764
      dxz     :     0.021210
      dyz     :     0.014723
      dx2y2   :     0.018806
      dxy     :     0.030445

  3 C s       :     3.200764  s :     3.200764
      pz      :     0.997627  p :     3.001439
      px      :     0.995219
      py      :     1.008593
      dz2     :     0.005639  d :     0.036138
      dxz     :     0.007935
      dyz     :     0.008586
      dx2y2   :     0.003557
      dxy     :     0.010421

  4 C s       :     3.308905  s :     3.308905
      pz      :     1.012959  p :     3.090508
      px      :     1.055600
      py      :     1.021949
      dz2     :     0.003746  d :     0.027085
      dxz     :     0.005994
      dyz     :     0.007705
      dx2y2   :     0.001668
      dxy     :     0.007973

  5 H s       :     0.819836  s :     0.819836
      pz      :     0.011113  p :     0.018207
      px      :     0.003578
      py      :     0.003516

  6 H s       :     0.841044  s :     0.841044
      pz      :     0.004259  p :     0.018383
      px      :     0.009533
      py      :     0.004591

  7 H s       :     0.838742  s :     0.838742
      pz      :     0.004105  p :     0.018419
      px      :     0.007218
      py      :     0.007096

  8 H s       :     0.829487  s :     0.829487
      pz      :     0.003806  p :     0.018303
      px      :     0.007658
      py      :     0.006838

  9 H s       :     0.824775  s :     0.824775
      pz      :     0.011231  p :     0.018180
      px      :     0.003558
      py      :     0.003392

 10 H s       :     0.838256  s :     0.838256
      pz      :     0.008404  p :     0.018416
      px      :     0.004702
      py      :     0.005310

 11 H s       :     0.820086  s :     0.820086
      pz      :     0.004350  p :     0.018188
      px      :     0.007247
      py      :     0.006591

 12 H s       :     0.830245  s :     0.830245
      pz      :     0.008207  p :     0.018332
      px      :     0.004685
      py      :     0.005440

 13 H s       :     0.835156  s :     0.835156
      pz      :     0.004696  p :     0.018385
      px      :     0.007346
      py      :     0.006343

 14 H s       :     0.842037  s :     0.842037
      pz      :     0.004735  p :     0.018341
      px      :     0.007628
      py      :     0.005978


------------------------
MULLIKEN OVERLAP CHARGES
------------------------
B(  0-C ,  1-C ) :   0.3932 B(  0-C ,  2-S ) :  -0.1734 B(  0-C ,  5-H ) :   0.8365 
B(  0-C ,  6-H ) :   0.7678 B(  0-C ,  7-H ) :   0.8469 B(  0-C ,  8-H ) :  -0.0598 
B(  0-C ,  9-H ) :  -0.1018 B(  1-C ,  2-S ) :   0.5372 B(  1-C ,  3-C ) :  -0.0875 
B(  1-C ,  5-H ) :  -0.0799 B(  1-C ,  6-H ) :  -0.0518 B(  1-C ,  7-H ) :  -0.0953 
B(  1-C ,  8-H ) :   0.7944 B(  1-C ,  9-H ) :   0.8716 B(  2-S ,  3-C ) :   0.4105 
B(  2-S ,  4-C ) :  -0.1041 B(  2-S ,  8-H ) :  -0.0626 B(  2-S ,  9-H ) :  -0.0900 
B(  2-S , 10-H ) :  -0.0747 B(  2-S , 11-H ) :  -0.0727 B(  3-C ,  4-C ) :   0.4506 
B(  3-C , 10-H ) :   0.8002 B(  3-C , 11-H ) :   0.8168 B(  3-C , 12-H ) :  -0.0802 
B(  3-C , 13-H ) :  -0.0710 B(  3-C , 14-H ) :  -0.0777 B(  4-C , 10-H ) :  -0.0529 
B(  4-C , 11-H ) :  -0.0746 B(  4-C , 12-H ) :   0.8468 B(  4-C , 13-H ) :   0.8297 
B(  4-C , 14-H ) :   0.7982 


                     *******************************
                     * LOEWDIN POPULATION ANALYSIS *
                     *******************************

----------------------
LOEWDIN ATOMIC CHARGES
----------------------
   0 C :   -0.432073
   1 C :   -0.365522
   2 S :    0.024477
   3 C :   -0.362159
   4 C :   -0.432426
   5 H :    0.158056
   6 H :    0.151035
   7 H :    0.149820
   8 H :    0.167940
   9 H :    0.157760
  10 H :    0.161345
  11 H :    0.164859
  12 H :    0.155388
  13 H :    0.152305
  14 H :    0.149195

-------------------------------
LOEWDIN REDUCED ORBITAL CHARGES
-------------------------------
  0 C s       :     2.983583  s :     2.983583
      pz      :     1.148807  p :     3.384561
      px      :     1.148740
      py      :     1.087014
      dz2     :     0.019878  d :     0.063928
      dxz     :     0.004623
      dyz     :     0.009921
      dx2y2   :     0.011750
      dxy     :     0.017757

  1 C s       :     2.973581  s :     2.973581
      pz      :     1.126595  p :     3.309703
      px      :     1.079777
      py      :     1.103332
      dz2     :     0.024417  d :     0.082237
      dxz     :     0.008505
      dyz     :     0.011746
      dx2y2   :     0.012618
      dxy     :     0.024951

  2 S s       :     5.439769  s :     5.439769
      pz      :     3.708381  p :    10.212270
      px      :     2.988951
      py      :     3.514938
      dz2     :     0.047363  d :     0.323483
      dxz     :     0.067787
      dyz     :     0.036829
      dx2y2   :     0.072991
      dxy     :     0.098513

  3 C s       :     2.972414  s :     2.972414
      pz      :     1.106122  p :     3.308618
      px      :     1.091806
      py      :     1.110690
      dz2     :     0.010984  d :     0.081128
      dxz     :     0.017793
      dyz     :     0.020902
      dx2y2   :     0.006670
      dxy     :     0.024779

  4 C s       :     2.985186  s :     2.985186
      pz      :     1.120705  p :     3.383244
      px      :     1.142140
      py      :     1.120399
      dz2     :     0.008084  d :     0.063997
      dxz     :     0.014298
      dyz     :     0.018831
      dx2y2   :     0.003190
      dxy     :     0.019594

  5 H s       :     0.798258  s :     0.798258
      pz      :     0.028177  p :     0.043686
      px      :     0.007773
      py      :     0.007736

  6 H s       :     0.805115  s :     0.805115
      pz      :     0.009733  p :     0.043850
      px      :     0.023537
      py      :     0.010580

  7 H s       :     0.806543  s :     0.806543
      pz      :     0.009306  p :     0.043636
      px      :     0.017424
      py      :     0.016906

  8 H s       :     0.788526  s :     0.788526
      pz      :     0.008779  p :     0.043534
      px      :     0.018040
      py      :     0.016714

  9 H s       :     0.797902  s :     0.797902
      pz      :     0.028132  p :     0.044338
      px      :     0.008124
      py      :     0.008082

 10 H s       :     0.794078  s :     0.794078
      pz      :     0.020629  p :     0.044577
      px      :     0.011118
      py      :     0.012831

 11 H s       :     0.791228  s :     0.791228
      pz      :     0.010284  p :     0.043913
      px      :     0.017638
      py      :     0.015990

 12 H s       :     0.801139  s :     0.801139
      pz      :     0.019918  p :     0.043473
      px      :     0.010590
      py      :     0.012965

 13 H s       :     0.803916  s :     0.803916
      pz      :     0.010764  p :     0.043780
      px      :     0.017873
      py      :     0.015143

 14 H s       :     0.807084  s :     0.807084
      pz      :     0.011071  p :     0.043722
      px      :     0.018534
      py      :     0.014117


---------------------------------
LOEWDIN BOND ORDERS (THRESH 0.050000)
---------------------------------
B(  0-C ,  1-C ) :   1.1406 B(  0-C ,  2-S ) :   0.1260 B(  0-C ,  5-H ) :   0.9283 
B(  0-C ,  6-H ) :   0.9213 B(  0-C ,  7-H ) :   0.9276 B(  1-C ,  2-S ) :   1.3422 
B(  1-C ,  3-C ) :   0.0613 B(  1-C ,  8-H ) :   0.8777 B(  1-C ,  9-H ) :   0.8821 
B(  2-S ,  3-C ) :   1.3172 B(  2-S ,  4-C ) :   0.1351 B(  2-S ,  8-H ) :   0.0600 
B(  2-S ,  9-H ) :   0.0632 B(  2-S , 10-H ) :   0.0574 B(  2-S , 11-H ) :   0.0592 
B(  3-C ,  4-C ) :   1.1433 B(  3-C , 10-H ) :   0.8792 B(  3-C , 11-H ) :   0.8831 
B(  4-C , 12-H ) :   0.9287 B(  4-C , 13-H ) :   0.9288 B(  4-C , 14-H ) :   0.9222 


------------------------------------------
LOEWDIN REDUCED ORBITAL POPULATIONS PER MO
-------------------------------------------
THRESHOLD FOR PRINTING IS 0.1%%
                      0         1         2         3         4         5   
                 -88.53957 -10.06082 -10.05969 -10.02627 -10.02356  -7.83363
                   2.00000   2.00000   2.00000   2.00000   2.00000   2.00000
                  --------  --------  --------  --------  --------  --------
 0 C  s               0.0       0.0       0.0      99.7       0.0       0.0
 1 C  s               0.0      99.7       0.0       0.0       0.0       0.0
 1 C  px              0.0       0.0       0.0       0.0       0.0       0.1
 2 S  s             100.0       0.0       0.0       0.0       0.0      99.6
 3 C  s               0.0       0.0      99.7       0.0       0.0       0.0
 4 C  s               0.0       0.0       0.0       0.0      99.7       0.0

                      6         7         8         9        10        11   
                  -5.78120  -5.77733  -5.77021  -0.77801  -0.73232  -0.65590
                   2.00000   2.00000   2.00000   2.00000   2.00000   2.00000
                  --------  --------  --------  --------  --------  --------
 0 C  s               0.0       0.0       0.0       8.3      14.2      15.3
 0 C  pz              0.0       0.0       0.0       0.3       0.3       0.0
 0 C  px              0.0       0.0       0.0       0.3       0.0       0.1
 0 C  py              0.0       0.0       0.0       1.8       1.1       0.7
 1 C  s               0.0       0.0       0.0      18.4      14.0       0.2
 1 C  pz              0.0       0.0       0.0       0.5       0.3       0.1
 1 C  px              0.0       0.0       0.0       1.7       0.5       4.5
 1 C  py              0.0       0.0       0.0       0.0       1.1       7.6
 1 C  dx2y2           0.0       0.0       0.0       0.0       0.0       0.1
 2 S  s               0.0       0.0       0.0      19.1       0.0      21.6
 2 S  pz              0.1      33.6      66.3       0.8       0.0       0.3
 2 S  px             98.9       1.0       0.1       0.0       5.3       0.0
 2 S  py              1.0      65.4      33.6       2.1       0.0       0.3
 2 S  dz2             0.0       0.0       0.0       0.3       0.0       0.0
 2 S  dxz             0.0       0.0       0.0       0.0       0.6       0.0
 2 S  dyz             0.0       0.0       0.0       0.3       0.0       0.1
 2 S  dx2y2           0.0       0.0       0.0       0.1       0.0       0.0
 2 S  dxy             0.0       0.0       0.0       0.0       1.8       0.0
 3 C  s               0.0       0.0       0.0      17.2      15.3       0.1
 3 C  pz              0.0       0.0       0.0       0.9       0.7       0.4
 3 C  px              0.0       0.0       0.0       1.1       0.8       4.6
 3 C  py              0.0       0.0       0.0       0.1       0.6       6.0
 3 C  dyz             0.0       0.0       0.0       0.0       0.0       0.1
 4 C  s               0.0       0.0       0.0       7.1      15.4      13.6
 4 C  pz              0.0       0.0       0.0       0.8       0.8       0.1
 4 C  px              0.0       0.0       0.0       0.6       0.1       0.2
 4 C  py              0.0       0.0       0.0       1.0       0.6       0.4
 5 H  s               0.0       0.0       0.0       1.1       2.2       3.4
 5 H  pz              0.0       0.0       0.0       0.1       0.2       0.3
 6 H  s               0.0       0.0       0.0       1.1       2.4       4.0
 6 H  px              0.0       0.0       0.0       0.1       0.2       0.3
 7 H  s               0.0       0.0       0.0       1.1       2.2       3.8
 7 H  px              0.0       0.0       0.0       0.0       0.1       0.2
 7 H  py              0.0       0.0       0.0       0.0       0.1       0.1
 8 H  s               0.0       0.0       0.0       2.4       2.5       0.1
 8 H  px              0.0       0.0       0.0       0.1       0.1       0.0
 8 H  py              0.0       0.0       0.0       0.1       0.1       0.0
 9 H  s               0.0       0.0       0.0       2.5       2.2       0.1
 9 H  pz              0.0       0.0       0.0       0.2       0.2       0.0
10 H  s               0.0       0.0       0.0       2.4       2.4       0.0
10 H  pz              0.0       0.0       0.0       0.1       0.1       0.0
11 H  s               0.0       0.0       0.0       2.2       2.7       0.0
11 H  px              0.0       0.0       0.0       0.1       0.1       0.0
11 H  py              0.0       0.0       0.0       0.1       0.1       0.0
12 H  s               0.0       0.0       0.0       0.9       2.4       3.1
12 H  pz              0.0       0.0       0.0       0.0       0.1       0.2
13 H  s               0.0       0.0       0.0       0.9       2.3       3.3
13 H  px              0.0       0.0       0.0       0.0       0.1       0.1
14 H  s               0.0       0.0       0.0       0.9       2.5       3.5
14 H  px              0.0       0.0       0.0       0.0       0.1       0.2

                     12        13        14        15        16        17   
                  -0.59091  -0.53689  -0.44395  -0.42531  -0.39807  -0.39071
                   2.00000   2.00000   2.00000   2.00000   2.00000   2.00000
                  --------  --------  --------  --------  --------  --------
 0 C  s               8.2       1.8       0.0       0.0       0.1       0.2
 0 C  pz              0.7       2.3       2.7      13.3       0.0       1.2
 0 C  px              0.1       0.2       7.8       0.1       2.8      27.2
 0 C  py              3.7       2.7       1.8       2.5       3.3       7.2
 0 C  dxz             0.0       0.0       0.0       0.0       0.0       0.1
 0 C  dx2y2           0.0       0.0       0.0       0.0       0.0       0.2
 1 C  s               8.4       6.2       0.0       0.0       0.0       0.9
 1 C  pz              0.8       5.2       5.4      18.6       0.5       3.6
 1 C  px              0.1       4.9       9.3       0.1       6.8       3.7
 1 C  py              4.8       0.0       3.4       4.6       0.2       5.6
 1 C  dxy             0.0       0.1       0.0       0.0       0.0       0.0
 2 S  s               0.0      19.6       0.4       0.0       1.0       2.5
 2 S  pz              0.0       2.0       1.2       0.4       0.7       0.4
 2 S  px              6.1       0.0       0.4       6.9       4.0       0.4
 2 S  py              0.1       0.5       2.5       0.1       2.6       4.1
 2 S  dz2             0.0       0.0       0.2       0.1       0.3       0.4
 2 S  dxz             1.1       0.0       0.1       0.2       0.0       0.0
 2 S  dyz             0.0       0.4       0.4       0.0       0.0       0.0
 2 S  dx2y2           0.1       0.3       1.5       0.0       0.0       0.0
 2 S  dxy             0.6       0.0       0.0       0.1       0.7       0.4
 3 C  s               8.0       6.6       0.1       0.1       0.6       0.1
 3 C  pz              2.7       8.2       1.5       4.5       8.7       2.2
 3 C  px              0.3       2.5      11.8       0.3       6.6       2.9
 3 C  py              2.3       0.9       9.0       9.9       1.1       0.2
 3 C  dz2             0.0       0.0       0.0       0.0       0.1       0.0
 3 C  dxy             0.0       0.2       0.0       0.0       0.0       0.0
 4 C  s              10.0       1.6       0.0       0.0       0.1       0.1
 4 C  pz              2.2       4.3       0.1       5.1       3.0       0.3
 4 C  px              0.7       0.0       4.8       0.7      27.2       0.0
 4 C  py              1.9       0.7       6.1       4.4       3.2       8.7
 4 C  dxz             0.0       0.0       0.0       0.0       0.1       0.0
 4 C  dyz             0.1       0.1       0.0       0.0       0.1       0.0
 5 H  s               2.9       1.8       1.2       4.7       0.0       0.5
 5 H  pz              0.2       0.1       0.0       0.1       0.0       0.0
 5 H  px              0.0       0.0       0.0       0.0       0.0       0.2
 6 H  s               3.0       0.5       0.9       1.2       0.2      16.4
 6 H  px              0.2       0.0       0.0       0.1       0.0       0.3
 7 H  s               3.3       1.4       3.4       1.1       2.5       0.7
 7 H  px              0.1       0.0       0.0       0.1       0.0       0.1
 7 H  py              0.1       0.0       0.1       0.0       0.0       0.2
 8 H  s               4.2       3.9       5.1       2.1       1.6       1.4
 8 H  px              0.2       0.1       0.1       0.1       0.0       0.0
 8 H  py              0.1       0.1       0.1       0.0       0.1       0.0
 9 H  s               3.1       5.3       2.4       7.7       0.2       0.3
 9 H  pz              0.2       0.3       0.1       0.2       0.0       0.0
10 H  s               3.1       5.7       4.6       4.6       0.0       1.4
10 H  pz              0.1       0.1       0.1       0.1       0.0       0.0
10 H  px              0.0       0.1       0.0       0.1       0.0       0.0
11 H  s               3.5       4.4       5.7       0.7       3.4       0.8
11 H  pz              0.0       0.0       0.1       0.1       0.0       0.0
11 H  px              0.2       0.1       0.1       0.0       0.0       0.0
11 H  py              0.1       0.2       0.1       0.0       0.1       0.0
12 H  s               3.6       1.5       1.6       3.6       0.0       1.3
12 H  pz              0.1       0.0       0.1       0.1       0.0       0.1
12 H  px              0.0       0.0       0.0       0.0       0.2       0.0
12 H  py              0.1       0.1       0.0       0.0       0.0       0.0
13 H  s               3.5       1.6       3.0       0.3       3.3       1.3
13 H  px              0.2       0.1       0.0       0.0       0.0       0.1
13 H  py              0.1       0.0       0.0       0.0       0.2       0.0
14 H  s               3.7       0.4       0.0       0.7      13.4       1.6
14 H  px              0.1       0.0       0.0       0.1       0.1       0.1
14 H  py              0.1       0.0       0.0       0.0       0.2       0.0

                     18        19        20        21        22        23   
                  -0.35746  -0.35589  -0.33871  -0.32967  -0.30067  -0.26945
                   2.00000   2.00000   2.00000   2.00000   2.00000   2.00000
                  --------  --------  --------  --------  --------  --------
 0 C  s               0.3       0.1       0.0       0.0       0.0       0.0
 0 C  pz             13.1       1.5       7.7      13.7       0.2       0.2
 0 C  px              2.8       0.5       7.8       0.0       6.7       0.9
 0 C  py             13.9       9.7       0.3       1.6       0.3       1.8
 0 C  dz2             0.1       0.1       0.2       0.5       0.0       0.1
 0 C  dyz             0.1       0.0       0.0       0.0       0.0       0.0
 0 C  dxy             0.2       0.0       0.2       0.0       0.4       0.0
 1 C  s               0.2       0.0       0.0       0.0       0.1       0.4
 1 C  pz              4.5       0.3       3.1       9.3       0.1       3.1
 1 C  px              0.0       0.1       4.6       0.0      14.6       3.2
 1 C  py             17.8       4.4       0.1       0.7       0.4       3.6
 1 C  dz2             0.0       0.0       0.1       0.4       0.0       0.2
 1 C  dx2y2           0.0       0.0       0.1       0.0       0.0       0.1
 1 C  dxy             0.2       0.0       0.1       0.0       0.6       0.0
 2 S  s               1.4       0.4       0.2       0.0       0.0       6.2
 2 S  pz              2.1       2.4       1.0       0.1       0.0      18.4
 2 S  px              0.9       2.5       0.8       5.3      16.5       0.3
 2 S  py              0.2       0.4       2.5       0.0       0.1      32.7
 2 S  dz2             0.0       0.2       0.2       0.0       0.0       0.4
 2 S  dxz             0.1       0.6       0.4       0.1       0.2       0.0
 2 S  dyz             0.0       0.1       0.2       0.0       0.0       0.1
 2 S  dx2y2           0.4       0.0       0.3       0.0       0.0       0.6
 2 S  dxy             0.2       0.3       0.0       0.1       0.6       0.0
 3 C  s               0.0       0.2       0.1       0.0       0.0       0.5
 3 C  pz              1.1      13.2       0.3       5.6       0.8       3.6
 3 C  px              0.1       4.4       2.8       0.7      13.7       1.6
 3 C  py              0.7       9.9       5.8       2.2       0.1       5.7
 3 C  dz2             0.0       0.0       0.1       0.1       0.0       0.1
 3 C  dxz             0.0       0.0       0.2       0.1       0.0       0.1
 3 C  dyz             0.0       0.1       0.0       0.1       0.3       0.1
 3 C  dxy             0.1       0.1       0.1       0.1       0.3       0.0
 4 C  s               0.0       0.3       0.1       0.0       0.1       0.0
 4 C  pz              8.7      20.3       0.0       8.9       0.5       0.4
 4 C  px              2.3       1.5       6.6       1.6       9.6       0.4
 4 C  py              0.8       7.8      12.0       6.1       0.0       1.1
 4 C  dz2             0.0       0.0       0.1       0.1       0.0       0.1
 4 C  dxz             0.0       0.0       0.2       0.2       0.0       0.0
 4 C  dyz             0.0       0.2       0.1       0.1       0.2       0.0
 4 C  dxy             0.2       0.1       0.1       0.1       0.3       0.1
 5 H  s               5.5       1.2       5.0       9.3       0.1       1.0
 5 H  pz              0.1       0.0       0.1       0.1       0.0       0.0
 5 H  py              0.2       0.1       0.0       0.0       0.0       0.0
 6 H  s               1.0       0.3       1.3       1.4       4.2       1.7
 6 H  pz              0.1       0.0       0.1       0.1       0.0       0.0
 6 H  py              0.2       0.1       0.0       0.0       0.0       0.0
 7 H  s               4.4       4.3       6.3       2.2       3.6       0.0
 7 H  pz              0.2       0.0       0.0       0.1       0.0       0.0
 8 H  s               3.0       0.6       3.1       1.0       7.7       0.5
 9 H  s               1.8       0.0       2.5       7.1       0.1       2.8
 9 H  px              0.0       0.0       0.0       0.0       0.1       0.1
 9 H  py              0.2       0.0       0.0       0.0       0.0       0.1
10 H  s               0.2       2.2       1.7       6.0       0.6       4.5
10 H  px              0.0       0.0       0.0       0.0       0.1       0.1
10 H  py              0.0       0.3       0.0       0.0       0.0       0.0
11 H  s               1.1       1.2       6.0       0.3       6.2       0.2
11 H  px              0.0       0.2       0.1       0.0       0.0       0.0
11 H  py              0.0       0.0       0.0       0.0       0.1       0.0
12 H  s               2.4       3.4       4.7      10.4       0.2       0.9
12 H  pz              0.0       0.0       0.2       0.1       0.0       0.0
12 H  py              0.0       0.2       0.0       0.0       0.0       0.0
13 H  s               1.8       3.0       9.8       1.2       4.8       0.0
13 H  pz              0.0       0.1       0.1       0.1       0.0       0.0
13 H  px              0.0       0.2       0.1       0.0       0.0       0.0
14 H  s               4.6       0.2       0.0       2.1       4.8       1.3
14 H  pz              0.0       0.2       0.0       0.0       0.0       0.0
14 H  px              0.1       0.0       0.0       0.1       0.0       0.0
14 H  py              0.0       0.1       0.1       0.0       0.0       0.0

                     24        25        26        27        28        29   
                  -0.18868   0.02421   0.04855   0.08413   0.11055   0.12099
                   2.00000   0.00000   0.00000   0.00000   0.00000   0.00000
                  --------  --------  --------  --------  --------  --------
 0 C  s               0.9       0.1       0.6      14.5       6.0      10.4
 0 C  pz              0.1       0.6       0.3       0.3       1.7       0.2
 0 C  px              0.4       0.2       0.3       0.1       1.1       7.0
 0 C  py              1.9       1.0       0.3       2.4       8.4       6.4
 0 C  dz2             0.0       0.2       0.0       0.0       0.0       0.0
 0 C  dxz             0.0       0.0       0.1       0.0       0.0       0.1
 0 C  dyz             0.0       0.0       0.0       0.4       0.3       0.0
 0 C  dx2y2           0.0       0.0       0.0       0.2       0.1       0.3
 0 C  dxy             0.0       0.2       0.3       0.0       0.1       0.0
 1 C  s               0.1       5.0       2.3      10.2       3.8       0.2
 1 C  pz              0.9       1.3       2.3       2.0       2.1       2.6
 1 C  px              0.1       6.2      10.0       1.2       1.1       1.0
 1 C  py              0.8       1.9       0.8       0.1       4.7       7.0
 1 C  dz2             0.2       0.0       0.3       0.1       0.0       0.3
 1 C  dxz             0.1       0.2       0.2       0.1       0.0       0.0
 1 C  dyz             0.1       0.1       0.0       0.1       0.2       0.6
 1 C  dx2y2           0.1       0.0       0.5       0.0       0.2       0.5
 1 C  dxy             0.1       0.3       0.1       0.2       0.2       0.0
 2 S  s               0.0       0.1      10.7       2.9       1.2       0.9
 2 S  pz             55.7       0.0       6.7       0.2       0.7       0.1
 2 S  px              0.1      31.8       0.0       0.1       0.6       0.3
 2 S  py             27.5       0.0      14.6       1.4       0.7       0.3
 2 S  dz2             0.1       0.2       4.3       0.0       3.4       0.1
 2 S  dxz             0.0      11.0       0.1       0.3       0.0       3.8
 2 S  dyz             0.0       0.0       7.5       0.4       1.6       1.0
 2 S  dx2y2           0.1       1.5       4.5       0.3       0.0       1.1
 2 S  dxy             0.0      17.5       0.4       0.0       0.1       2.7
 3 C  s               0.1       4.3       4.2       9.4       2.8       1.3
 3 C  pz              0.8       0.4       5.4       3.8       8.2       1.0
 3 C  px              0.1       3.7       5.9       1.3       0.9       4.8
 3 C  py              0.8       1.9       4.3       1.0       4.2       0.7
 3 C  dz2             0.0       0.0       0.1       0.0       0.3       0.0
 3 C  dxz             0.2       0.0       0.4       0.1       0.0       0.3
 3 C  dyz             0.1       0.5       0.0       0.0       0.5       0.0
 3 C  dx2y2           0.1       0.1       0.2       0.0       0.1       0.0
 3 C  dxy             0.2       0.1       0.6       0.5       0.1       0.5
 4 C  s               0.9       0.9       0.7       7.0      12.1      15.7
 4 C  pz              0.6       0.4       0.3       2.0       1.2       1.9
 4 C  px              0.7       0.3       0.5       0.1       3.4       4.4
 4 C  py              1.2       0.2       1.2       1.3       8.7       0.2
 4 C  dz2             0.0       0.1       0.2       0.3       0.0       0.0
 4 C  dxz             0.0       0.0       0.1       0.1       0.2       0.0
 4 C  dyz             0.0       0.1       0.0       0.2       0.3       0.0
 4 C  dxy             0.0       0.1       0.4       0.0       0.1       0.3
 5 H  s               0.0       0.6       0.1       1.1       0.2       0.9
 5 H  pz              0.0       0.1       0.1       0.4       0.4       0.7
 5 H  px              0.0       0.0       0.0       0.0       0.0       0.1
 5 H  py              0.0       0.0       0.0       0.4       0.1       0.0
 6 H  s               0.5       0.5       0.1       2.1       0.2       0.8
 6 H  pz              0.0       0.1       0.1       0.1       0.0       0.0
 6 H  px              0.0       0.0       0.0       1.0       0.1       0.4
 6 H  py              0.0       0.1       0.1       0.0       0.0       0.3
 7 H  s               0.0       0.0       0.2       4.5       2.2       1.2
 7 H  pz              0.0       0.0       0.0       0.4       0.0       0.1
 7 H  px              0.0       0.0       0.1       1.5       0.6       0.1
 7 H  py              0.0       0.0       0.0       0.2       0.9       0.9
 8 H  s               0.1       0.5       0.1       2.2       0.6       0.1
 8 H  pz              0.0       0.0       0.2       0.4       0.0       0.5
 8 H  px              0.0       0.2       0.6       0.3       0.0       0.1
 8 H  py              0.0       0.0       0.1       0.3       0.6       0.3
 9 H  s               1.7       0.7       0.5       3.4       1.6       1.6
 9 H  pz              0.0       0.2       0.0       1.2       0.9       0.2
 9 H  px              0.0       0.3       0.5       0.3       0.2       0.0
 9 H  py              0.0       0.1       0.0       0.1       0.1       0.6
10 H  s               0.2       2.1       1.1       4.2       0.1       0.0
10 H  pz              0.0       0.3       0.0       0.6       0.6       0.1
10 H  px              0.0       0.0       0.5       1.2       0.0       0.0
10 H  py              0.0       0.4       0.0       0.4       0.2       0.1
11 H  s               1.2       0.3       0.3       2.0       0.1       2.1
11 H  pz              0.0       0.0       0.4       0.0       0.4       0.0
11 H  px              0.0       0.2       0.5       0.3       0.0       0.6
11 H  py              0.0       0.0       0.2       0.8       0.2       0.1
12 H  s               0.1       0.6       0.2       0.6       0.9       1.4
12 H  pz              0.0       0.1       0.0       0.0       0.3       0.8
12 H  px              0.0       0.0       0.0       0.0       0.6       0.1
12 H  py              0.0       0.1       0.0       0.4       0.0       0.3
13 H  s               0.0       0.1       1.0       1.9       3.2       0.4
13 H  pz              0.0       0.0       0.0       0.0       0.2       0.1
13 H  px              0.0       0.0       0.3       0.9       0.6       0.3
13 H  py              0.0       0.0       0.0       0.1       1.4       0.0
14 H  s               0.5       0.2       0.4       1.0       0.7       4.6
14 H  pz              0.0       0.1       0.2       0.2       0.0       0.3
14 H  px              0.0       0.0       0.0       0.2       0.3       1.2
14 H  py              0.0       0.0       0.2       0.0       0.1       0.7

                     30        31        32        33        34        35   
                   0.13303   0.14734   0.15281   0.16817   0.17397   0.17683
                   0.00000   0.00000   0.00000   0.00000   0.00000   0.00000
                  --------  --------  --------  --------  --------  --------
 0 C  s               2.3       0.6       2.1       1.5       0.0       0.5
 0 C  pz              1.6       8.0       8.7       4.6      10.8       2.1
 0 C  px              7.4       0.9       2.7       6.0       3.4       0.7
 0 C  py              1.0       7.0       4.4       3.7       8.7       0.3
 0 C  dz2             0.0       0.0       0.0       1.7       1.0       0.0
 0 C  dxz             0.0       0.0       0.4       0.0       0.6       0.0
 0 C  dyz             0.0       0.7       0.0       0.0       0.1       0.4
 0 C  dx2y2           0.6       0.5       0.0       0.2       0.1       0.1
 0 C  dxy             0.7       0.0       0.5       0.2       0.6       0.2
 1 C  s               2.1       6.5       1.0       0.2       0.6       0.1
 1 C  pz              2.5       5.5       1.4       0.1      16.3       1.0
 1 C  px             10.0       4.8       0.2       0.4       3.0       0.2
 1 C  py              4.1       2.3       2.5       1.5       0.1       1.2
 1 C  dz2             0.6       0.1       0.1       0.2       1.2       0.5
 1 C  dxz             0.0       0.0       0.0       0.0       0.6       0.0
 1 C  dyz             0.0       0.2       0.1       0.4       0.0       0.0
 1 C  dx2y2           0.0       0.1       0.3       0.0       0.1       0.0
 1 C  dxy             1.7       0.0       0.0       0.1       0.0       0.3
 2 S  s               0.7       0.8       1.8       1.1       0.4       0.4
 2 S  pz              0.2       0.3       0.9       0.7       1.5       1.2
 2 S  px              1.1       1.6       0.5       0.1       0.3       0.6
 2 S  py              1.0       0.7       0.3       0.2       0.1       0.7
 2 S  dz2             0.5       0.7       2.1       1.4       4.2       2.9
 2 S  dxz             0.1       0.7       0.0       0.3       1.5       0.8
 2 S  dyz             1.4       0.4       4.0       0.8       0.7       1.1
 2 S  dx2y2           7.7       2.1       0.4       0.4       1.2       2.4
 2 S  dxy             1.1       0.0       0.0       0.8       1.6       0.6
 3 C  s               1.1       3.8       3.0       0.8       0.2       1.0
 3 C  pz              5.8       2.0       2.3      10.2       0.2       3.2
 3 C  px              0.8       9.7       1.0       2.9       2.7       0.8
 3 C  py              3.6       5.7       2.3       1.3       4.2       1.6
 3 C  dz2             0.4       0.0       0.5       0.2       0.0       0.4
 3 C  dxz             0.2       0.0       0.3       0.4       0.1       0.2
 3 C  dyz             0.2       1.4       0.0       0.1       0.1       0.5
 3 C  dx2y2           0.0       0.0       0.0       0.0       0.0       0.6
 3 C  dxy             0.1       0.1       0.9       0.0       0.2       0.1
 4 C  s               0.5       0.6       1.3       0.1       0.0       2.0
 4 C  pz              3.0       2.1      11.1       5.4       0.2       8.1
 4 C  px              0.5       1.8       3.9       7.4       2.2       4.2
 4 C  py              2.4       7.1       3.3       3.0       0.2       4.8
 4 C  dz2             0.1       0.1       0.0       0.1       0.0       1.0
 4 C  dxz             0.2       0.1       0.7       0.0       0.2       1.4
 4 C  dyz             0.1       0.8       0.1       0.0       0.0       1.4
 4 C  dx2y2           0.1       0.4       0.0       0.1       0.1       0.1
 4 C  dxy             0.0       0.0       0.2       1.8       0.1       0.0
 5 H  s               0.3       0.2       1.8       8.2       5.1       1.3
 5 H  pz              0.3       0.3       0.6       1.5       1.7       0.2
 5 H  px              0.1       0.0       0.6       0.0       0.6       0.0
 5 H  py              0.0       0.3       0.0       0.0       0.4       0.3
 6 H  s               4.8       0.6       3.2       1.4       4.7       0.3
 6 H  pz              0.1       0.2       0.3       0.4       0.1       0.1
 6 H  px              1.2       0.2       0.2       0.1       0.8       0.0
 6 H  py              0.2       0.2       0.4       0.3       0.7       0.0
 7 H  s               1.3       0.3       2.8       4.2       2.0       1.0
 7 H  pz              0.1       0.1       0.2       0.3       1.0       0.3
 7 H  px              0.0       0.1       0.1       1.3       0.1       0.0
 7 H  py              0.7       0.1       0.0       0.1       0.0       0.2
 8 H  s               9.4       0.3       1.0       1.2       2.3       2.6
 8 H  px              1.8       0.1       0.4       0.1       0.2       0.3
 8 H  py              1.4       0.5       0.0       0.1       0.5       0.1
 9 H  s               2.3       1.4       0.3       0.3       3.9       1.3
 9 H  pz              0.5       1.5       0.0       0.0       1.7       0.3
 9 H  px              0.0       0.0       0.0       0.0       0.5       0.0
 9 H  py              0.0       0.1       0.1       0.5       0.0       0.0
10 H  s               3.2       1.5       0.3       1.1       0.7       5.0
10 H  pz              1.5       0.1       0.1       0.4       0.3       1.3
10 H  px              0.1       0.1       0.3       0.1       0.0       0.5
10 H  py              0.2       0.3       0.8       0.3       0.0       0.2
11 H  s               1.6       4.8       8.5       0.0       2.2       0.1
11 H  pz              0.0       1.0       0.0       0.1       0.1       0.2
11 H  px              0.1       0.6       1.7       0.1       0.4       0.3
11 H  py              0.0       1.4       0.8       0.0       0.4       0.1
12 H  s               0.0       0.1       1.8       0.1       0.0      19.4
12 H  pz              0.0       0.0       0.0       0.3       0.0       3.9
12 H  px              0.1       0.0       0.3       0.6       0.0       0.2
12 H  py              0.1       0.2       0.0       0.2       0.1       0.9
13 H  s               0.0       0.0       2.2       7.9       0.1       6.5
13 H  pz              0.0       0.1       1.0       0.0       0.0       1.1
13 H  px              0.0       0.1       0.6       1.5       0.1       0.4
13 H  py              0.0       0.4       0.0       0.8       0.0       0.0
14 H  s               0.6       1.8       3.6       4.1       0.0       0.2
14 H  pz              0.3       0.3       0.1       0.1       0.0       0.1
14 H  px              0.0       0.1       0.3       0.3       0.0       1.0
14 H  py              0.1       0.0       0.0       1.3       0.0       0.4

                     36        37        38        39        40        41   
                   0.18664   0.19229   0.20966   0.21000   0.22736   0.23292
                   0.00000   0.00000   0.00000   0.00000   0.00000   0.00000
                  --------  --------  --------  --------  --------  --------
 0 C  s               1.4       0.0       1.9       0.8       4.0       0.5
 0 C  pz              7.2       6.7       0.2       0.2       2.8      19.1
 0 C  px              4.7       8.2       0.8       6.7       6.8       7.6
 0 C  py              1.9       1.7       7.2       8.8      11.2       9.6
 0 C  dz2             0.9       1.9       0.2       0.1       0.0       0.0
 0 C  dxz             0.7       0.1       0.0       0.0       0.5       0.0
 0 C  dyz             0.2       0.1       0.5       0.5       0.0       0.4
 0 C  dx2y2           0.6       0.1       0.3       0.2       0.3       0.0
 0 C  dxy             0.1       0.1       0.8       0.1       0.5       0.1
 1 C  s               1.1       0.7       1.2       1.1       0.8       0.4
 1 C  pz              3.6       1.2       1.1       2.5       6.5       8.5
 1 C  px              0.8       2.6       4.1       0.0       0.5       5.4
 1 C  py              5.1       3.8       7.4       8.2       6.0       2.6
 1 C  dz2             0.5       0.0       0.1       0.5       0.0       0.3
 1 C  dxz             0.6       0.0       0.0       0.0       0.0       0.6
 1 C  dyz             0.1       0.4       0.1       0.1       0.7       0.0
 1 C  dx2y2           0.2       0.0       0.0       0.0       0.4       0.2
 1 C  dxy             0.2       0.0       0.1       0.0       0.5       0.2
 2 S  s               0.0       0.1       0.2       0.3       0.0       0.1
 2 S  pz              0.4       0.3       0.8       0.5       0.4       0.1
 2 S  px              0.5       0.1       0.7       0.3       0.1       8.1
 2 S  py              1.0       0.4       0.1       5.9       0.4       0.4
 2 S  dz2             2.0       0.0       0.0       0.3       0.1       0.0
 2 S  dxz             1.1       0.5       0.6       0.6      10.1       0.0
 2 S  dyz             1.1       0.1       2.1       0.8       0.0       0.1
 2 S  dx2y2           0.2       0.3       2.3       0.7       0.2       2.2
 2 S  dxy             0.1       1.1       0.3       0.2       3.7       0.5
 3 C  s               0.9       0.1       0.5       0.6       0.1       1.0
 3 C  pz              5.1       1.7       2.0       1.7       1.1       3.8
 3 C  px              1.2       0.4       1.7       0.9       1.1       0.3
 3 C  py              1.8       5.8       5.5       0.7       0.7       4.3
 3 C  dz2             0.0       0.2       0.0       0.0       0.0       0.2
 3 C  dxz             0.0       0.2       0.2       0.0       0.2       1.0
 3 C  dyz             0.1       0.1       0.2       0.1       0.3       0.2
 3 C  dx2y2           0.1       0.1       0.0       0.0       0.1       0.2
 3 C  dxy             0.3       0.0       0.5       0.2       0.1       0.3
 4 C  s               1.1       0.1       1.7       0.9       0.9       0.1
 4 C  pz              8.2       9.3      10.9       0.0       0.4       0.7
 4 C  px              7.4       6.9       2.6      21.5       2.7       0.2
 4 C  py              2.7       5.1       3.4      10.3      18.9       0.8
 4 C  dz2             0.1       0.0       0.0       0.1       0.0       0.1
 4 C  dxz             0.1       0.0       0.1       0.6       0.0       0.0
 4 C  dyz             0.8       1.2       0.8       0.0       0.1       0.1
 4 C  dx2y2           0.0       0.0       0.0       0.5       0.1       0.3
 4 C  dxy             0.0       0.5       1.8       0.1       0.0       0.0
 5 H  s               6.5       8.5       0.1       0.1       0.4       0.5
 5 H  pz              0.8       1.4       0.1       0.0       0.1       0.4
 5 H  px              0.7       0.1       0.1       0.0       0.8       0.0
 5 H  py              0.1       0.0       0.4       0.3       0.0       0.3
 6 H  s               5.4       1.7       0.4       1.6       3.1       0.1
 6 H  pz              1.7       0.4       0.0       0.1       0.2       0.1
 6 H  px              0.8       1.4       0.5       0.9       0.0       0.1
 6 H  py              0.0       0.0       0.2       0.0       0.1       0.3
 7 H  s               1.2       3.7       5.4       1.0       4.1       1.5
 7 H  pz              0.1       0.3       0.3       0.0       0.3       0.5
 7 H  px              0.2       0.7       1.0       0.0       0.1       0.1
[...]
14 H  pz              0.3       0.6       4.7       0.1       0.5       0.1
14 H  px              1.2       2.3       6.6       0.4       2.6       0.9
14 H  py              0.9       1.2       3.0       0.0       0.2       0.0

                    144       145       146       147       148       149   
                   3.55806   3.57383   3.60009   3.61922  18.81856  21.88325
                   0.00000   0.00000   0.00000   0.00000   0.00000   0.00000
                  --------  --------  --------  --------  --------  --------
 0 C  s               0.1       0.0       0.0       0.0       0.0      43.3
 0 C  pz              1.0       0.8       2.3       1.0       0.0       0.0
 0 C  px              7.3       1.6       1.1       0.1       0.0       0.0
 0 C  py              1.7       0.0       1.1       0.2       0.0       0.0
 0 C  dz2             1.1       1.5       8.1       2.5       0.0       0.0
 0 C  dxz             3.3       0.6       0.7       0.0       0.0       0.0
 0 C  dyz             1.4       0.1       0.0       0.0       0.0       0.0
 0 C  dx2y2           0.7       0.6       0.1       0.3       0.0       0.0
 0 C  dxy            13.0       2.0       3.6       0.0       0.0       0.0
 1 C  s               0.5       0.1       0.0       0.1       0.1      18.0
 1 C  pz              1.4       0.0       3.1       0.5       0.0       0.0
 1 C  px              0.0       0.0       1.6       0.1       0.0       0.0
 1 C  py              0.5       0.1       1.4       0.1       0.0       0.0
 1 C  dz2             2.5       0.1      10.5       1.9       0.0       0.0
 1 C  dxz             0.3       0.0       0.2       0.0       0.0       0.0
 1 C  dyz             0.9       0.1       0.0       0.0       0.0       0.0
 1 C  dx2y2           0.2       0.0       0.1       0.0       0.0       0.0
 1 C  dxy             0.6       0.0       3.9       0.2       0.0       0.0
 2 S  s               0.0       0.0       0.0       0.0      99.4       0.0
 2 S  px              0.1       0.1       0.0       0.1       0.0       0.0
 3 C  s               0.0       0.5       0.0       0.1       0.2       4.8
 3 C  pz              0.1       1.8       0.0       0.3       0.0       0.0
 3 C  px              0.2       1.1       0.2       2.3       0.0       0.0
 3 C  py              0.1       0.3       0.1       2.4       0.0       0.0
 3 C  dz2             0.0       0.6       0.2       2.7       0.0       0.0
 3 C  dxz             0.1       1.3       0.2       3.7       0.0       0.0
 3 C  dyz             0.3       4.3       0.3       4.5       0.0       0.0
 3 C  dx2y2           0.0       0.0       0.0       0.2       0.0       0.0
 3 C  dxy             0.2       1.0       0.1       1.0       0.0       0.0
 4 C  s               0.0       0.2       0.0       0.1       0.0      33.5
 4 C  pz              0.8       6.5       0.0       0.0       0.0       0.0
 4 C  px              1.7       2.1       1.0       3.6       0.0       0.0
 4 C  py              0.1       0.2       0.4       2.0       0.0       0.0
 4 C  dz2             0.0       0.3       0.3       1.7       0.0       0.0
 4 C  dxz             0.0       1.1       0.5       3.0       0.0       0.0
 4 C  dyz             0.4       0.1       1.6       5.8       0.0       0.0
 4 C  dx2y2           0.0       0.3       0.0       0.4       0.0       0.0
 4 C  dxy             4.3      14.9       0.8       3.1       0.0       0.0
 5 H  s               0.7       0.7       2.8       1.0       0.0       0.0
 5 H  pz              1.9       1.8       7.0       2.5       0.0       0.0
 5 H  px              0.2       0.2       0.0       0.1       0.0       0.0
 5 H  py              0.1       0.0       0.0       0.0       0.0       0.0
 6 H  s               4.9       1.7       0.0       0.4       0.0       0.0
 6 H  pz              0.9       0.3       0.0       0.1       0.0       0.0
 6 H  px              7.3       3.1       0.0       0.8       0.0       0.0
 6 H  py              2.6       0.6       0.0       0.1       0.0       0.0
 7 H  s               5.2       0.4       3.3       0.2       0.0       0.0
 7 H  pz              1.7       0.2       0.4       0.0       0.0       0.0
 7 H  px              5.7       0.4       3.5       0.1       0.0       0.0
 7 H  py              6.4       0.4       4.6       0.3       0.0       0.0
 8 H  s               0.1       0.0       4.3       0.3       0.0       0.0
 8 H  pz              0.0       0.0       0.1       0.0       0.0       0.0
 8 H  px              0.2       0.1       5.0       0.3       0.0       0.0
 8 H  py              0.1       0.0       5.4       0.3       0.0       0.0
 9 H  s               1.3       0.1       3.6       0.7       0.0       0.0
 9 H  pz              4.3       0.1       8.5       2.1       0.0       0.0
10 H  s               0.2       2.9       0.2       3.1       0.0       0.0
10 H  pz              0.4       5.8       0.3       4.5       0.0       0.0
10 H  px              0.0       0.7       0.1       1.4       0.0       0.0
10 H  py              0.1       1.9       0.1       1.1       0.0       0.0
11 H  s               0.0       0.2       0.3       3.3       0.0       0.0
11 H  pz              0.0       0.1       0.2       1.5       0.0       0.0
11 H  px              0.0       0.0       0.2       3.2       0.0       0.0
11 H  py              0.0       0.2       0.3       3.1       0.0       0.0
12 H  s               0.0       2.4       0.5       2.1       0.0       0.0
12 H  pz              0.0       2.9       0.9       4.0       0.0       0.0
12 H  px              0.1       2.4       0.1       0.6       0.0       0.0
12 H  py              0.0       1.7       0.2       0.7       0.0       0.0
13 H  s               1.7       2.3       1.1       4.7       0.0       0.0
13 H  pz              0.6       0.2       0.3       1.9       0.0       0.0
13 H  px              1.8       3.5       1.4       5.0       0.0       0.0
13 H  py              1.9       2.9       1.0       5.6       0.0       0.0
14 H  s               1.1       4.8       0.2       0.3       0.0       0.0
14 H  pz              0.4       1.1       0.1       0.1       0.0       0.0
14 H  px              1.1       4.8       0.1       0.2       0.0       0.0
14 H  py              1.3       4.5       0.1       0.2       0.0       0.0

                    150       151       152   
                  21.94335  21.95625  22.00700
                   0.00000   0.00000   0.00000
                  --------  --------  --------
 0 C  s              32.9       6.6      16.9
 1 C  s               4.9      43.4      33.4
 3 C  s              20.5      33.0      41.3
 4 C  s              41.3      16.7       8.2


                      *****************************
                      * MAYER POPULATION ANALYSIS *
                      *****************************

  NA   - Mulliken gross atomic population
  ZA   - Total nuclear charge
  QA   - Mulliken gross atomic charge
  VA   - Mayer's total valence
  BVA  - Mayer's bonded valence
  FA   - Mayer's free valence

  ATOM       NA         ZA         QA         VA         BVA        FA
  0 C      6.4414     6.0000    -0.4414     3.7669     3.7669    -0.0000
  1 C      6.2498     6.0000    -0.2498     3.7441     3.7441    -0.0000
  2 S     16.1412    16.0000    -0.1412     1.9566     1.9566    -0.0000
  3 C      6.2383     6.0000    -0.2383     3.6970     3.6970     0.0000
  4 C      6.4265     6.0000    -0.4265     3.8282     3.8282     0.0000
  5 H      0.8380     1.0000     0.1620     0.9604     0.9604    -0.0000
  6 H      0.8594     1.0000     0.1406     0.9620     0.9620     0.0000
  7 H      0.8572     1.0000     0.1428     0.9644     0.9644     0.0000
  8 H      0.8478     1.0000     0.1522     0.9594     0.9594    -0.0000
  9 H      0.8430     1.0000     0.1570     0.9572     0.9572    -0.0000
 10 H      0.8567     1.0000     0.1433     0.9665     0.9665     0.0000
 11 H      0.8383     1.0000     0.1617     0.9546     0.9546     0.0000
 12 H      0.8486     1.0000     0.1514     0.9622     0.9622     0.0000
 13 H      0.8535     1.0000     0.1465     0.9653     0.9653    -0.0000
 14 H      0.8604     1.0000     0.1396     0.9620     0.9620    -0.0000

  Mayer bond orders larger than 0.100000
B(  0-C ,  1-C ) :   0.8767 B(  0-C ,  5-H ) :   0.9745 B(  0-C ,  6-H ) :   0.9582 
B(  0-C ,  7-H ) :   0.9776 B(  1-C ,  2-S ) :   0.9779 B(  1-C ,  8-H ) :   0.9482 
B(  1-C ,  9-H ) :   0.9662 B(  2-S ,  3-C ) :   0.9095 B(  3-C ,  4-C ) :   0.9049 
B(  3-C , 10-H ) :   0.9485 B(  3-C , 11-H ) :   0.9505 B(  4-C , 12-H ) :   0.9767 
B(  4-C , 13-H ) :   0.9715 B(  4-C , 14-H ) :   0.9651 

-------
TIMINGS
-------

Total SCF time: 0 days 0 hours 0 min 12 sec 

Total time                  ....      12.384 sec
Sum of individual times     ....      11.847 sec  ( 95.7%)

SCF preparation             ....       0.181 sec  (  1.5%)
Fock matrix formation       ....      10.835 sec  ( 87.5%)
  Startup                   ....       0.061 sec  (  0.6% of F)
  Split-RI-J                ....       1.767 sec  ( 16.3% of F)
  XC integration            ....       8.511 sec  ( 78.5% of F)
    XC Preparation          ....       0.000 sec  (  0.0% of XC)
    Basis function eval.    ....       1.664 sec  ( 19.5% of XC)
    Density eval.           ....       2.086 sec  ( 24.5% of XC)
    XC-Functional eval.     ....       1.368 sec  ( 16.1% of XC)
    XC-Potential eval.      ....       2.535 sec  ( 29.8% of XC)
Diagonalization             ....       0.000 sec  (  0.0%)
Density matrix formation    ....       0.223 sec  (  1.8%)
Total Energy calculation    ....       0.037 sec  (  0.3%)
Population analysis         ....       0.075 sec  (  0.6%)
Orbital Transformation      ....       0.053 sec  (  0.4%)
Orbital Orthonormalization  ....       0.000 sec  (  0.0%)
DIIS solution               ....       0.394 sec  (  3.2%)
  MO trafo                  ....       0.000 sec  (  0.0 % of DIIS)
  Orb grad                  ....       0.000 sec  (  0.0 % of DIIS)
  Energy W gradient         ....       0.000 sec  (  0.0 % of DIIS)
  DIIS error                ....       0.005 sec  (  1.2 % of DIIS)
  DIIS work                 ....       0.340 sec  ( 86.2 % of DIIS)
  Form Q                    ....       0.000 sec  (  0.0 % of DIIS)
  Form QpQm                 ....       0.000 sec  (  0.0 % of DIIS)
  Exp/Cayley                ....       0.000 sec  (  0.0 % of DIIS)
  Orb update                ....       0.000 sec  (  0.0 % of DIIS)
  Wake-sleep                ....       0.024 sec  (  6.0 % of DIIS)
SOSCF solution              ....       0.048 sec  (  0.4%)
  MO trafo                  ....       0.038 sec  ( 78.8 % of SOSCF)
  Orb grad                  ....       0.001 sec  (  1.3 % of SOSCF)
  Rot update                ....       0.000 sec  (  0.1 % of SOSCF)
  Step                      ....       0.009 sec  ( 19.7 % of SOSCF)
Finished LeanSCF after  12.5 sec

Maximum memory used throughout the entire LEANSCF-calculation: 16.2 MB


-------------------------------------------------------------------------------
                          DFT DISPERSION CORRECTION                            
                                                                               
                                DFTD4 V3.4.0                                   
-------------------------------------------------------------------------------
The R2SCAN3C composite method is recognized
Using three-body term ABC
Active option DFTDOPT                   ...         5   

-------------------------   ----------------
Dispersion correction           -0.003720622
-------------------------   ----------------

------------------   -----------------
gCP correction             0.010742428
------------------   -----------------

-------------------------   --------------------
FINAL SINGLE POINT ENERGY      -556.553446384029
-------------------------   --------------------


------------------------------------------------------------------------------
                              ORCA PROPERTY CALCULATIONS
------------------------------------------------------------------------------

GBWName                                 ... sp_gas.gbw
Number of atoms                         ...     15
Number of basis functions               ...    153
Max core memory                         ...   1024 MB

Electric properties:
Dipole moment                           ... YES
Quadrupole moment                       ...  NO
Static polarizability (Dipole/Dipole)   ...  NO
Static polarizability (Dipole/Quad.)    ...  NO
Static polarizability (Quad./Quad.)     ...  NO
Static polarizability (Velocity)        ...  NO

Atomic electric properties:
Dipole moment                           ...  NO
Quadrupole moment                       ...  NO
Static polarizability                   ...  NO

Choice of electric origin               ... Center of mass
Position of electric origin             ...    -0.000002    -0.000121    -0.000018

General magnetic properties:
Magnetizability                         ...  NO

EPR properties:
g-Tensor (aka g-matrix)                 ...  NO
Zero-Field splitting spin-orbit         ...  NO
Zero-field splitting spin-spin          ...  NO
Hyperfine couplings                     ...  NO (   0 nuclei)
Quadrupole couplings                    ...  NO (   0 nuclei)
Contact density                         ...  NO (   0 nuclei)

NMR properties:
Chemical shifts                         ...  NO (   0 nuclei)
Spin-rotation constants                 ...  NO (   0 nuclei)
Spin-spin couplings                     ...  NO (   0 nuclei,    0 pairs)

Choice of magnetic origin               ... GIAO
Position of magnetic origin             ...     0.000000     0.000000     0.000000

Properties with geometric perturbations:
SCF Hessian                             ...  NO
IR spectrum                             ...  NO
VCD spectrum                            ...  NO
X-ray spectroscopy properties:
SCF XES/XAS/RIXS spectra                ...  NO


-------------
DIPOLE MOMENT
-------------

Method             : SCF
Type of density    : Electron Density
Multiplicity       :   1
Irrep              :   0
Energy             :  -556.5604681896256807 Eh
Relativity type    : 
Basis              : AO
                                X                 Y                 Z
Electronic contribution:      0.014299845       6.214463798       0.394087278
Nuclear contribution   :     -0.091482403      -6.819998765      -0.739504005
                        -----------------------------------------
Total Dipole Moment    :     -0.077182557      -0.605534967      -0.345416727
                        -----------------------------------------
Magnitude (a.u.)       :      0.701386098
Magnitude (Debye)      :      1.782781782



--------------------
Rotational spectrum 
--------------------
 
Rotational constants in cm-1:             0.178169             0.090054             0.068610 
Rotational constants in MHz :          5341.381177          2699.740990          2056.876796 

Dipole components along the rotational axes: 
x,y,z [a.u.] :     0.071218    -0.560456    -0.415644 
x,y,z [Debye]:     0.181021    -1.424565    -1.056483 

 

Dipole moment calculation done in   0.0 sec 

Maximum memory used throughout the entire PROP-calculation: 8.7 MB

--------------------------------
SUGGESTED CITATIONS FOR THIS RUN
--------------------------------

Below you find a list of papers that are relevant to this ORCA run
We neither can nor want to force you to cite these papers, but we appreciate if you do
You receive ORCA, which is the product of decades of hard work by many enthusiastic individuals, for free
The only thing we kindly ask in return is that you cite our papers,
We deeply appreciate it, if you show your appreciation for ORCA by not just citing the generic ORCA reference.

Please note that relegating all ORCA citations to the supporting information does *not* help us.
SI sections are not indexed - citations you put there will not count into any citation statistics
But we need these citations in order to attract the funding resources that allow us to do what we are doing

Therefore, if you are a happy ORCA user, please consider citing a few of the papers listed below in the main body of your paper

In addition to the list printed below, the program has created the file sp_gas.bibtex that contains the list in bibtex format
You can import this file easily into all common literature databanks and citation aid programs


List of essential papers. We consider these as the minimum necessary citations

  1. Neese,F.
     Software update: the ORCA program system, version 5.0
     WIRES Comput. Molec. Sci., 2022 12(1)e1606
     doi.org/10.1002/wcms.1606
  2. Grimme,S.; Hansen,A.; Ehlert,S.; Mewes,J.
     r2SCAN-3c: A 'Swiss army knife' composite electronic-structure method
     J. Chem. Phys., 2021 154 064103
     doi.org/10.1063/5.0040021

List of papers to cite with high priority. The work reported in these papers was absolutely
necessary for this run to complete.
Our perspective: the developers of density functionals and basis sets usually get cited in chemistry papers
Good! But without the algorithms to do something with them, the functionals or basis sets would not do anything.
Hence, in our opinion, the algorithm design and method developments papers are equally worthy of getting cited

  1. Neese,F.
     An improvement of the resolution of the identity approximation for the formation of the Coulomb matrix
     J. Comp. Chem., 2003 24(14)1740-1747
     doi.org/10.1002/jcc.10318
  2. Neese,F.
     The SHARK Integral Generation and Digestion System
     J. Comp. Chem., 2022  1-16
     doi.org/10.1002/jcc.26942
  3. Lehtola,S.; Steigemann,C.; Oliveira,M.; Marques,M.
     Recent developments in Libxc - A comprehensive library of functionals for density functional theory
     Software X, 2018 7 
     doi.org/10.1016/j.softx.2017.11.002
  4. Caldeweyher,E.; Bannwarth,C.; Grimme,S.
     Extension of the D3 dispersion coefficient model
     J. Chem. Phys., 2017 147 034112-XXXX
     doi.org/10.1063/1.4993215
  5. Caldeweyher,E.; Ehlert,S.; Hansen,A.; Neugebauer,H.; Spicher,S.; Bannwarth,C.; Grimme,S.
     A generally applicable atomic-charge dependent London dispersion correction
     J. Chem. Phys., 2019 150 154122-XXXX
     doi.org/10.1063/1.5090222
  6. Caldeweyher,E.; Mewes,J.; Ehlert,S.; Grimme,S.
     Extension and evaluation of the D4 London-dispersion model for periodic systems
     Phys. Chem. Chem. Phys., 2020 22(16)8499-8512
     doi.org/10.1039/D0CP00502A

List of suggested additional citations. These are papers that are important in the 'surrounding' of 
of this run, or papers that preceded the highly important papers. If you like your results we are grateful for a citation.

  1. Neese,F.
     The ORCA program system
     WIRES Comput. Molec. Sci., 2012 2(1)73-78
     doi.org/10.1002/wcms.81
  2. Neese,F.
     Software update: the ORCA program system, version 4.0
     WIRES Comput. Molec. Sci., 2018 8(1)1-6
     doi.org/10.1002/wcms.1327
  3. Neese,F.; Wennmohs,F.; Becker,U.; Riplinger,C.
     The ORCA quantum chemistry program package
     J. Chem. Phys., 2020 152 Art. No. L224108
     doi.org/10.1063/5.0004608

List of optional additional citations

  1. Neese,F.
     Approximate second-order SCF convergence for spin unrestricted wavefunctions
     Chem. Phys. Lett., 2000 325(1-3)93-98
     doi.org/10.1016/s0009-2614(00)00662-x

Timings for individual modules:

Sum of individual times          ...       13.753 sec (=   0.229 min)
Startup calculation              ...        0.856 sec (=   0.014 min)   6.2 %
SCF iterations                   ...       12.794 sec (=   0.213 min)  93.0 %
Property calculations            ...        0.103 sec (=   0.002 min)   0.8 %
                             ****ORCA TERMINATED NORMALLY****
TOTAL RUN TIME: 0 days 0 hours 0 minutes 14 seconds 553 msec
