21
 energy: -24.054415402540 gnorm: 0.030430538178 xtb: 6.7.1 (edcfbbe)
C            2.03508916883629       -0.98267452382108        0.21292166438930
C            1.22174116739131        0.11782713647523        0.89761381553281
C            0.16073405669357        0.82963467340876        0.05327428758631
H           -0.07941155891341        1.77112232938920        0.57294369410577
C           -1.18737629368901        0.11322584988664       -0.15470292993831
C           -1.09829754108047       -1.26400664175277       -0.81119040457744
C           -1.97311507732354        0.03575034830518        1.15528097784288
O            0.77164672743438        1.15847227339399       -1.21694474424366
H            2.54773547433374       -0.60633436956977       -0.67678346355523
H            1.42695481663985       -1.83860703369322       -0.08572339464475
H            2.80340927532446       -1.34944283717389        0.90177253688445
H            0.73113958599277       -0.28087709083179        1.79294815855449
H            1.92141479091665        0.88449268801937        1.25230165424862
H           -1.74992934262536        0.77210556246552       -0.83451868234165
H           -2.09518526332401       -1.59280497300680       -1.12464857459507
H           -0.45567591346865       -1.25559259726782       -1.69740065704449
H           -0.71347545165061       -2.01219453576067       -0.11086316738807
H           -2.98404640703464       -0.34267632909433        0.97109282314614
H           -2.06252584223330        1.01935695185460        1.62982788552705
H           -1.49209594411357       -0.64358725271765        1.86783317285057
H            0.13053995567226        1.68765020527746       -1.70929892587439
21
 energy: -24.055590028643 gnorm: 0.014086212578 xtb: 6.7.1 (edcfbbe)
C            2.03111269844371       -0.97879325219375        0.21402395707734
C            1.21941303950336        0.10880042348344        0.90697816058539
C            0.16662011797690        0.82113964569022        0.04785613027658
H           -0.06329577436867        1.76922153463348        0.56257951689957
C           -1.19030077524818        0.11327781447035       -0.15415740696935
C           -1.09932533747133       -1.26212802927921       -0.80523528957702
C           -1.97188027462032        0.03046247194127        1.15506297779567
O            0.77127054284961        1.14337142160078       -1.21194326837199
H            2.51689551775176       -0.57991049852537       -0.67533875746064
H            1.41829831217092       -1.82495053696562       -0.08160701207598
H            2.80221381476355       -1.33795300731146        0.89619826771247
H            0.72828295119998       -0.29791673397681        1.79411600255634
H            1.92279954265638        0.87514512392655        1.24687221118894
H           -1.75775089324144        0.76321624646369       -0.83606661714259
H           -2.09075735988114       -1.58442230540950       -1.12451590492893
H           -0.44881061550507       -1.23473797545287       -1.67834594371857
H           -0.71759087469175       -2.00157981206127       -0.10353434507919
H           -2.97636641397451       -0.34576644621181        0.96619051262563
H           -2.05604998016079        1.01156940586344        1.62143022242113
H           -1.48761716672497       -0.64416757242663        1.85988125759079
H            0.14210931235073        1.67696191552725       -1.71470894494029
21
 energy: -24.055881513949 gnorm: 0.004200541669 xtb: 6.7.1 (edcfbbe)
C            2.02703374269804       -0.97607176389721        0.21048931333286
C            1.21322683428838        0.10391699643832        0.91328806271621
C            0.16728638177348        0.82183224017558        0.04496666875070
H           -0.05775439066771        1.77471516272729        0.55724046403334
C           -1.19291383276878        0.11377387599984       -0.15039318027507
C           -1.09546006320080       -1.26076285607812       -0.80366514855367
C           -1.97179228818517        0.03037940176096        1.15994899070413
O            0.77381098552619        1.12367751576029       -1.20589320406417
H            2.49291695003595       -0.56255322206820       -0.67999844636279
H            1.41617413467087       -1.82108228964112       -0.08189662287368
H            2.80587310035489       -1.32969168095651        0.88185716483850
H            0.71694362981716       -0.30766445655843        1.79164879351073
H            1.91357990760835        0.87020809839193        1.25330343944878
H           -1.76119361376484        0.76113851640831       -0.83231281358443
H           -2.08153148531125       -1.58036857594050       -1.13215674380884
H           -0.43573598132418       -1.22423004408305       -1.66641591276074
H           -0.72090181582085       -1.99652932719387       -0.09920141999449
H           -2.97227903555137       -0.34613518631368        0.96757430935513
H           -2.05367665772726        1.00951069302082        1.62423131213324
H           -1.48458260176105       -0.64371133619769        1.85801148855498
H            0.16024648308869        1.66048807203119       -1.72489078863542
21
 energy: -24.055953460842 gnorm: 0.002249442984 xtb: 6.7.1 (edcfbbe)
C            2.02624770658043       -0.97325439300467        0.20745763935372
C            1.20920325734592        0.10184710880016        0.91674380709361
C            0.16743465459741        0.82266681877769        0.04241049393734
H           -0.05707295351838        1.77738299742208        0.55333292098623
C           -1.19510789898221        0.11604711957386       -0.14874180557466
C           -1.09357399030979       -1.25888744900354       -0.80306963142868
C           -1.97204964534794        0.03072706229054        1.16314986297434
O            0.77592596798061        1.11229718833140       -1.20505212885116
H            2.48131403440682       -0.55481581236573       -0.68589421078571
H            1.41849189729993       -1.82217398209220       -0.08047887465539
H            2.81298586777910       -1.32189833149317        0.87175100064363
H            0.70828345191943       -0.31528917891060        1.78908438672588
H            1.90675109536173        0.86634757710352        1.26524559082223
H           -1.76422343107366        0.76357746830773       -0.82970753361283
H           -2.07650144990009       -1.57762858968102       -1.14161012779587
H           -0.42529929273647       -1.22049405432337       -1.65907490925927
H           -0.72569020872934       -1.99527479477096       -0.09552362161721
H           -2.97290224488351       -0.34539059768123        0.97160034450933
H           -2.05249796962593        1.00958471640137        1.62825533920627
H           -1.48366697627006       -0.64441507695727        1.85948376947678
H            0.17121851188472        1.64988403706155       -1.73362658568328
21
 energy: -24.055991790254 gnorm: 0.002264144186 xtb: 6.7.1 (edcfbbe)
C            2.02776185541237       -0.96994936693016        0.20525163191577
C            1.20515686994936        0.09938958446110        0.91854341361083
C            0.16727059066226        0.82357406154861        0.04053282588682
H           -0.05587947897431        1.78046023912724        0.54898716369895
C           -1.19676244833432        0.11794019855058       -0.14725562346401
C           -1.09318586033492       -1.25671698751736       -0.80336907628910
C           -1.97184314722203        0.03187031943995        1.16587070860305
O            0.77699312642310        1.10303026465358       -1.20617850969260
H            2.47227276486583       -0.54952029558519       -0.69256795902313
H            1.42499315889589       -1.82569567660817       -0.07589899530911
H            2.82381156659460       -1.31090947265838        0.86322338459573
H            0.69906675348987       -0.32549612107808        1.78432201522126
H            1.89883730834550        0.86187088377813        1.27960052415157
H           -1.76710788916112        0.76637656491044       -0.82644883515837
H           -2.07310953293494       -1.57399241615834       -1.15365197201999
H           -0.41513304444356       -1.21920304306471       -1.65228380924660
H           -0.73387694911998       -1.99524572455185       -0.09247140287549
H           -2.97424972882264       -0.34295641988013        0.97612366037841
H           -2.05071502810644        1.01057617336626        1.63318800874619
H           -1.48369405532041       -0.64525059066649        1.86154035858860
H            0.17866355191463        1.64068765864913       -1.74132178585350
21
 energy: -24.056007114789 gnorm: 0.001809860391 xtb: 6.7.1 (edcfbbe)
C            2.02992911743772       -0.96771952416688        0.20440115845180
C            1.20284029279615        0.09727212851466        0.91888572436666
C            0.16724033472643        0.82312422352053        0.03966113288463
H           -0.05408226007537        1.78146015647181        0.54586813453206
C           -1.19769915327249        0.11894331946764       -0.14662710770487
C           -1.09360351367945       -1.25521712502949       -0.80347981662718
C           -1.97155881821715        0.03280406094156        1.16701427007632
O            0.77702495926122        1.09891991820177       -1.20817657143031
H            2.46769146339756       -0.54776478902912       -0.69706861963285
H            1.43187718469488       -1.82934453151895       -0.07089611997896
H            2.83202928179009       -1.30133395064438        0.85927173816680
H            0.69334008089125       -0.33345574847077        1.78010151586804
H            1.89324690548939        0.85875111071357        1.28900736835433
H           -1.76874391108930        0.76820541051464       -0.82460877721981
H           -2.07176919548035       -1.57040741720061       -1.16113622636682
H           -0.40963463494565       -1.21928875416932       -1.64795552142822
H           -0.74047583675596       -1.99591281771275       -0.09107985388330
H           -2.97533441370492       -0.34012336080319        0.97847853389814
H           -2.04866471765640        1.01134825431569        1.63591926528180
H           -1.48460883088010       -0.64596234993468        1.86257457331686
H            0.18022604905118        1.63654161980442       -1.74441907445983
21
 energy: -24.056016030513 gnorm: 0.001078038042 xtb: 6.7.1 (edcfbbe)
C            2.03326307200389       -0.96555163772994        0.20407435183753
C            1.20048376458914        0.09405233147692        0.91879199740970
C            0.16722665639583        0.82187411707382        0.03959664035000
H           -0.05097547577934        1.78188783931186        0.54280525318287
C           -1.19829082953856        0.11952806286985       -0.14617112605164
C           -1.09453022590598       -1.25393752379319       -0.80340176786590
C           -1.97143921248537        0.03425139141282        1.16751483367217
O            0.77646472718932        1.09612142648670       -1.21092768787273
H            2.46229957339129       -0.54680926425231       -0.70226097390582
H            1.44168665101175       -1.83447079874280       -0.06335360034485
H            2.84236092312230       -1.28859277702763        0.85576876503564
H            0.68762121574397       -0.34344981231367        1.77475712231750
H            1.88688619903291        0.85469684834609        1.29818041189379
H           -1.76957900186578        0.76946579582414       -0.82335226629491
H           -2.07092062726469       -1.56612950401966       -1.16804974868163
H           -0.40483912545471       -1.21976333748602       -1.64320190014413
H           -0.74780958592107       -1.99671931894345       -0.08993674180320
H           -2.97674341080725       -0.33516815501138        0.97951428318720
H           -2.04531517467589        1.01251529783774        1.63784509313390
H           -1.48690605600946       -0.64679222220653        1.86271877361380
H            0.17832632700644        1.63383107467276       -1.74517598620401
21
 energy: -24.056018279349 gnorm: 0.000305724654 xtb: 6.7.1 (edcfbbe)
C            2.03311932438055       -0.96608255830867        0.20399489383888
C            1.20092425703325        0.09376662129205        0.91901919887181
C            0.16728230313411        0.82140384050618        0.04022426120318
H           -0.05089388271876        1.78102111163401        0.54388322308993
C           -1.19805716041028        0.11926376472297       -0.14646001665354
C           -1.09410297098257       -1.25456567481661       -0.80296377138494
C           -1.97208283570674        0.03462133433786        1.16688019030597
O            0.77648155050488        1.09747243851011       -1.21035397487619
H            2.46135246009113       -0.54706972401429       -0.70241122000031
H            1.44162452380905       -1.83465609919550       -0.06315416150255
H            2.84220513767237       -1.28862554690411        0.85534864576387
H            0.68870115886247       -0.34309909094325        1.77537557764600
H            1.88774219141284        0.85458149499177        1.29654229176167
H           -1.76868086396051        0.76874546329126       -0.82453253710773
H           -2.07075762453317       -1.56704972909309       -1.16588441590501
H           -0.40565265247127       -1.21986713737110       -1.64350492634907
H           -0.74603843789017       -1.99642644703761       -0.08965973930748
H           -2.97721517483749       -0.33398263457420        0.97799691078647
H           -2.04516400897640        1.01286537427182        1.63672626613348
H           -1.48812844780304       -0.64663114590746        1.86184518720428
H            0.17661153716850        1.63515417839402       -1.74317615705343
21
 energy: -24.056019345900 gnorm: 0.000280848506 xtb: 6.7.1 (edcfbbe)
C            2.03310858697623       -0.96636157744609        0.20335001461265
C            1.20091261800101        0.09306767856243        0.91936683876774
C            0.16728163201054        0.82137999573490        0.04091374948286
H           -0.05088464891847        1.78066697990516        0.54516993424270
C           -1.19781857682717        0.11922135612843       -0.14663043177350
C           -1.09333998278876       -1.25511714962756       -0.80229138601887
C           -1.97301442235053        0.03534593821580        1.16621891712564
O            0.77667945623785        1.09834549542543       -1.20945346668528
H            2.45830985918707       -0.54683713858675       -0.70423645451082
H            1.44220148459848       -1.83589572069669       -0.06181851628218
H            2.84425064092895       -1.28703215097767        0.85301703698612
H            0.68876717478276       -0.34421040234222        1.77546366373745
H            1.88789000527089        0.85373518755163        1.29672215367446
H           -1.76778573243005        0.76820535660860       -0.82566383003525
H           -2.06992456868025       -1.56825796839487       -1.16478417028794
H           -0.40499337318463       -1.22016622330116       -1.64287924937018
H           -0.74464678607774       -1.99606686040802       -0.08845927633868
H           -2.97836168861553       -0.33189286213529        0.97642288882450
H           -2.04497415377412        1.01361570412449        1.63593899455282
H           -1.49018290314577       -0.64659107881671        1.86113390207505
H            0.17579576257798        1.63568527426230       -1.74176558631400
21
 energy: -24.056020293955 gnorm: 0.000388467223 xtb: 6.7.1 (edcfbbe)
C            2.03300938373234       -0.96664930626858        0.20221988260790
C            1.20108440839921        0.09225893012504        0.91961566711080
C            0.16732274842924        0.82133550069579        0.04179330304734
H           -0.05118257770839        1.77982831330170        0.54741076104308
C           -1.19751409686847        0.11920019629419       -0.14696420187052
C           -1.09204873028307       -1.25580737010042       -0.80121461693168
C           -1.97437262415553        0.03642429400481        1.16508643423409
O            0.77692821911204        1.10043351520517       -1.20797463737687
H            2.45429262501145       -0.54749350730315       -0.70719552943254
H            1.44305918849500       -1.83779976096405       -0.05970363176544
H            2.84691225077384       -1.28479646929710        0.84952000002523
H            0.68904337052621       -0.34547932857409        1.77552070047330
H            1.88826050205248        0.85261290385109        1.29723920899300
H           -1.76665743268436        0.76750382118568       -0.82733820324638
H           -2.06856384119726       -1.57018222467165       -1.16277075322647
H           -0.40422566352311       -1.22119167733430       -1.64219886480616
H           -0.74239450595533       -1.99563135037357       -0.08670924363607
H           -2.98013890235455       -0.32900626848132        0.97410258698845
H           -2.04512972838756        1.01473907247456        1.63487331322516
H           -1.49339311556620       -0.64646750244298        1.86034995238836
H            0.17497890593077        1.63700805245932       -1.73992640137930
21
 energy: -24.056020786603 gnorm: 0.000226098683 xtb: 6.7.1 (edcfbbe)
C            2.03301686938659       -0.96690523137235        0.20133045397477
C            1.20117370885427        0.09151127225462        0.91949676555458
C            0.16731801541066        0.82162307762501        0.04265893585129
H           -0.05157332531477        1.77940630868403        0.54963244863709
C           -1.19713836356200        0.11907394674780       -0.14720503838241
C           -1.09122737556225       -1.25639490894087       -0.80023288412234
C           -1.97542331443457        0.03724914002507        1.16400313366035
O            0.77713672013813        1.10244690531944       -1.20653529082709
H            2.45082627685531       -0.54818839309189       -0.70994352703015
H            1.44395002002127       -1.83959956392821       -0.05760887477245
H            2.84950176070509       -1.28273541922590        0.84661204397541
H            0.68925970949905       -0.34670856859916        1.77529507665541
H            1.88842824761723        0.85160081184734        1.29756907691029
H           -1.76558864592384        0.76688233620898       -0.82863952218268
H           -2.06771622370211       -1.57181769595928       -1.16116247669860
H           -0.40366564611460       -1.22227634081969       -1.64150990444546
H           -0.74085742770682       -1.99535001162440       -0.08511947656019
H           -2.98148487732265       -0.32703126442289        0.97210405526979
H           -2.04563542071396        1.01568428276861        1.63372852519788
H           -1.49595037137905       -0.64612359441062        1.85991072014789
H            0.17492004702776        1.63849274470051       -1.73864851434815
21
 energy: -24.056020588789 gnorm: 0.000290508047 xtb: 6.7.1 (edcfbbe)
C            2.03302840444861       -0.96715104768407        0.20051545235969
C            1.20125086524090        0.09081528178659        0.91937564238949
C            0.16730944785472        0.82192068250520        0.04347507937315
H           -0.05193447429370        1.77905036538944        0.55170922964140
C           -1.19677207804668        0.11895180724387       -0.14742301436493
C           -1.09047006732057       -1.25694469207534       -0.79932282389668
C           -1.97639590497920        0.03801020218721        1.16299286147751
O            0.77732627660812        1.10431863368155       -1.20519309736944
H            2.44758605172130       -0.54882383515374       -0.71249612993588
H            1.44477150697528       -1.84127509100999       -0.05564851996980
H            2.85192601438513       -1.28083216182106        0.84391410222046
H            0.68946372632710       -0.34784530238880        1.77508208038396
H            1.88858142540923        0.85065800561552        1.29785628573820
H           -1.76458028127491        0.76629740494676       -0.82984154008185
H           -2.06693376245613       -1.57335902177382       -1.15966749318992
H           -0.40315044027740       -1.22326747712511       -1.64087244876373
H           -0.73941308047193       -1.99508440436621       -0.08364725021943
H           -2.98274743695828       -0.32515516776994        0.97022986610894
H           -2.04606569381358        1.01655281365783        1.63267669321532
H           -1.49835300526315       -0.64584093465326        1.85948929929995
H            0.17484288996388        1.63984377259353       -1.73746854795115
21
 energy: -24.056020932520 gnorm: 0.000062014025 xtb: 6.7.1 (edcfbbe)
C            2.03296866532018       -0.96692530493849        0.20083975889263
C            1.20127473992249        0.09122751542117        0.91947690714912
C            0.16735326732578        0.82152267631619        0.04292361279318
H           -0.05182898576540        1.77891908971371        0.55053636954649
C           -1.19712659517996        0.11902897446774       -0.14732767496829
C           -1.09088107120838       -1.25659697167167       -0.79978476087404
C           -1.97588550577456        0.03762579025317        1.16356863604095
O            0.77724584239505        1.10330094496607       -1.20593872260207
H            2.44967364154714       -0.54858393436303       -0.71112103709180
H            1.44435390238993       -1.84030719590662       -0.05695444984100
H            2.85038265185279       -1.28183603678661        0.84540081366515
H            0.68934128908804       -0.34726418632896        1.77520879853283
H            1.88853367489040        0.85122231618645        1.29788386682620
H           -1.76527315755845        0.76670147149488       -0.82917851413661
H           -2.06737931709173       -1.57230130007827       -1.16052753892733
H           -0.40338354057065       -1.22294286567544       -1.64118101400772
H           -0.74043577189266       -1.99530093313423       -0.08438146625840
H           -2.98189086274284       -0.32678947309122        0.97144776377007
H           -2.04641974275584        1.01618680684126        1.63307492339991
H           -1.49670409743393       -0.64551442143130        1.85996122902945
H            0.17535135702133        1.63946687153134       -1.73819177447345
21
 energy: -24.056020988279 gnorm: 0.000032247491 xtb: 6.7.1 (edcfbbe)
C            2.03302573486323       -0.96691685481075        0.20091247340698
C            1.20123820084419        0.09125093919407        0.91941301010727
C            0.16732971393248        0.82154468467194        0.04285051467738
H           -0.05179776344572        1.77901850834853        0.55032790328063
C           -1.19717604966397        0.11903820902050       -0.14731177047240
C           -1.09105792394765       -1.25656710715898       -0.79985117392912
C           -1.97578594067643        0.03755101246431        1.16366920839301
O            0.77722013972849        1.10310114692045       -1.20606057200224
H            2.45013197258868       -0.54855686242752       -0.71082886188364
H            1.44434287245380       -1.84011697809016       -0.05724233132975
H            2.85014798606250       -1.28211554669129        0.84566858061119
H            0.68932683294424       -0.34722260964184        1.77514308647223
H            1.88846223814361        0.85124159319714        1.29785208102206
H           -1.76537947533930        0.76675749349198       -0.82906669512242
H           -2.06751284594446       -1.57213010377354       -1.16078849917452
H           -0.40345128668395       -1.22296651737749       -1.64113216219046
H           -0.74084149397784       -1.99539268875620       -0.08447966145493
H           -2.98156971888893       -0.32758307778827        0.97174587591427
H           -2.04691785996702        1.01622393197325        1.63284443985303
H           -1.49611583910654       -0.64504376316672        1.86026313046870
H            0.17565088985933        1.63972442418672       -1.73819285018200
