
                                 *****************
                                 * O   R   C   A *
                                 *****************

                                            #,                                       
                                            ###                                      
                                            ####                                     
                                            #####                                    
                                            ######                                   
                                           ########,                                 
                                     ,,################,,,,,                         
                               ,,#################################,,                 
                          ,,##########################################,,             
                       ,#########################################, ''#####,          
                    ,#############################################,,   '####,        
                  ,##################################################,,,,####,       
                ,###########''''           ''''###############################       
              ,#####''   ,,,,##########,,,,          '''####'''          '####       
            ,##' ,,,,###########################,,,                        '##       
           ' ,,###''''                  '''############,,,                           
         ,,##''                                '''############,,,,        ,,,,,,###''
      ,#''                                            '''#######################'''  
     '                                                          ''''####''''         
             ,#######,   #######,   ,#######,      ##                                
            ,#'     '#,  ##    ##  ,#'     '#,    #''#        ,####,   ,####,        
            ##       ##  ##   ,#'  ##            #'  '#       #'       #'  '#        
            ##       ##  #######   ##           ,######,      #####,   #    #        
            '#,     ,#'  ##    ##  '#,     ,#' ,#      #,     #,   #   #,  ,#        
             '#######'   ##     ##  '#######'  #'      '#     '####' # '####'        



                #########################################################
                #                        -***-                          #
                #          Department of theory and spectroscopy        #
                #                                                       #
                #                      Frank Neese                      #
                #                                                       #
                #     Directorship, Architecture, Infrastructure        #
                #                    SHARK, DRIVERS                     #
                #        Core code/Algorithms in most modules           #
                #                                                       #
                #        Max Planck Institute fuer Kohlenforschung      #
                #                Kaiser Wilhelm Platz 1                 #
                #                 D-45470 Muelheim/Ruhr                 #
                #                      Germany                          #
                #                                                       #
                #                  All rights reserved                  #
                #                        -***-                          #
                #########################################################


                         Program Version 6.0.0  -   RELEASE  -


 With contributions from (in alphabetic order):
   Daniel Aravena         : Magnetic Suceptibility
   Michael Atanasov       : Ab Initio Ligand Field Theory (pilot matlab implementation)
   Alexander A. Auer      : GIAO ZORA, VPT2 properties, NMR spectrum
   Ute Becker             : All parallelization in ORCA, NUMFREQ, NUMCALC
   Giovanni Bistoni       : ED, misc. LED, open-shell LED, HFLD
   Martin Brehm           : Molecular dynamics
   Dmytro Bykov           : pre 5.0 version of the SCF Hessian
   Marcos Casanova-Páez   : Triplet and SCS-CIS(D). UHF-(DLPNO)-IP/EA/STEOM-CCSD. UHF-CVS-IP/STEOM-CCSD
   Vijay G. Chilkuri      : MRCI spin determinant printing, contributions to CSF-ICE
   Pauline Colinet        : FMM embedding
   Dipayan Datta          : RHF DLPNO-CCSD density
   Achintya Kumar Dutta   : EOM-CC, STEOM-CC
   Nicolas Foglia         : Exact transition moments, OPA infrastructure, MCD improvements
   Dmitry Ganyushin       : Spin-Orbit,Spin-Spin,Magnetic field MRCI
   Miquel Garcia          : C-PCM and meta-GGA Hessian, CCSD/C-PCM, Gaussian charge scheme
   Tiago L. C. Gouveia    : GS-ROHF, GS-ROCIS
   Yang Guo               : DLPNO-NEVPT2, F12-NEVPT2, CIM, IAO-localization
   Andreas Hansen         : Spin unrestricted coupled pair/coupled cluster methods
   Ingolf Harden          : AUTO-CI MPn and infrastructure 
   Benjamin Helmich-Paris : MC-RPA, TRAH-(SCF,CASSCF), AVAS, COSX integrals, SCF dyn. polar.
   Lee Huntington         : MR-EOM, pCC
   Robert Izsak           : Overlap fitted RIJCOSX, COSX-SCS-MP3, EOM
   Riya Kayal             : Wick's Theorem for AUTO-CI, AUTO-CI UHF-CCSDT
   Emily Kempfer          : AUTO-CI, RHF CISDT and CCSDT
   Christian Kollmar      : KDIIS, OOCD, Brueckner-CCSD(T), CCSD density, CASPT2, CASPT2-K, improved NEVPT2
   Axel Koslowski         : Symmetry handling
   Simone Kossmann        : Meta GGA functionals, TD-DFT gradient, OOMP2, (MP2 Hessian; deprecated post 5.0)
   Lucas Lang             : DCDCAS
   Marvin Lechner         : AUTO-CI (C++ implementation), FIC-MRCC
   Spencer Leger          : CASSCF response
   Dagmar Lenk            : GEPOL surface, SMD, ORCA-2-JSON
   Dimitrios Liakos       : Extrapolation schemes; Compound Job, initial MDCI parallelization
   Dimitrios Manganas     : Further ROCIS development; embedding schemes. LFT, Crystal Embedding
   Dimitrios Pantazis     : SARC Basis sets
   Anastasios Papadopoulos: AUTO-CI, single reference methods and gradients
   Taras Petrenko         : pre 6.0 DFT Hessian and TD-DFT gradient, (ASA, deprecated), ECA, 1-Electron XAS/XES, NRVS
   Peter Pinski           : DLPNO-MP2, DLPNO-MP2 Gradient
   Christoph Reimann      : Effective Core Potentials
   Marius Retegan         : Local ZFS, SOC
   Christoph Riplinger    : Optimizer, TS searches, QM/MM, DLPNO-CCSD(T), (RO)-DLPNO pert. Triples
   Michael Roemelt        : Original ROCIS implementation
   Masaaki Saitow         : Open-shell DLPNO-CCSD energy and density
   Barbara Sandhoefer     : DKH picture change effects
   Kantharuban Sivalingam : CASSCF convergence/infrastructure, NEVPT2 and variants, FIC-MRCI
   Bernardo de Souza      : ESD, SOC TD-DFT
   Georgi Stoychev        : AutoAux, RI-MP2 NMR, DLPNO-MP2 response, X2C
   Van Anh Tran           : RI-MP2 g-tensors
   Willem Van den Heuvel  : Paramagnetic NMR
   Zikuan Wang            : NOTCH, Electric field optimization 
   Frank Wennmohs         : Technical directorship and infrastructure
   Hang Xu                : AUTO-CI-Response properties 


 We gratefully acknowledge several colleagues who have allowed us to
 interface, adapt or use parts of their codes:
   Stefan Grimme, W. Hujo, H. Kruse, P. Pracht,  : VdW corrections, initial TS optimization,
                  C. Bannwarth, S. Ehlert,         DFT functionals, gCP, sTDA/sTD-DF
                  L. Wittmann, M. Mueller
   Ed Valeev, F. Pavosevic, A. Kumar             : LibInt (2-el integral package), F12 methods
   Garnet Chan, S. Sharma, J. Yang, R. Olivares  : DMRG
   Ulf Ekstrom                                   : XCFun DFT Library
   Mihaly Kallay                                 : mrcc  (arbitrary order and MRCC methods)
   Frank Weinhold                                : gennbo (NPA and NBO analysis)
   Simon Mueller                                 : openCOSMO-RS
   Christopher J. Cramer and Donald G. Truhlar   : smd solvation model
   Lars Goerigk                                  : TD-DFT with DH, B97 family of functionals
   V. Asgeirsson, H. Jonsson                     : NEB implementation
   FAccTs GmbH                                   : IRC, NEB, NEB-TS, DLPNO-Multilevel, CI-OPT
                                                   MM, QMMM, 2- and 3-layer-ONIOM, Crystal-QMMM,
                                                   LR-CPCM, SF, NACMEs, symmetry and pop. for TD-DFT,
                                                   nearIR, NL-DFT gradient (VV10), updates on ESD,
                                                   ML-optimized integration grids, MBIS, APM,
                                                   GOAT, DOCKER, SOLVATOR, interface openCOSMO-RS
   S Lehtola, MJT Oliveira, MAL Marques          : LibXC Library
   Liviu Ungur et al                             : ANISO software


 Your calculation uses the libint2 library for the computation of 2-el integrals
 For citations please refer to: http://libint.valeyev.net

 Your ORCA version has been built with support for libXC version: 6.2.2
 For citations please refer to: https://libxc.gitlab.io

 This ORCA versions uses:
   CBLAS   interface :  Fast vector & matrix operations
   LAPACKE interface :  Fast linear algebra routines
   SCALAPACK package :  Parallel linear algebra routines
   Shared memory     :  Shared parallel matrices
   BLAS/LAPACK       :  OpenBLAS 0.3.27  USE64BITINT DYNAMIC_ARCH NO_AFFINITY SkylakeX SINGLE_THREADED
        Core in use  :  SkylakeX
   Copyright (c) 2011-2014, The OpenBLAS Project


Your calculation utilizes the geometrical counterpoise correction gCP
Please cite in your paper:
H.Kruse, S. Grimme J.Chem.Phys., 136, (2012), 154101 
   

Your calculation utilizes the atom-pairwise dispersion correction
based on EEQ partial charges (D4)


================================================================================

----- Orbital basis set information -----
Your calculation utilizes the basis: def2-SV(P)
   F. Weigend and R. Ahlrichs, Phys. Chem. Chem. Phys. 7, 3297 (2005).

----- AuxJ basis set information -----
Your calculation utilizes the auxiliary basis: def2/J
   F. Weigend, Phys. Chem. Chem. Phys. 8, 1057 (2006).

================================================================================
                                        WARNINGS
                       Please study these warnings very carefully!
================================================================================


================================================================================
                                       INPUT FILE
================================================================================
NAME = sp.inp
|  1> ! pbe def2-sv(p) def2/J RI DEFGRID1 loosescf d4 GCP(DFT/SV(P)) printgap
|  2> %output
|  3>     printlevel normal
|  4> end
|  5> * xyz 0 1
|  6> C 3.5977096806 -0.4991403251 0.1813744102
|  7> C 2.1701662939 -0.215394142 0.5349399516
|  8> C 1.6608320982 -0.5024885129 1.7220538322
|  9> C 1.3406729144 0.3866444791 -0.5791802643
| 10> H 2.0244886613 0.8522246386 -1.2934542368
| 11> C 0.55538218 -0.7327073336 -1.2976100635
| 12> C -0.8817933807 -0.319465697 -1.6377997032
| 13> C -1.5589935915 0.1108493567 -0.3731385293
| 14> C -0.8971125432 0.9847248767 0.4094109514
| 15> C 0.4113165466 1.5051198215 -0.0452353407
| 16> C -2.842234192 -0.4339548211 0.0094224761
| 17> O -3.4652698812 -0.1517535585 1.0199431516
| 18> H 3.6433564678 -1.1398415624 -0.6979142716
| 19> H 4.1169679819 0.4287236357 -0.0546443072
| 20> H 4.1137276605 -0.9896092464 1.0017801211
| 21> H 0.6294909909 -0.3053505616 1.9646590324
| 22> H 2.2524534502 -0.9538202687 2.5003025025
| 23> H 1.0751319405 -1.0251721008 -2.2096700756
| 24> H 0.5070846689 -1.6077313672 -0.6461171996
| 25> H -0.8623043475 0.5128255977 -2.3454799356
| 26> H -1.4109443586 -1.1519639954 -2.1016275458
| 27> H -1.3265443048 1.3158301429 1.3437183167
| 28> H 0.2173072946 2.1945480426 -0.8725469957
| 29> H 0.9179377607 2.0581417123 0.7440972159
| 30> H -3.2661750454 -1.1664935327 -0.703970485
| 31> *
| 32> 
| 33>                          ****END OF INPUT****
================================================================================

                       ****************************
                       * Single Point Calculation *
                       ****************************

---------------------------------
CARTESIAN COORDINATES (ANGSTROEM)
---------------------------------
  C      3.597710   -0.499140    0.181374
  C      2.170166   -0.215394    0.534940
  C      1.660832   -0.502489    1.722054
  C      1.340673    0.386644   -0.579180
  H      2.024489    0.852225   -1.293454
  C      0.555382   -0.732707   -1.297610
  C     -0.881793   -0.319466   -1.637800
  C     -1.558994    0.110849   -0.373139
  C     -0.897113    0.984725    0.409411
  C      0.411317    1.505120   -0.045235
  C     -2.842234   -0.433955    0.009422
  O     -3.465270   -0.151754    1.019943
  H      3.643356   -1.139842   -0.697914
  H      4.116968    0.428724   -0.054644
  H      4.113728   -0.989609    1.001780
  H      0.629491   -0.305351    1.964659
  H      2.252453   -0.953820    2.500303
  H      1.075132   -1.025172   -2.209670
  H      0.507085   -1.607731   -0.646117
  H     -0.862304    0.512826   -2.345480
  H     -1.410944   -1.151964   -2.101628
  H     -1.326544    1.315830    1.343718
  H      0.217307    2.194548   -0.872547
  H      0.917938    2.058142    0.744097
  H     -3.266175   -1.166494   -0.703970

----------------------------
CARTESIAN COORDINATES (A.U.)
----------------------------
  NO LB      ZA    FRAG     MASS         X           Y           Z
   0 C     6.0000    0    12.011    6.798686   -0.943239    0.342748
   1 C     6.0000    0    12.011    4.101020   -0.407036    1.010890
   2 C     6.0000    0    12.011    3.138518   -0.949566    3.254210
   3 C     6.0000    0    12.011    2.533505    0.730652   -1.094492
   4 H     1.0000    0     1.008    3.825729    1.610471   -2.444274
   5 C     6.0000    0    12.011    1.049520   -1.384616   -2.452128
   6 C     6.0000    0    12.011   -1.666348   -0.603703   -3.094993
   7 C     6.0000    0    12.011   -2.946071    0.209475   -0.705130
   8 C     6.0000    0    12.011   -1.695297    1.860860    0.773675
   9 C     6.0000    0    12.011    0.777276    2.844264   -0.085482
  10 C     6.0000    0    12.011   -5.371044   -0.820056    0.017806
  11 O     8.0000    0    15.999   -6.548411   -0.286773    1.927413
  12 H     1.0000    0     1.008    6.884946   -2.153988   -1.318867
  13 H     1.0000    0     1.008    7.779942    0.810170   -0.103263
  14 H     1.0000    0     1.008    7.773819   -1.870090    1.893090
  15 H     1.0000    0     1.008    1.189566   -0.577029    3.712668
  16 H     1.0000    0     1.008    4.256520   -1.802459    4.724887
  17 H     1.0000    0     1.008    2.031705   -1.937295   -4.175671
  18 H     1.0000    0     1.008    0.958251   -3.038172   -1.220985
  19 H     1.0000    0     1.008   -1.629519    0.969100   -4.432315
  20 H     1.0000    0     1.008   -2.666298   -2.176896   -3.971500
  21 H     1.0000    0     1.008   -2.506805    2.486559    2.539260
  22 H     1.0000    0     1.008    0.410651    4.147095   -1.648875
  23 H     1.0000    0     1.008    1.734651    3.889324    1.406140
  24 H     1.0000    0     1.008   -6.172176   -2.204353   -1.330311

--------------------------------
INTERNAL COORDINATES (ANGSTROEM)
--------------------------------
 C      0   0   0     0.000000000000     0.00000000     0.00000000
 C      1   0   0     1.497798587728     0.00000000     0.00000000
 C      2   1   0     1.323285255047   122.51444921     0.00000000
 C      2   1   3     1.513860503285   115.07753970   181.73533815
 H      4   2   1     1.092957532761   107.91149783   338.20513355
 C      4   2   1     1.544594249150   109.43183040    96.48539912
 C      6   4   2     1.533613782363   112.60307198   138.89643586
 C      7   6   4     1.497711272482   108.29060603   304.12187697
 C      8   7   6     1.346895926305   117.05287513    48.77124305
 C      9   8   7     1.479696196024   118.95982744     2.57529371
 C      8   7   6     1.445638597220   121.10036099   231.19488120
 O     11   8   7     1.220230739755   125.81895751   179.55854181
 H      1   2   3     1.088912434772   110.00076152   122.78145794
 H      1   2   3     1.089158183270   110.13023382   241.50385939
 H      1   2   3     1.086231949824   111.10152265     2.09293276
 H      3   2   1     1.077675802184   122.04723721   180.71356829
 H      3   2   1     1.076748425009   121.86063517     0.26954011
 H      6   4   2     1.089738004873   109.95574144   261.28281797
 H      6   4   2     1.091990229200   109.00738489    19.23223671
 H      7   6   4     1.092657280659   109.40241394    63.57533598
 H      7   6   4     1.090041486285   110.09096730   182.53646578
 H      9   8   7     1.080265054526   120.39873674   181.24661789
 H     10   9   8     1.094255654045   107.28378669    71.76150937
 H     10   9   8     1.088826961086   111.55039863   189.96470220
 H     11   8   7     1.106918392711   114.75989539   359.38554720

---------------------------
INTERNAL COORDINATES (A.U.)
---------------------------
 C      0   0   0     0.000000000000     0.00000000     0.00000000
 C      1   0   0     2.830429134580     0.00000000     0.00000000
 C      2   1   0     2.500646729095   122.51444921     0.00000000
 C      2   1   3     2.860781756170   115.07753970   181.73533815
 H      4   2   1     2.065390412925   107.91149783   338.20513355
 C      4   2   1     2.918860118924   109.43183040    96.48539912
 C      6   4   2     2.898110043872   112.60307198   138.89643586
 C      7   6   4     2.830264132677   108.29060603   304.12187697
 C      8   7   6     2.545264431611   117.05287513    48.77124305
 C      9   8   7     2.796220571891   118.95982744     2.57529371
 C      8   7   6     2.731861037372   121.10036099   231.19488120
 O     11   8   7     2.305901918329   125.81895751   179.55854181
 H      1   2   3     2.057746285540   110.00076152   122.78145794
 H      1   2   3     2.058210682899   110.13023382   241.50385939
 H      1   2   3     2.052680903083   111.10152265     2.09293276
 H      3   2   1     2.036512127282   122.04723721   180.71356829
 H      3   2   1     2.034759638398   121.86063517     0.26954011
 H      6   4   2     2.059306386936   109.95574144   261.28281797
 H      6   4   2     2.063562474106   109.00738489    19.23223671
 H      7   6   4     2.064823018682   109.40241394    63.57533598
 H      7   6   4     2.059879883691   110.09096730   182.53646578
 H      9   8   7     2.041405105100   120.39873674   181.24661789
 H     10   9   8     2.067843506640   107.28378669    71.76150937
 H     10   9   8     2.057584763683   111.55039863   189.96470220
 H     11   8   7     2.091772614823   114.75989539   359.38554720

---------------------
BASIS SET INFORMATION
---------------------
There are 3 groups of distinct atoms

 Group   1 Type C   : 7s4p1d contracted to 3s2p1d pattern {511/31/1}
 Group   2 Type H   : 4s contracted to 2s pattern {31}
 Group   3 Type O   : 7s4p1d contracted to 3s2p1d pattern {511/31/1}

Atom   0C    basis set group =>   1
Atom   1C    basis set group =>   1
Atom   2C    basis set group =>   1
Atom   3C    basis set group =>   1
Atom   4H    basis set group =>   2
Atom   5C    basis set group =>   1
Atom   6C    basis set group =>   1
Atom   7C    basis set group =>   1
Atom   8C    basis set group =>   1
Atom   9C    basis set group =>   1
Atom  10C    basis set group =>   1
Atom  11O    basis set group =>   3
Atom  12H    basis set group =>   2
Atom  13H    basis set group =>   2
Atom  14H    basis set group =>   2
Atom  15H    basis set group =>   2
Atom  16H    basis set group =>   2
Atom  17H    basis set group =>   2
Atom  18H    basis set group =>   2
Atom  19H    basis set group =>   2
Atom  20H    basis set group =>   2
Atom  21H    basis set group =>   2
Atom  22H    basis set group =>   2
Atom  23H    basis set group =>   2
Atom  24H    basis set group =>   2
---------------------------------
AUXILIARY/J BASIS SET INFORMATION
---------------------------------
There are 3 groups of distinct atoms

 Group   1 Type C   : 12s5p4d2f1g contracted to 6s4p3d1f1g pattern {711111/2111/211/2/1}
 Group   2 Type H   : 5s2p1d contracted to 3s1p1d pattern {311/2/1}
 Group   3 Type O   : 12s5p4d2f1g contracted to 6s4p3d1f1g pattern {711111/2111/211/2/1}

Atom   0C    basis set group =>   1
Atom   1C    basis set group =>   1
Atom   2C    basis set group =>   1
Atom   3C    basis set group =>   1
Atom   4H    basis set group =>   2
Atom   5C    basis set group =>   1
Atom   6C    basis set group =>   1
Atom   7C    basis set group =>   1
Atom   8C    basis set group =>   1
Atom   9C    basis set group =>   1
Atom  10C    basis set group =>   1
Atom  11O    basis set group =>   3
Atom  12H    basis set group =>   2
Atom  13H    basis set group =>   2
Atom  14H    basis set group =>   2
Atom  15H    basis set group =>   2
Atom  16H    basis set group =>   2
Atom  17H    basis set group =>   2
Atom  18H    basis set group =>   2
Atom  19H    basis set group =>   2
Atom  20H    basis set group =>   2
Atom  21H    basis set group =>   2
Atom  22H    basis set group =>   2
Atom  23H    basis set group =>   2
Atom  24H    basis set group =>   2
------------------------------------------------------------------------------
                             ORCA STARTUP CALCULATIONS
                           -- RI-GTO INTEGRALS CHOSEN --
------------------------------------------------------------------------------
------------------------------------------------------------------------------
                   ___                                                        
                  /   \      - P O W E R E D   B Y -                         
                 /     \                                                     
                 |  |  |   _    _      __       _____    __    __             
                 |  |  |  | |  | |    /  \     |  _  \  |  |  /  |          
                  \  \/   | |  | |   /    \    | | | |  |  | /  /          
                 / \  \   | |__| |  /  /\  \   | |_| |  |  |/  /          
                |  |  |   |  __  | /  /__\  \  |    /   |      \           
                |  |  |   | |  | | |   __   |  |    \   |  |\   \          
                \     /   | |  | | |  |  |  |  | |\  \  |  | \   \       
                 \___/    |_|  |_| |__|  |__|  |_| \__\ |__|  \__/        
                                                                              
                      - O R C A' S   B I G   F R I E N D -                    
                                      &                                       
                       - I N T E G R A L  F E E D E R -                       
                                                                              
 v1 FN, 2020, v2 2021, v3 2022-2024                                           
------------------------------------------------------------------------------


----------------------
SHARK INTEGRAL PACKAGE
----------------------

Number of atoms                             ...     25
Number of basis functions                   ...    182
Number of shells                            ...     94
Maximum angular momentum                    ...      2
Integral batch strategy                     ... SHARK/LIBINT Hybrid
RI-J (if used) integral strategy            ... SPLIT-RIJ (Revised 2003 algorithm where possible)
Printlevel                                  ...      1
Contraction scheme used                     ... SEGMENTED contraction
Prescreening option                         ... SCHWARTZ
   Thresh                                   ... 1.000e-09
   Tcut                                     ... 1.000e-10
   Tpresel                                  ... 1.000e-10 
Coulomb Range Separation                    ... NOT USED
Exchange Range Separation                   ... NOT USED
Multipole approximations                    ... NOT USED
Finite Nucleus Model                        ... NOT USED
CABS basis                                  ... NOT available
Auxiliary Coulomb fitting basis             ... AVAILABLE
   # of basis functions in Aux-J            ...    693
   # of shells in Aux-J                     ...    235
   Maximum angular momentum in Aux-J        ...      4
Auxiliary J/K fitting basis                 ... NOT available
Auxiliary Correlation fitting basis         ... NOT available
Auxiliary 'external' fitting basis          ... NOT available

Checking pre-screening integrals            ... done (  0.0 sec) Dimension = 94
Check shell pair data                       ... done (  0.0 sec)
Shell pair information
Shell pair cut-off parameter TPreSel        ...   1.0e-10
Total number of shell pairs                 ...      4465
Shell pairs after pre-screening             ...      4076
Total number of primitive shell pairs       ...     17951
Primitive shell pairs kept                  ...     11166
          la=0 lb=0:   1711 shell pairs
          la=1 lb=0:   1259 shell pairs
          la=1 lb=1:    245 shell pairs
          la=2 lb=0:    583 shell pairs
          la=2 lb=1:    224 shell pairs
          la=2 lb=2:     54 shell pairs

Calculating one electron integrals          ... done (  0.0 sec)
Calculating RI/J V-Matrix + Cholesky decomp.... done (  0.1 sec)
Calculating Nuclear repulsion               ... done (  0.0 sec) ENN=    607.109648730184 Eh

Diagonalization of the overlap matrix:
Smallest eigenvalue                        ... 6.986e-04
Time for diagonalization                   ...    0.006 sec
Threshold for overlap eigenvalues          ... 1.000e-07
Number of eigenvalues below threshold      ... 0
Time for construction of square roots      ...    0.014 sec
Total time needed                          ...    0.032 sec

-------------------
DFT GRID GENERATION
-------------------

General Integration Accuracy     IntAcc      ... 4.159
Radial Grid Type                 RadialGrid  ... OptM3 with GC (2021)
Angular Grid (max. ang.)         AngularGrid ... 3 (Lebedev-194)
Angular grid pruning method      GridPruning ... 4 (adaptive)
Weight generation scheme         WeightScheme... mBecke (2022)
Basis function cutoff            BFCut       ... 1.0000e-10
Integration weight cutoff        WCut        ... 1.0000e-14
Partially contracted basis set               ... off
Rotationally invariant grid construction     ... off
Angular grids for H and He will be reduced by one unit

Total number of grid points                  ...    55021
Total number of batches                      ...      871
Average number of points per batch           ...       63
Average number of grid points per atom       ...     2201
Initializing property integral containers    ... done (  0.0 sec)

SHARK setup successfully completed in   1.1 seconds

Maximum memory used throughout the entire STARTUP-calculation: 28.0 MB
-------------------------------------------------------------------------------
                                 ORCA GUESS
                   Start orbitals & Density for SCF / CASSCF
-------------------------------------------------------------------------------

------------
SCF SETTINGS
------------
Hamiltonian:
 Density Functional     Method          .... DFT(GTOs)
 Exchange Functional    Exchange        .... PBE
   PBE kappa parameter   XKappa         ....  0.804000
   PBE mue parameter    XMuePBE         ....  0.219520
 Correlation Functional Correlation     .... PBE
   PBE beta parameter  CBetaPBE         ....  0.066725
 LDA part of GGA corr.  LDAOpt          .... PW91-LDA
 Gradients option       PostSCFGGA      .... off
   NL short-range parameter             ....  6.400000
 RI-approximation to the Coulomb term is turned on
   Number of AuxJ basis functions       .... 693


General Settings:
 Integral files         IntName         .... sp
 Hartree-Fock type      HFTyp           .... RHF
 Total Charge           Charge          ....    0
 Multiplicity           Mult            ....    1
 Number of Electrons    NEL             ....   82
 Basis Dimension        Dim             ....  182
 Nuclear Repulsion      ENuc            ....    607.1096487302 Eh

Convergence Acceleration:
 AO-DIIS                CNVDIIS         .... on
   Start iteration      DIISMaxIt       ....    12
   Startup error        DIISStart       ....  0.200000
   # of expansion vecs  DIISMaxEq       ....     5
   Bias factor          DIISBfac        ....   1.050
   Max. coefficient     DIISMaxC        ....  10.000
 MO-DIIS                CNVKDIIS        .... off
 Trust-Rad. Augm. Hess. CNVTRAH         .... auto
   Auto Start mean grad. ratio tolernc. ....  1.125000
   Auto Start start iteration           ....    50
   Auto Start num. interpolation iter.  ....    10
   Max. Number of Micro iterations      ....    24
   Max. Number of Macro iterations      .... Maxiter - #DIIS iter
   Number of Davidson start vectors     ....     2
   Converg. threshold    (grad. norm)   ....   1.000e-04
   Grad. Scal. Fac. for Micro threshold ....   0.100
   Minimum threshold for Micro iter.    ....   1.000e-02
   NR start threshold (gradient norm)   ....   1.000e-04
   Initial trust radius                 ....   0.400
   Minimum AH scaling param. (alpha)    ....   1.000
   Maximum AH scaling param. (alpha)    .... 1000.000
   Quad. conv. algorithm                .... NR
   White noise on init. David. guess    .... on
   Maximum white noise                  ....   0.010
   Pseudo random numbers                .... off
   Inactive MOs                         .... canonical
   Orbital update algorithm             .... Taylor
   Preconditioner                       .... Diag
   Full preconditioner red. dimension   ....   250
 SOSCF                  CNVSOSCF        .... on
   Start iteration      SOSCFMaxIt      ....   150
   Startup grad/error   SOSCFStart      ....  0.003300
   Hessian update       SOSCFHessUp     .... L-BFGS
 Level Shifting         CNVShift        .... on
   Level shift para.    LevelShift      ....    0.2500
   Turn off err/grad.   ShiftErr        ....    0.0010
 Zerner damping         CNVZerner       .... off
 Static damping         CNVDamp         .... on
   Fraction old density DampFac         ....    0.7000
   Max. Damping (<1)    DampMax         ....    0.9800
   Min. Damping (>=0)   DampMin         ....    0.0000
   Turn off err/grad.   DampErr         ....    0.1000

SCF Procedure:
 Maximum # iterations   MaxIter         ....   125
 SCF integral mode      SCFMode         .... Direct
   Integral package                     .... SHARK and LIBINT hybrid scheme
 Reset frequency        DirectResetFreq ....    20
 Integral Threshold     Thresh          ....  1.000e-09 Eh
 Primitive CutOff       TCut            ....  1.000e-10 Eh

Convergence Tolerance:
 Convergence Check Mode ConvCheckMode   .... Total+1el-Energy
 Convergence forced     ConvForced      .... 0
 Energy Change          TolE            ....  1.000e-05 Eh
 1-El. energy change                    ....  1.000e-02 Eh
 Orbital Gradient       TolG            ....  1.000e-04
 Orbital Rotation angle TolX            ....  1.000e-04
 DIIS Error             TolErr          ....  5.000e-04

------------------------------
INITIAL GUESS: MODEL POTENTIAL
------------------------------
Loading Hartree-Fock densities                     ... done
Calculating cut-offs                               ... done
Initializing the effective Hamiltonian             ... done
Setting up the integral package (SHARK)            ... done
Starting the Coulomb interaction                   ... done (   0.3 sec)
Making the grid                                    ... done (   0.4 sec)
Mapping shells                                     ... done
Starting the XC term evaluation                    ... done (   0.3 sec)
  promolecular density results
     # of electrons  =     81.993274455
     EX              =    -63.433174041
     EC              =     -2.713208245
     EX+EC           =    -66.146382286
Transforming the Hamiltonian                       ... done (   0.0 sec)
Diagonalizing the Hamiltonian                      ... done (   0.0 sec)
Back transforming the eigenvectors                 ... done (   0.0 sec)
Now organizing SCF variables                       ... done
                      ------------------
                      INITIAL GUESS DONE (   1.0 sec)
                      ------------------
             **** ENERGY FILE WAS UPDATED (sp.en.tmp) ****
Finished Guess after   1.3 sec
Maximum memory used throughout the entire GUESS-calculation: 21.6 MB

-------------------------------------------------------------------------------------------
                                      ORCA LEAN-SCF
                              memory conserving SCF solver
-------------------------------------------------------------------------------------------

----------------------------------------D-I-I-S--------------------------------------------
Iteration    Energy (Eh)           Delta-E    RMSDP     MaxDP     DIISErr   Damp  Time(sec)
-------------------------------------------------------------------------------------------
               ***  Starting incremental Fock matrix formation  ***
    1    -463.4234132415874683     0.00e+00  4.83e-03  1.86e-01  2.22e-01  0.700   1.6
Warning: op=0 Small HOMO/LUMO gap (   0.090) - skipping pre-diagonalization
         Will do a full diagonalization
    2    -463.5567457703509717    -1.33e-01  3.04e-03  8.31e-02  7.63e-02  0.700   1.5
                               ***Turning on AO-DIIS***
    3    -463.6018544924775142    -4.51e-02  1.15e-03  1.50e-02  2.36e-02  0.700   1.9
    4    -463.6288418973913394    -2.70e-02  1.68e-03  2.58e-02  9.50e-03  0.000   1.5
    5    -463.6904180157391693    -6.16e-02  5.41e-04  1.15e-02  6.30e-03  0.000   1.5
                              *** Initializing SOSCF ***
---------------------------------------S-O-S-C-F--------------------------------------
Iteration    Energy (Eh)           Delta-E    RMSDP     MaxDP     MaxGrad    Time(sec)
--------------------------------------------------------------------------------------
    6    -463.6910765020902545    -6.58e-04  2.20e-04  5.26e-03  2.16e-03     1.5
               *** Restarting incremental Fock matrix formation ***
    7    -463.6911360164235703    -5.95e-05  1.34e-04  2.64e-03  3.01e-04     1.5
    8    -463.6911266917891226     9.32e-06  9.99e-05  5.15e-03  8.43e-04     1.3
                 **** Energy Check signals convergence ****

               *****************************************************
               *                     SUCCESS                       *
               *           SCF CONVERGED AFTER   8 CYCLES          *
               *****************************************************

             **** ENERGY FILE WAS UPDATED (sp.en.tmp) ****

----------------
TOTAL SCF ENERGY
----------------

Total Energy       :       -463.69112669178912 Eh          -12617.67703 eV

Components:
Nuclear Repulsion  :        607.10964873018406 Eh           16520.29342 eV
Electronic Energy  :      -1070.80077542197341 Eh          -29137.97045 eV
One Electron Energy:      -1830.92427427450934 Eh          -49821.98240 eV
Two Electron Energy:        760.12349885253604 Eh           20684.01196 eV

Virial components:
Potential Energy   :       -923.38319544479418 Eh          -25126.53416 eV
Kinetic Energy     :        459.69206875300512 Eh           12508.85713 eV
Virial Ratio       :          2.00869942774874

DFT components:
N(Alpha)           :       41.000140504721 electrons
N(Beta)            :       41.000140504721 electrons
N(Total)           :       82.000281009443 electrons
E(X)               :      -64.730362769364 Eh       
E(C)               :       -2.724359565115 Eh       
E(XC)              :      -67.454722334479 Eh       

---------------
SCF CONVERGENCE
---------------

  Last Energy change         ...   -9.3246e-06  Tolerance :   1.0000e-05
  Last MAX-Density change    ...    5.1539e-03  Tolerance :   1.0000e-03
  Last RMS-Density change    ...    9.9861e-05  Tolerance :   1.0000e-04
  Last DIIS Error            ...    2.1584e-03  Tolerance :   5.0000e-04
  Last Orbital Gradient      ...    8.4266e-04  Tolerance :   1.0000e-04
  Last Orbital Rotation      ...    9.4161e-04  Tolerance :   1.0000e-04


----------------
ORBITAL ENERGIES
----------------

  NO   OCC          E(Eh)            E(eV) 
   0   2.0000     -18.733124      -509.7542 
   1   2.0000      -9.960105      -271.0282 
   2   2.0000      -9.912055      -269.7207 
   3   2.0000      -9.909411      -269.6488 
   4   2.0000      -9.904041      -269.5027 
   5   2.0000      -9.903320      -269.4830 
   6   2.0000      -9.902459      -269.4596 
   7   2.0000      -9.900807      -269.4147 
   8   2.0000      -9.899426      -269.3771 
   9   2.0000      -9.886830      -269.0343 
  10   2.0000      -9.872836      -268.6535 
  11   2.0000      -0.925434       -25.1823 
  12   2.0000      -0.785519       -21.3751 
  13   2.0000      -0.732739       -19.9388 
  14   2.0000      -0.683656       -18.6032 
  15   2.0000      -0.674214       -18.3463 
  16   2.0000      -0.617924       -16.8146 
  17   2.0000      -0.589183       -16.0325 
  18   2.0000      -0.570564       -15.5258 
  19   2.0000      -0.523102       -14.2343 
  20   2.0000      -0.481104       -13.0915 
  21   2.0000      -0.461541       -12.5592 
  22   2.0000      -0.443699       -12.0737 
  23   2.0000      -0.439826       -11.9683 
  24   2.0000      -0.405622       -11.0375 
  25   2.0000      -0.397155       -10.8071 
  26   2.0000      -0.388300       -10.5662 
  27   2.0000      -0.372787       -10.1441 
  28   2.0000      -0.367110        -9.9896 
  29   2.0000      -0.362437        -9.8624 
  30   2.0000      -0.354322        -9.6416 
  31   2.0000      -0.352793        -9.6000 
  32   2.0000      -0.340720        -9.2715 
  33   2.0000      -0.334209        -9.0943 
  34   2.0000      -0.324536        -8.8311 
  35   2.0000      -0.300108        -8.1663 
  36   2.0000      -0.288156        -7.8411 
  37   2.0000      -0.281339        -7.6556 
  38   2.0000      -0.232397        -6.3238 
  39   2.0000      -0.216863        -5.9011 
  40   2.0000      -0.196252        -5.3403 
  41   0.0000      -0.093244        -2.5373 
  42   0.0000      -0.018354        -0.4994 
  43   0.0000       0.022132         0.6022 
  44   0.0000       0.030999         0.8435 
  45   0.0000       0.049954         1.3593 
  46   0.0000       0.057776         1.5722 
  47   0.0000       0.066136         1.7996 
  48   0.0000       0.079718         2.1692 
  49   0.0000       0.084333         2.2948 
  50   0.0000       0.094814         2.5800 
  51   0.0000       0.099397         2.7047 
*Only the first 10 virtual orbitals were printed.

                    ********************************
                    * MULLIKEN POPULATION ANALYSIS *
                    ********************************

-----------------------
MULLIKEN ATOMIC CHARGES
-----------------------
   0 C :   -0.208029
   1 C :   -0.078498
   2 C :   -0.236562
   3 C :   -0.143025
   4 H :    0.056221
   5 C :   -0.103425
   6 C :   -0.067052
   7 C :   -0.061344
   8 C :   -0.172750
   9 C :   -0.026783
  10 C :    0.036233
  11 O :   -0.173293
  12 H :    0.107939
  13 H :    0.110966
  14 H :    0.100281
  15 H :    0.105562
  16 H :    0.084592
  17 H :    0.085296
  18 H :    0.096679
  19 H :    0.090367
  20 H :    0.083903
  21 H :    0.079051
  22 H :    0.102021
  23 H :    0.103086
  24 H :    0.028567
Sum of atomic charges:   -0.0000000

--------------------------------
MULLIKEN REDUCED ORBITAL CHARGES
--------------------------------
  0 C s       :     3.015374  s :     3.015374
      pz      :     1.065462  p :     3.163443
      px      :     1.037770
      py      :     1.060211
      dz2     :     0.004495  d :     0.029212
      dxz     :     0.005652
      dyz     :     0.007145
      dx2y2   :     0.004754
      dxy     :     0.007165

  1 C s       :     3.079267  s :     3.079267
      pz      :     0.985576  p :     2.956790
      px      :     1.004309
      py      :     0.966906
      dz2     :     0.010177  d :     0.042440
      dxz     :     0.012068
      dyz     :     0.008243
      dx2y2   :     0.005605
      dxy     :     0.006347

  2 C s       :     3.186906  s :     3.186906
      pz      :     1.037707  p :     3.023079
      px      :     0.945249
      py      :     1.040124
      dz2     :     0.006600  d :     0.026577
      dxz     :     0.008212
      dyz     :     0.005190
      dx2y2   :     0.004281
      dxy     :     0.002294

  3 C s       :     3.078018  s :     3.078018
      pz      :     1.013830  p :     3.024096
      px      :     1.015839
      py      :     0.994428
      dz2     :     0.005574  d :     0.040910
      dxz     :     0.010309
      dyz     :     0.009438
      dx2y2   :     0.006200
      dxy     :     0.009389

  4 H s       :     0.943779  s :     0.943779

  5 C s       :     3.011972  s :     3.011972
      pz      :     1.008182  p :     3.055710
      px      :     0.978756
      py      :     1.068772
      dz2     :     0.004621  d :     0.035743
      dxz     :     0.008300
      dyz     :     0.008775
      dx2y2   :     0.007703
      dxy     :     0.006345

  6 C s       :     2.946392  s :     2.946392
      pz      :     1.066488  p :     3.084304
      px      :     1.006993
      py      :     1.010824
      dz2     :     0.005285  d :     0.036357
      dxz     :     0.007453
      dyz     :     0.010445
      dx2y2   :     0.006344
      dxy     :     0.006830

  7 C s       :     3.075055  s :     3.075055
      pz      :     0.996598  p :     2.948422
      px      :     0.948127
      py      :     1.003697
      dz2     :     0.009238  d :     0.037866
      dxz     :     0.008210
      dyz     :     0.007277
      dx2y2   :     0.006201
      dxy     :     0.006940

  8 C s       :     3.300693  s :     3.300693
      pz      :     0.925425  p :     2.837170
      px      :     0.965333
      py      :     0.946412
      dz2     :     0.007407  d :     0.034887
      dxz     :     0.008797
      dyz     :     0.005483
      dx2y2   :     0.006736
      dxy     :     0.006463

  9 C s       :     2.922870  s :     2.922870
      pz      :     1.016364  p :     3.067842
      px      :     0.986845
      py      :     1.064634
      dz2     :     0.003834  d :     0.036071
      dxz     :     0.007743
      dyz     :     0.009874
      dx2y2   :     0.006910
      dxy     :     0.007709

 10 C s       :     3.201339  s :     3.201339
      pz      :     0.875218  p :     2.677820
      px      :     0.925732
      py      :     0.876870
      dz2     :     0.018128  d :     0.084609
      dxz     :     0.022160
      dyz     :     0.020728
      dx2y2   :     0.013998
      dxy     :     0.009595

 11 O s       :     3.756830  s :     3.756830
      pz      :     1.345439  p :     4.399266
      px      :     1.568659
      py      :     1.485169
      dz2     :     0.005381  d :     0.017196
      dxz     :     0.005074
      dyz     :     0.003561
      dx2y2   :     0.001412
      dxy     :     0.001769

 12 H s       :     0.892061  s :     0.892061

 13 H s       :     0.889034  s :     0.889034

 14 H s       :     0.899719  s :     0.899719

 15 H s       :     0.894438  s :     0.894438

 16 H s       :     0.915408  s :     0.915408

 17 H s       :     0.914704  s :     0.914704

 18 H s       :     0.903321  s :     0.903321

 19 H s       :     0.909633  s :     0.909633

 20 H s       :     0.916097  s :     0.916097

 21 H s       :     0.920949  s :     0.920949

 22 H s       :     0.897979  s :     0.897979

 23 H s       :     0.896914  s :     0.896914

 24 H s       :     0.971433  s :     0.971433


------------------------
MULLIKEN OVERLAP CHARGES
------------------------
B(  0-C ,  1-C ) :   0.8972 B(  0-C ,  2-C ) :  -0.1569 B(  0-C ,  3-C ) :  -0.2173 
B(  0-C , 12-H ) :   0.7050 B(  0-C , 13-H ) :   0.6998 B(  0-C , 14-H ) :   0.7128 
B(  0-C , 16-H ) :  -0.0619 B(  1-C ,  2-C ) :   1.4576 B(  1-C ,  3-C ) :   0.6640 
B(  1-C ,  4-H ) :  -0.0684 B(  1-C ,  5-C ) :  -0.1006 B(  1-C ,  9-C ) :  -0.0825 
B(  2-C ,  3-C ) :  -0.1820 B(  2-C , 15-H ) :   0.6947 B(  2-C , 16-H ) :   0.6728 
B(  3-C ,  4-H ) :   0.5838 B(  3-C ,  5-C ) :   0.6900 B(  3-C ,  7-C ) :  -0.1135 
B(  3-C ,  9-C ) :   0.7195 B(  3-C , 15-H ) :  -0.0748 B(  3-C , 18-H ) :  -0.0526 
B(  3-C , 23-H ) :  -0.0530 B(  5-C ,  6-C ) :   0.8025 B(  5-C ,  8-C ) :  -0.1275 
B(  5-C ,  9-C ) :  -0.0508 B(  5-C , 17-H ) :   0.6115 B(  5-C , 18-H ) :   0.7112 
B(  6-C ,  7-C ) :   0.6334 B(  6-C ,  8-C ) :  -0.1632 B(  6-C ,  9-C ) :  -0.1104 
B(  6-C , 10-C ) :  -0.1070 B(  6-C , 18-H ) :  -0.0539 B(  6-C , 19-H ) :   0.5940 
B(  6-C , 20-H ) :   0.6446 B(  7-C ,  8-C ) :   0.6429 B(  7-C , 10-C ) :   0.1832 
B(  7-C , 11-O ) :  -0.2885 B(  7-C , 20-H ) :  -0.0518 B(  7-C , 21-H ) :  -0.1657 
B(  7-C , 22-H ) :  -0.0697 B(  7-C , 24-H ) :  -0.3642 B(  8-C ,  9-C ) :   0.5757 
B(  8-C , 10-C ) :  -0.0624 B(  8-C , 19-H ) :  -0.0635 B(  8-C , 21-H ) :   0.8137 
B(  9-C , 21-H ) :  -0.1250 B(  9-C , 22-H ) :   0.5707 B(  9-C , 23-H ) :   0.7177 
B( 10-C , 11-O ) :   1.4071 B( 10-C , 24-H ) :   0.8024 B( 11-O , 24-H ) :  -0.0980 
B( 12-H , 13-H ) :  -0.0510 B( 15-H , 16-H ) :  -0.1066 B( 17-H , 18-H ) :  -0.0624 
B( 19-H , 20-H ) :  -0.0571 B( 22-H , 23-H ) :  -0.0563 


                     *******************************
                     * LOEWDIN POPULATION ANALYSIS *
                     *******************************

----------------------
LOEWDIN ATOMIC CHARGES
----------------------
   0 C :   -0.321563
   1 C :   -0.049690
   2 C :   -0.268382
   3 C :   -0.124966
   4 H :    0.119772
   5 C :   -0.204356
   6 C :   -0.210540
   7 C :   -0.118650
   8 C :   -0.069023
   9 C :   -0.210724
  10 C :   -0.005936
  11 O :   -0.138319
  12 H :    0.128221
  13 H :    0.129293
  14 H :    0.124725
  15 H :    0.123029
  16 H :    0.120217
  17 H :    0.120774
  18 H :    0.126890
  19 H :    0.127758
  20 H :    0.122687
  21 H :    0.131901
  22 H :    0.140561
  23 H :    0.130774
  24 H :    0.075546

-------------------------------
LOEWDIN REDUCED ORBITAL CHARGES
-------------------------------
  0 C s       :     2.938415  s :     2.938415
      pz      :     1.120023  p :     3.311249
      px      :     1.073583
      py      :     1.117642
      dz2     :     0.011338  d :     0.071899
      dxz     :     0.013072
      dyz     :     0.017641
      dx2y2   :     0.012852
      dxy     :     0.016996

  1 C s       :     2.869298  s :     2.869298
      pz      :     1.081045  p :     3.071339
      px      :     1.038101
      py      :     0.952192
      dz2     :     0.028267  d :     0.109053
      dxz     :     0.034106
      dyz     :     0.019315
      dx2y2   :     0.014108
      dxy     :     0.013257

  2 C s       :     2.949389  s :     2.949389
      pz      :     1.096706  p :     3.249679
      px      :     1.083874
      py      :     1.069098
      dz2     :     0.018873  d :     0.069314
      dxz     :     0.023641
      dyz     :     0.012028
      dx2y2   :     0.009740
      dxy     :     0.005033

  3 C s       :     2.878650  s :     2.878650
      pz      :     1.057781  p :     3.146713
      px      :     1.042385
      py      :     1.046547
      dz2     :     0.011046  d :     0.099603
      dxz     :     0.027106
      dyz     :     0.023027
      dx2y2   :     0.012247
      dxy     :     0.026176

  4 H s       :     0.880228  s :     0.880228

  5 C s       :     2.912584  s :     2.912584
      pz      :     1.091136  p :     3.205405
      px      :     1.037045
      py      :     1.077224
      dz2     :     0.010383  d :     0.086366
      dxz     :     0.018779
      dyz     :     0.021743
      dx2y2   :     0.019819
      dxy     :     0.015642

  6 C s       :     2.896193  s :     2.896193
      pz      :     1.070240  p :     3.225038
      px      :     1.058856
      py      :     1.095941
      dz2     :     0.013803  d :     0.089310
      dxz     :     0.018584
      dyz     :     0.025327
      dx2y2   :     0.015774
      dxy     :     0.015821

  7 C s       :     2.874643  s :     2.874643
      pz      :     1.049848  p :     3.137613
      px      :     1.048833
      py      :     1.038933
      dz2     :     0.024372  d :     0.106394
      dxz     :     0.025301
      dyz     :     0.019563
      dx2y2   :     0.016274
      dxy     :     0.020884

  8 C s       :     2.914312  s :     2.914312
      pz      :     1.056609  p :     3.065299
      px      :     1.025727
      py      :     0.982963
      dz2     :     0.018564  d :     0.089412
      dxz     :     0.022049
      dyz     :     0.014394
      dx2y2   :     0.016810
      dxy     :     0.017594

  9 C s       :     2.897528  s :     2.897528
      pz      :     1.099394  p :     3.224210
      px      :     1.059399
      py      :     1.065418
      dz2     :     0.008945  d :     0.088986
      dxz     :     0.018424
      dyz     :     0.024503
      dx2y2   :     0.015989
      dxy     :     0.021125

 10 C s       :     2.920273  s :     2.920273
      pz      :     0.970564  p :     2.884780
      px      :     0.992494
      py      :     0.921722
      dz2     :     0.042258  d :     0.200883
      dxz     :     0.055319
      dyz     :     0.046993
      dx2y2   :     0.034506
      dxy     :     0.021807

 11 O s       :     3.560175  s :     3.560175
      pz      :     1.452150  p :     4.548040
      px      :     1.595196
      py      :     1.500693
      dz2     :     0.008962  d :     0.030104
      dxz     :     0.010416
      dyz     :     0.005874
      dx2y2   :     0.002363
      dxy     :     0.002489

 12 H s       :     0.871779  s :     0.871779

 13 H s       :     0.870707  s :     0.870707

 14 H s       :     0.875275  s :     0.875275

 15 H s       :     0.876971  s :     0.876971

 16 H s       :     0.879783  s :     0.879783

 17 H s       :     0.879226  s :     0.879226

 18 H s       :     0.873110  s :     0.873110

 19 H s       :     0.872242  s :     0.872242

 20 H s       :     0.877313  s :     0.877313

 21 H s       :     0.868099  s :     0.868099

 22 H s       :     0.859439  s :     0.859439

 23 H s       :     0.869226  s :     0.869226

 24 H s       :     0.924454  s :     0.924454


---------------------------------
LOEWDIN BOND ORDERS (THRESH 0.050000)
---------------------------------
B(  0-C ,  1-C ) :   1.1067 B(  0-C ,  2-C ) :   0.0880 B(  0-C ,  3-C ) :   0.0612 
B(  0-C , 12-H ) :   0.9215 B(  0-C , 13-H ) :   0.9210 B(  0-C , 14-H ) :   0.9310 
B(  1-C ,  2-C ) :   1.9752 B(  1-C ,  3-C ) :   1.0202 B(  1-C ,  5-C ) :   0.0603 
B(  1-C ,  9-C ) :   0.0550 B(  2-C ,  3-C ) :   0.0775 B(  2-C , 15-H ) :   0.9062 
B(  2-C , 16-H ) :   0.9154 B(  3-C ,  4-H ) :   0.8688 B(  3-C ,  5-C ) :   1.0328 
B(  3-C ,  8-C ) :   0.0567 B(  3-C ,  9-C ) :   1.0197 B(  5-C ,  6-C ) :   1.0733 
B(  5-C ,  7-C ) :   0.0612 B(  5-C , 17-H ) :   0.9041 B(  5-C , 18-H ) :   0.8998 
B(  6-C ,  7-C ) :   1.0563 B(  6-C ,  8-C ) :   0.0806 B(  6-C , 10-C ) :   0.0688 
B(  6-C , 19-H ) :   0.8870 B(  6-C , 20-H ) :   0.8939 B(  7-C ,  8-C ) :   1.7478 
B(  7-C ,  9-C ) :   0.0864 B(  7-C , 10-C ) :   1.1691 B(  7-C , 11-O ) :   0.1179 
B(  8-C ,  9-C ) :   1.1249 B(  8-C , 10-C ) :   0.1183 B(  8-C , 11-O ) :   0.1124 
B(  8-C , 21-H ) :   0.8802 B(  9-C , 22-H ) :   0.8690 B(  9-C , 23-H ) :   0.8959 
B( 10-C , 11-O ) :   2.2622 B( 10-C , 24-H ) :   0.8738 B( 11-O , 24-H ) :   0.0681 


------------------------------------------
LOEWDIN REDUCED ORBITAL POPULATIONS PER MO
-------------------------------------------
THRESHOLD FOR PRINTING IS 0.1%%
                      0         1         2         3         4         5   
                 -18.73312  -9.96010  -9.91206  -9.90941  -9.90404  -9.90332
                   2.00000   2.00000   2.00000   2.00000   2.00000   2.00000
                  --------  --------  --------  --------  --------  --------
 0 C  px              0.0       0.0       0.0       0.0       0.1       0.0
 1 C  s               0.0       0.0       0.0       0.0      99.5       0.0
 2 C  pz              0.0       0.0       0.0       0.0       0.1       0.0
 3 C  s               0.0       0.0      99.6       0.0       0.0       0.0
 6 C  s               0.0       0.0       0.0       0.0       0.0       0.1
 8 C  s               0.0       0.0       0.0      99.5       0.0       0.0
 9 C  s               0.0       0.0       0.0       0.0       0.0      99.5
10 C  s               0.0      99.5       0.0       0.0       0.0       0.0
11 O  s              99.9       0.0       0.0       0.0       0.0       0.0
11 O  pz              0.0       0.2       0.0       0.0       0.0       0.0

                      6         7         8         9        10        11   
                  -9.90246  -9.90081  -9.89943  -9.88683  -9.87284  -0.92543
                   2.00000   2.00000   2.00000   2.00000   2.00000   2.00000
                  --------  --------  --------  --------  --------  --------
 0 C  s               0.0       0.0       0.0      99.7       0.0       0.0
 1 C  pz              0.0       0.0       0.0       0.0       0.1       0.0
 1 C  px              0.0       0.0       0.0       0.1       0.0       0.0
 2 C  s               0.0       0.0       0.0       0.0      99.6       0.0
 5 C  s               0.0       0.0      99.6       0.0       0.0       0.0
 6 C  s              99.5       0.0       0.0       0.0       0.0       0.1
 7 C  s               0.0      99.4       0.0       0.0       0.0       1.5
 7 C  pz              0.1       0.0       0.0       0.0       0.0       0.4
 7 C  px              0.0       0.0       0.0       0.0       0.0       1.5
 7 C  py              0.0       0.0       0.0       0.0       0.0       0.1
 8 C  s               0.0       0.1       0.0       0.0       0.0       0.2
 8 C  px              0.0       0.0       0.0       0.0       0.0       0.2
 8 C  py              0.0       0.1       0.0       0.0       0.0       0.1
 9 C  s               0.1       0.0       0.0       0.0       0.0       0.0
10 C  s               0.0       0.0       0.0       0.0       0.0      19.6
10 C  pz              0.0       0.0       0.0       0.0       0.0       9.3
10 C  px              0.0       0.1       0.0       0.0       0.0       3.0
10 C  py              0.0       0.0       0.0       0.0       0.0       0.9
10 C  dz2             0.0       0.0       0.0       0.0       0.0       0.5
10 C  dxz             0.0       0.0       0.0       0.0       0.0       1.0
10 C  dyz             0.0       0.0       0.0       0.0       0.0       0.2
11 O  s               0.0       0.0       0.0       0.0       0.0      52.2
11 O  pz              0.0       0.0       0.0       0.0       0.0       4.6
11 O  px              0.0       0.0       0.0       0.0       0.0       1.8
11 O  py              0.0       0.0       0.0       0.0       0.0       0.3
11 O  dxz             0.0       0.0       0.0       0.0       0.0       0.1
21 H  s               0.0       0.0       0.0       0.0       0.0       0.1
24 H  s               0.0       0.0       0.0       0.0       0.0       1.7

                     12        13        14        15        16        17   
                  -0.78552  -0.73274  -0.68366  -0.67421  -0.61792  -0.58918
                   2.00000   2.00000   2.00000   2.00000   2.00000   2.00000
                  --------  --------  --------  --------  --------  --------
 0 C  s               1.1       9.4       0.4       9.2      21.2       2.1
 0 C  pz              0.0       0.1       0.0       0.2       0.7       0.2
 0 C  px              0.5       2.0       0.0       0.2       0.8       0.4
 0 C  py              0.0       0.1       0.0       0.0       0.0       0.1
 1 C  s               5.3      19.6       0.1       4.6       1.3       0.1
 1 C  pz              0.5       0.0       0.1       2.7      10.3       4.9
 1 C  px              0.5       0.0       0.2       2.8      11.4       1.4
 1 C  py              0.1       0.0       0.2       1.0       0.1       1.1
 1 C  dz2             0.0       0.0       0.0       0.0       0.2       0.0
 1 C  dxz             0.0       0.0       0.0       0.1       0.0       0.1
 2 C  s               1.6       8.4       0.0       5.2      21.3       2.3
 2 C  pz              0.7       2.5       0.0       0.4       0.3       0.2
 2 C  px              0.0       0.5       0.1       0.5       0.2       0.1
 2 C  py              0.1       0.1       0.0       0.0       0.1       0.0
 3 C  s              12.6       6.4       0.0       7.4       0.1       8.8
 3 C  pz              0.2       1.3       1.6       1.3       0.9       0.1
 3 C  px              0.9       1.8       0.1       1.8       0.1       1.8
 3 C  py              0.0       0.4       5.2       0.1       0.2       0.2
 3 C  dxy             0.0       0.0       0.1       0.0       0.0       0.0
 4 H  s               2.1       1.4       0.0       1.7       0.4       3.4
 5 C  s               8.9       0.0      12.5       7.4       0.0       0.1
 5 C  pz              0.3       0.4       0.4       0.0       0.0       1.2
 5 C  px              0.2       2.5       1.3       0.6       0.1       5.0
 5 C  py              1.3       0.1       0.0       0.5       0.0       0.3
 5 C  dxy             0.0       0.0       0.0       0.0       0.0       0.1
 6 C  s               8.7       5.0      13.7       0.0       0.0       6.3
 6 C  pz              1.5       0.8       0.0       0.6       0.0       1.1
 6 C  px              0.3       0.4       0.8       3.8       0.0       0.8
 6 C  py              0.1       0.1       0.6       0.2       0.0       0.0
 7 C  s               9.8      10.3       0.0      10.1       0.0       3.4
 7 C  pz              0.1       0.0       5.2       0.3       0.0       1.6
 7 C  px              1.7       0.2       0.1       0.6       0.0       8.1
 7 C  py              0.2       0.0       3.4       0.0       0.1       1.1
 7 C  dxz             0.0       0.0       0.1       0.0       0.0       0.0
 8 C  s              10.1       4.7      11.5       2.0       0.1       0.9
 8 C  pz              1.5       0.7       0.0       0.1       0.0       0.0
 8 C  px              0.4       0.7       1.8       3.3       0.0       2.5
 8 C  py              0.3       0.7       0.9       1.4       0.1       1.4
 9 C  s              10.7       0.0      15.7       4.0       0.3       1.7
 9 C  pz              0.1       0.0       0.4       0.6       0.1       0.4
 9 C  px              0.1       2.5       1.0       1.3       0.1       3.0
 9 C  py              1.8       0.1       0.0       0.1       0.1       0.7
10 C  s               0.4       1.0       0.2       2.4       0.0       7.9
10 C  pz              0.5       0.9       0.2       1.6       0.0       3.8
10 C  px              1.7       2.3       0.0       3.6       0.0       4.1
10 C  py              0.1       0.1       0.1       0.1       0.0       0.0
10 C  dxy             0.0       0.0       0.0       0.1       0.0       0.1
11 O  s               0.6       0.7       0.0       1.3       0.0       3.1
11 O  pz              0.0       0.0       0.0       0.1       0.0       0.7
11 O  px              0.0       0.0       0.0       0.1       0.0       0.5
12 H  s               0.2       1.7       0.1       1.8       6.6       0.4
13 H  s               0.2       1.7       0.1       1.8       6.6       0.5
14 H  s               0.2       1.7       0.1       2.3       4.8       1.2
15 H  s               0.4       1.2       0.0       0.8       5.9       0.6
16 H  s               0.2       1.3       0.0       1.3       4.5       1.1
17 H  s               1.3       0.0       2.9       1.7       0.0       0.0
18 H  s               1.6       0.0       2.7       1.2       0.0       0.0
19 H  s               1.5       0.9       2.6       0.0       0.0       2.5
20 H  s               1.3       0.9       3.4       0.0       0.0       1.5
21 H  s               1.3       0.7       2.4       0.5       0.0       0.2
22 H  s               1.9       0.0       3.4       1.0       0.2       0.7
23 H  s               1.6       0.0       3.6       0.8       0.0       0.5
24 H  s               0.1       0.2       0.1       0.6       0.0       2.8

                     18        19        20        21        22        23   
                  -0.57056  -0.52310  -0.48110  -0.46154  -0.44370  -0.43983
                   2.00000   2.00000   2.00000   2.00000   2.00000   2.00000
                  --------  --------  --------  --------  --------  --------
 0 C  s               0.0       0.9       0.8       0.0       0.4       0.6
 0 C  pz              0.0       0.1       0.0       0.2       2.2       2.0
 0 C  px              0.0       1.3       4.2       0.1       3.0       5.7
 0 C  py              0.0       0.4       0.4       0.2       0.0       0.0
 0 C  dx2y2           0.0       0.0       0.1       0.0       0.1       0.1
 1 C  s               0.0       1.7       5.2       0.9       1.6       1.9
 1 C  pz              0.0       2.1       1.9       0.1       1.4       0.7
 1 C  px              0.0       0.3       0.1       0.3       1.7       2.8
 1 C  py              0.5       1.1       0.4       0.3       0.3       1.6
 2 C  s               0.0       1.0       4.0       1.6       0.5       0.2
 2 C  pz              0.0       1.0       7.1       4.7       2.3       1.2
 2 C  px              0.0       0.0       0.1       0.1       6.2       7.8
 2 C  py              0.1       0.2       0.9       0.2       0.0       0.3
 3 C  s               0.1       2.5       0.6       0.9       1.0       0.1
 3 C  pz              0.9       0.6       6.4       6.1       0.0       4.1
 3 C  px              0.0       2.7       3.5       4.4       0.1       0.1
 3 C  py              7.4       0.1       1.9       2.4       0.7       0.4
 3 C  dyz             0.0       0.1       0.0       0.0       0.0       0.0
 3 C  dxy             0.1       0.0       0.0       0.0       0.0       0.0
 4 H  s               0.2       1.3       1.2       7.0       0.1       0.3
 5 C  s               7.2       7.1       0.0       0.1       0.6       0.0
 5 C  pz              0.2       0.5       0.1       9.0       0.9       2.1
 5 C  px              1.8       0.4       0.3       0.9       0.0       1.4
 5 C  py              0.8       3.7       3.7       0.8       2.6       2.3
 6 C  s               5.2       2.4       1.3       0.9       0.2       0.1
 6 C  pz              0.6       0.0       2.8      11.2       0.2       1.3
 6 C  px              4.4       1.7       0.6       0.0       0.1       0.6
 6 C  py              0.1       3.2       3.1       0.0       0.3       5.1
 7 C  s               0.1       0.7       1.1       0.2       1.8       0.6
 7 C  pz              8.6       0.9       0.0       1.4       0.6       0.2
 7 C  px              2.1       6.4       0.5       3.6       1.5       0.3
 7 C  py              5.0       2.1       0.2       0.7       0.0       2.8
 7 C  dz2             0.0       0.2       0.0       0.0       0.0       0.0
 7 C  dxz             0.1       0.0       0.0       0.0       0.1       0.0
 8 C  s               8.4       0.1       2.3       1.0       2.1       0.8
 8 C  pz              0.6       1.3       7.3       6.8       2.2       1.7
 8 C  px              3.0       1.3       0.1       4.5       1.9       0.0
 8 C  py              0.9       2.2       3.1       1.1       0.2       1.3
 8 C  dxy             0.0       0.0       0.0       0.0       0.1       0.0
 9 C  s               6.2       3.3       0.0       0.2       1.4       0.1
 9 C  pz              0.4       0.6       9.2       0.0       1.9       3.8
 9 C  px              3.5       0.2       0.4       0.8       1.5       6.3
 9 C  py              1.1       2.8       0.6       1.3       8.4       0.1
 9 C  dxz             0.0       0.0       0.0       0.0       0.1       0.0
10 C  s               2.4       7.1       0.0       0.0       0.7       1.2
10 C  pz              2.5       3.7       0.1       0.2       2.2       2.0
10 C  px              0.0       0.2       0.1       1.0       7.1       5.3
10 C  py              1.0       1.4       0.2       1.6       7.4       2.7
11 O  s               0.2       2.5       0.0       0.0       0.3       0.9
11 O  pz              0.3       1.4       0.0       0.0       1.2       2.5
11 O  px              0.0       0.3       0.0       0.5       1.2       0.5
11 O  py              0.1       0.3       0.0       0.5       2.2       1.2
12 H  s               0.0       0.4       0.5       0.0       1.2       1.3
13 H  s               0.0       0.2       0.6       0.1       1.0       2.0
14 H  s               0.0       1.0       1.8       0.0       0.1       0.2
15 H  s               0.0       0.6       2.0       1.6       4.8       4.5
16 H  s               0.0       1.0       5.5       2.5       0.1       0.0
17 H  s               2.8       4.5       0.1       1.8       1.3       0.7
18 H  s               3.1       3.9       0.5       2.4       0.8       1.5
19 H  s               2.3       2.1       0.2       3.4       0.3       2.0
20 H  s               3.1       0.2       3.8       1.9       0.2       0.9
21 H  s               3.7       0.1       5.4       6.5       1.9       0.0
22 H  s               2.9       1.6       0.8       0.1       5.3       1.2
23 H  s               2.9       2.3       1.5       0.1       1.7       2.7
24 H  s               2.5       5.7       0.3       0.7       7.9       5.5

                     24        25        26        27        28        29   
                  -0.40562  -0.39716  -0.38830  -0.37279  -0.36711  -0.36244
                   2.00000   2.00000   2.00000   2.00000   2.00000   2.00000
                  --------  --------  --------  --------  --------  --------
 0 C  s               0.2       0.1       0.0       0.0       0.0       0.0
 0 C  pz              6.8       5.7       1.5       4.5       0.0       0.2
 0 C  px              4.7       0.5       0.1       4.4       4.1       1.0
 0 C  py              0.1       3.8      17.5       8.4       3.6      14.6
 0 C  dz2             0.0       0.0       0.1       0.0       0.1       0.1
 0 C  dyz             0.1       0.1       0.0       0.1       0.0       0.1
 1 C  s               0.0       0.0       0.2       0.0       0.0       0.0
 1 C  pz              6.3       0.5       0.0       1.7       2.6       0.0
 1 C  px              0.8       5.7       0.0       0.1       4.7       0.0
 1 C  py              0.3       1.1       6.3       1.7       0.1       0.1
 1 C  dxz             0.0       0.1       0.1       0.0       0.1       0.0
 1 C  dxy             0.0       0.0       0.0       0.1       0.0       0.1
 2 C  s               0.7       0.0       0.1       0.0       0.1       0.0
 2 C  pz              6.4       2.5       0.0       0.6       8.0       0.0
 2 C  px              0.8       7.0       2.7       0.0       1.7       0.2
 2 C  py              1.3       0.4       2.2       1.1       1.2       0.0
 3 C  s               0.2       0.4       1.3       0.0       0.0       0.1
 3 C  pz              0.9       0.8       1.5       0.3       0.2       0.1
 3 C  px              8.6       0.5       2.5       0.0       0.2       0.9
 3 C  py              1.5       5.8       1.6       0.6       2.5       1.6
 4 H  s               1.2       3.2       0.0       0.0       1.2       0.2
 5 C  s               0.0       0.0       0.1       0.3       0.2       0.0
 5 C  pz              0.7       0.1       5.8       0.9       0.8       8.4
 5 C  px              2.1       4.4       1.0       4.8       0.2       0.3
 5 C  py              4.7       0.2       2.5       0.1       3.1       0.0
 5 C  dxz             0.0       0.0       0.0       0.1       0.0       0.1
 5 C  dxy             0.0       0.0       0.1       0.0       0.0       0.1
 6 C  s               0.0       0.0       0.1       0.2       0.1       0.0
 6 C  pz              3.1       4.3       0.1       0.9       0.8       0.4
 6 C  px              5.4       0.1       3.5       1.1       1.8       0.4
 6 C  py              0.3      11.0       0.1       4.8       6.7       1.2
 6 C  dxz             0.0       0.0       0.0       0.2       0.0       0.1
 6 C  dyz             0.1       0.1       0.0       0.0       0.1       0.0
 7 C  s               0.6       0.0       0.1       0.7       0.0       1.1
 7 C  pz              3.7       0.5       1.6       4.6       0.8       0.0
 7 C  px              0.9       3.2       1.9       0.7       0.5       2.5
 7 C  py              0.0       2.0       2.7       0.1       1.0       0.3
 7 C  dxz             0.0       0.0       0.0       0.0       0.2       0.0
 7 C  dyz             0.0       0.1       0.0       0.0       0.1       0.0
 7 C  dx2y2           0.0       0.0       0.0       0.0       0.2       0.0
 8 C  s               0.0       0.6       0.1       0.0       0.4       0.0
 8 C  pz              1.9       1.5       5.0       0.1       0.6       0.4
 8 C  px              0.2       0.0       0.4       0.3       3.2       0.2
 8 C  py              0.9       0.6       2.7       0.9       0.5       4.4
 8 C  dxz             0.0       0.0       0.1       0.0       0.0       0.2
 8 C  dyz             0.0       0.0       0.0       0.0       0.0       0.1
 9 C  pz              0.1       0.0       0.0       3.0      10.6      11.3
 9 C  px              3.3       1.2       0.4       0.0       0.0       7.7
 9 C  py              6.5       1.0       0.4       0.0       0.1       0.0
 9 C  dyz             0.1       0.0       0.0       0.0       0.1       0.2
10 C  s               0.6       0.2       0.2       0.6       0.5       0.1
10 C  pz              0.5       0.0       0.3       5.1       1.1       0.2
10 C  px              0.4       0.3       1.9       0.5       0.9       0.4
10 C  py              0.3       3.9       0.4       0.3       1.8       1.9
11 O  s               1.7       0.2       1.9       6.1       1.4       0.3
11 O  pz              1.5       0.7       4.7       9.8       2.7       0.7
11 O  px              2.7       0.6       0.2       8.7       4.5       1.7
11 O  py              0.0       1.2       1.3       2.4       0.1       1.0
11 O  dxz             0.0       0.0       0.0       0.1       0.1       0.0
12 H  s               1.0       5.4       1.0       5.2       1.0       3.7
13 H  s               0.1       0.1       7.4       4.8       0.1       7.2
14 H  s               4.7       0.1       3.5       0.8       1.7       0.4
15 H  s               1.4       1.8       1.5       0.0       0.2       0.1
16 H  s               2.7       3.4       0.9       0.5       5.1       0.0
17 H  s               0.1       0.7       2.6       2.5       0.6       4.9
18 H  s               1.8       0.1       0.0       0.1       0.2       1.2
19 H  s               1.2       6.8       0.0       0.1       1.2       0.0
20 H  s               0.1       1.2       0.6       2.2       4.9       1.4
21 H  s               0.4       1.2       3.2       0.1       0.1       0.9
22 H  s               2.2       1.1       0.1       0.8       3.4       5.1
23 H  s               0.0       0.0       0.3       0.8       3.2       8.3
24 H  s               0.1       0.8       0.4       0.3       1.8       0.7

                     30        31        32        33        34        35   
                  -0.35432  -0.35279  -0.34072  -0.33421  -0.32454  -0.30011
                   2.00000   2.00000   2.00000   2.00000   2.00000   2.00000
                  --------  --------  --------  --------  --------  --------
 0 C  s               0.0       0.0       0.0       0.0       0.3       0.0
 0 C  pz              4.6       2.7       5.4       1.6      17.0       0.1
 0 C  px              1.0       1.8       1.9       0.0       5.7       0.5
 0 C  py              0.1       0.5       0.1       0.3       1.3       0.5
 0 C  dxz             0.0       0.0       0.0       0.0       0.1       0.0
 0 C  dx2y2           0.0       0.0       0.0       0.0       0.2       0.0
 0 C  dxy             0.0       0.0       0.0       0.0       0.2       0.0
 1 C  s               0.3       0.2       0.0       0.0       0.2       0.0
 1 C  pz              0.4       0.0       0.2       3.2       5.6       0.6
 1 C  px              0.0       0.5       0.5       0.1       4.4       0.6
 1 C  py              0.2       0.0       0.0       0.1       0.1       0.5
 1 C  dz2             0.0       0.0       0.0       0.0       0.4       0.0
 1 C  dxz             0.3       0.1       0.0       0.2       0.0       0.1
 1 C  dx2y2           0.0       0.0       0.0       0.0       0.1       0.0
 2 C  s               0.1       0.0       0.0       0.2       0.4       0.0
 2 C  pz              2.1       0.1       1.3       3.5       1.6       0.0
 2 C  px              1.2       0.0       1.4       0.1      17.2       0.0
 2 C  py              0.5       0.1       0.4       1.1       0.6       0.3
 2 C  dz2             0.0       0.0       0.0       0.0       0.2       0.0
 2 C  dxz             0.1       0.0       0.0       0.1       0.1       0.0
 2 C  dx2y2           0.0       0.0       0.0       0.0       0.2       0.0
 3 C  s               0.6       0.1       0.0       0.0       0.0       0.1
 3 C  pz              1.2       0.1       3.6       4.6       0.1       0.6
 3 C  px              0.1       0.7       3.0       0.6       0.5       0.5
 3 C  py              0.0       0.0       1.2       0.9       0.0      15.1
 3 C  dxz             0.1       0.0       0.0       0.0       0.0       0.2
 3 C  dx2y2           0.0       0.1       0.0       0.0       0.1       0.0
 4 H  s               0.0       0.1       2.3       3.5       0.1       1.6
 5 C  s               0.2       0.1       0.1       0.0       0.0       0.1
 5 C  pz              0.1       8.9       0.0       2.2       0.5       0.0
 5 C  px              5.9       0.3       3.7       0.8       2.0       0.3
 5 C  py              5.1       1.6       0.0       1.4       0.1      17.8
 5 C  dxz             0.0       0.0       0.0       0.1       0.0       0.2
 5 C  dyz             0.0       0.2       0.0       0.0       0.0       0.2
 5 C  dx2y2           0.0       0.0       0.0       0.1       0.0       0.2
 5 C  dxy             0.0       0.0       0.0       0.0       0.0       0.1
 6 C  s               0.1       0.2       0.1       0.1       0.0       0.0
 6 C  pz              4.5       0.7       1.6      10.0       0.0       0.4
 6 C  px              9.2       0.1       3.5       0.1       2.5       0.2
 6 C  py              2.1       3.2       0.3       2.5       0.2       8.3
 6 C  dyz             0.1       0.0       0.0       0.1       0.0       0.2
 6 C  dx2y2           0.1       0.0       0.0       0.1       0.0       0.0
 6 C  dxy             0.0       0.1       0.0       0.0       0.0       0.2
 7 C  s               0.0       0.0       0.2       0.1       0.0       0.1
 7 C  pz              0.2       1.1       1.1       4.5       0.1       3.6
 7 C  px              0.2       0.8       2.4       0.0       0.2       0.4
 7 C  py              2.7       4.0       2.0       0.5       0.0       0.7
 7 C  dz2             0.0       0.1       0.1       0.0       0.1       0.0
 7 C  dxz             0.1       0.0       0.1       0.1       0.0       0.1
 7 C  dxy             0.0       0.2       0.0       0.2       0.0       0.0
 8 C  s               0.3       0.0       0.0       0.0       0.0       0.0
 8 C  pz              6.0       1.1       0.0       0.2       0.1       1.8
 8 C  px              2.4      10.8       0.8       1.4       0.3       1.6
 8 C  py              0.2       0.3       0.1       2.0       0.0       1.5
 8 C  dz2             0.1       0.2       0.0       0.0       0.0       0.1
 8 C  dxz             0.0       0.1       0.0       0.0       0.0       0.1
 8 C  dyz             0.0       0.1       0.0       0.0       0.0       0.0
 8 C  dx2y2           0.1       0.1       0.1       0.0       0.0       0.0
 8 C  dxy             0.0       0.0       0.0       0.0       0.0       0.1
 9 C  s               0.2       0.4       0.1       0.1       0.0       0.0
 9 C  pz              1.4       0.0       0.9       0.8       0.4       1.7
 9 C  px              0.6       7.1       1.3       1.1       0.6       0.0
 9 C  py              6.0       7.4       3.2       0.0       0.0       9.0
 9 C  dz2             0.1       0.0       0.0       0.0       0.0       0.0
 9 C  dxz             0.0       0.1       0.0       0.1       0.0       0.3
 9 C  dx2y2           0.0       0.0       0.0       0.0       0.0       0.1
10 C  s               0.1       0.1       0.2       0.1       0.1       0.1
10 C  pz              0.6       0.8       9.8       1.2       0.8       0.1
10 C  px              1.1       8.5       2.1       2.3       0.1       0.4
10 C  py              4.2       1.0       5.3       9.5       0.8       0.0
10 C  dz2             0.0       0.0       0.2       0.0       0.0       0.1
10 C  dxz             0.0       0.0       0.0       0.1       0.0       0.0
10 C  dxy             0.0       0.0       0.0       0.2       0.0       0.0
11 O  s               0.7       1.0       1.8       0.8       0.1       0.0
11 O  pz              6.3       9.3       0.4      13.7       0.0       0.1
11 O  px              0.1       1.2      11.8       0.2       0.6       1.3
11 O  py              1.3       0.3      14.4       7.2       2.1       0.1
12 H  s               1.2       0.4       1.6       1.1       4.4       0.4
13 H  s               0.1       0.1       0.0       0.0       5.2       0.5
14 H  s               3.2       2.8       3.7       0.4       5.1       0.0
15 H  s               0.6       0.0       0.7       0.0      11.8       0.1
16 H  s               2.2       0.2       1.7       2.1       2.7       0.1
17 H  s               2.0       3.0       0.3       0.2       0.0       0.8
18 H  s               0.6       5.0       0.1       2.1       0.2       8.6
19 H  s               0.0       0.9       0.0       6.9       0.1       2.8
20 H  s               6.3       1.2       0.0       0.1       0.2       5.5
21 H  s               4.5       2.8       0.0       0.2       0.2       1.6
22 H  s               2.7       0.5       0.1       0.6       0.4       0.4
23 H  s               0.2       3.3       0.4       0.0       0.4       5.4
24 H  s               0.5       0.2       1.3       1.3       0.0       0.2

                     36        37        38        39        40        41   
                  -0.28816  -0.28134  -0.23240  -0.21686  -0.19625  -0.09324
                   2.00000   2.00000   2.00000   2.00000   2.00000   0.00000
                  --------  --------  --------  --------  --------  --------
 0 C  s               0.5       0.0       0.1       0.0       0.0       0.0
 0 C  pz              0.0       0.0       0.0       0.1       0.0       0.0
 0 C  px              8.8       0.0       0.8       0.0       0.0       0.0
 0 C  py              2.3       0.0       0.4       1.1       0.0       0.0
 0 C  dxz             0.2       0.0       0.0       0.0       0.0       0.0
 0 C  dyz             0.0       0.0       0.1       0.1       0.0       0.0
 0 C  dxy             0.1       0.0       0.1       0.3       0.0       0.0
 1 C  s               0.1       0.3       0.0       0.0       0.0       0.0
 1 C  pz              1.9       2.4       1.5       2.2       0.0       0.0
[...]
 6 C  pz              0.1       0.1       0.5       0.1       0.2       0.0
 6 C  px              0.8       0.0       0.4       0.1       0.0       0.0
 6 C  py              0.0       0.0       0.1       0.0       0.2       0.0
 6 C  dz2             0.3       0.3       1.4       0.4       2.1       0.0
 6 C  dxz             0.6       0.1       3.5       0.3       1.6       0.0
 6 C  dyz             0.0       0.2       0.4       0.2       1.6       0.0
 6 C  dx2y2           1.7       0.0       0.0       0.3       2.3       0.0
 6 C  dxy             1.8       0.0       0.6       0.2       0.3       0.0
 7 C  s               0.0       0.0       0.1       0.0       0.3       0.0
 7 C  pz              0.1       0.0       0.4       0.2       0.7       0.0
 7 C  px              0.2       0.0       0.2       0.1       0.8       0.0
 7 C  py              0.0       0.1       0.4       0.2       1.1       0.0
 7 C  dz2             0.6       0.6       7.9       0.3       3.6       0.1
 7 C  dxz             0.2       1.3       6.3       2.1      13.2       0.5
 7 C  dyz             0.4       0.0       0.7       0.2       9.9       0.0
 7 C  dx2y2           0.8       0.1       0.0       0.1       7.5       1.0
 7 C  dxy             0.7       0.8       4.7       0.7       0.1       0.1
 8 C  s               0.7       0.1       0.4       0.1       1.9       0.0
 8 C  pz              0.2       0.1       0.1       0.1       0.6       0.0
 8 C  px              0.2       0.0       1.0       0.2       0.7       0.0
 8 C  py              0.0       0.1       0.6       0.2       0.9       0.0
 8 C  dz2             0.2       0.4       5.8       0.1       4.4       0.1
 8 C  dxz             0.2       0.1       1.3       0.4       5.4       0.0
 8 C  dyz             0.0       0.3       3.5       1.0       0.3       0.0
 8 C  dx2y2           2.2       0.2       4.6       0.2       0.0       0.2
 8 C  dxy             0.0       0.1       4.4       0.0       9.8       0.0
 9 C  s               0.1       0.3       0.5       0.1       0.1       0.0
 9 C  pz              0.3       0.0       0.2       0.0       0.0       0.0
 9 C  px              0.9       0.0       1.4       0.0       0.1       0.0
 9 C  py              0.3       0.3       0.0       0.0       0.0       0.0
 9 C  dz2             0.1       0.1       0.1       0.7       0.1       0.0
 9 C  dxz             0.8       0.9       2.0       0.0       3.6       0.0
 9 C  dyz             1.6       1.1       1.2       0.5       0.0       0.0
 9 C  dx2y2           0.4       0.1       3.3       0.1       0.9       0.0
 9 C  dxy             8.5       0.1       1.4       0.0       1.9       0.0
10 C  s               0.0       0.0       0.0       0.0       0.9       0.0
10 C  pz              0.1       0.0       0.1       0.0       0.0       0.2
10 C  px              0.0       0.0       0.2       0.0       1.1       0.2
10 C  py              0.0       0.0       0.1       0.0       0.3       0.6
10 C  dz2             0.6       0.4       2.1       0.5       1.5       9.0
10 C  dxz             0.3       0.2       0.6       0.1       0.9       0.2
10 C  dyz             0.1       0.0       0.2       0.1       0.0       4.7
10 C  dx2y2           0.0       0.0       0.3       0.1       0.0       0.3
10 C  dxy             1.6       0.4       2.2       0.6       3.2       4.5
11 O  s               0.1       0.0       0.2       0.1       0.4       0.0
11 O  pz              0.1       0.1       0.3       0.1       0.2       0.3
11 O  px              0.0       0.0       0.1       0.0       0.2       0.3
11 O  py              0.0       0.0       0.2       0.0       0.0       0.7
11 O  dz2             0.0       0.3       3.2       0.3       0.4      39.0
11 O  dxz             0.1       0.0       0.7       0.0       2.0       1.6
11 O  dyz             6.7       0.9       8.5       1.4       0.1      18.6
11 O  dx2y2           0.3       0.1       2.1       0.1       1.5       0.1
11 O  dxy            14.9       0.0       0.1       0.0       1.3      17.4
14 H  s               0.0       0.2       0.0       0.1       0.0       0.0
15 H  s               0.0       0.0       0.2       0.8       0.0       0.0
16 H  s               0.0       0.1       0.1       0.8       0.0       0.0
21 H  s               0.0       0.0       0.3       0.0       0.8       0.0
23 H  s               0.1       0.0       0.1       0.1       0.2       0.0
24 H  s               0.1       0.0       0.0       0.0       0.1       0.0

                    180       181   
                   3.24172   3.51438
                   0.00000   0.00000
                  --------  --------
 6 C  s               0.2       0.1
 6 C  pz              0.2       0.0
 6 C  px              0.1       0.0
 6 C  dz2             0.2       0.0
 6 C  dxz             0.9       0.0
 6 C  dxy             0.2       0.0
 7 C  s               0.3       0.1
 7 C  pz              0.1       0.1
 7 C  px              0.5       0.1
 7 C  dz2             4.9       0.4
 7 C  dxz             1.0       0.6
 7 C  dyz             0.6       0.0
 7 C  dx2y2           0.7       0.0
 7 C  dxy             4.9       0.8
 8 C  pz              0.1       0.0
 8 C  dz2             1.4       0.2
 8 C  dyz             0.7       0.2
 8 C  dx2y2           0.3       0.1
 8 C  dxy             0.6       0.0
 9 C  dxz             0.3       0.0
 9 C  dx2y2           0.1       0.0
10 C  s               0.0       7.2
10 C  pz              0.8       4.2
10 C  px              0.2       1.7
10 C  py              0.2       0.3
10 C  dz2             2.3       1.1
10 C  dxz             7.3       5.3
10 C  dyz             6.6       0.1
10 C  dx2y2           6.7       0.8
10 C  dxy             0.4       0.2
11 O  s               0.4       6.0
11 O  pz              0.0       2.8
11 O  px              0.8       0.8
11 O  py              0.3       0.3
11 O  dz2             3.3      21.7
11 O  dxz            21.4      29.8
11 O  dyz            13.3      10.2
11 O  dx2y2          16.0       0.8
11 O  dxy             0.5       3.5
24 H  s               0.5       0.1


                      *****************************
                      * MAYER POPULATION ANALYSIS *
                      *****************************

  NA   - Mulliken gross atomic population
  ZA   - Total nuclear charge
  QA   - Mulliken gross atomic charge
  VA   - Mayer's total valence
  BVA  - Mayer's bonded valence
  FA   - Mayer's free valence

  ATOM       NA         ZA         QA         VA         BVA        FA
  0 C      6.2080     6.0000    -0.2080     3.9345     3.9345     0.0000
  1 C      6.0785     6.0000    -0.0785     4.3021     4.3021     0.0000
  2 C      6.2366     6.0000    -0.2366     3.9448     3.9448     0.0000
  3 C      6.1430     6.0000    -0.1430     4.1192     4.1192     0.0000
  4 H      0.9438     1.0000     0.0562     0.9517     0.9517    -0.0000
  5 C      6.1034     6.0000    -0.1034     4.0897     4.0897    -0.0000
  6 C      6.0671     6.0000    -0.0671     4.0531     4.0531    -0.0000
  7 C      6.0613     6.0000    -0.0613     3.9065     3.9065     0.0000
  8 C      6.1728     6.0000    -0.1728     4.0114     4.0114    -0.0000
  9 C      6.0268     6.0000    -0.0268     4.0124     4.0124    -0.0000
 10 C      5.9638     6.0000     0.0362     4.1130     4.1130     0.0000
 11 O      8.1733     8.0000    -0.1733     2.3038     2.3038    -0.0000
 12 H      0.8921     1.0000     0.1079     0.9532     0.9532    -0.0000
 13 H      0.8890     1.0000     0.1110     0.9523     0.9523    -0.0000
 14 H      0.8997     1.0000     0.1003     0.9693     0.9693     0.0000
 15 H      0.8944     1.0000     0.1056     0.9545     0.9545     0.0000
 16 H      0.9154     1.0000     0.0846     0.9507     0.9507     0.0000
 17 H      0.9147     1.0000     0.0853     0.9427     0.9427     0.0000
 18 H      0.9033     1.0000     0.0967     0.9634     0.9634    -0.0000
 19 H      0.9096     1.0000     0.0904     0.9452     0.9452    -0.0000
 20 H      0.9161     1.0000     0.0839     0.9628     0.9628    -0.0000
 21 H      0.9209     1.0000     0.0791     0.9801     0.9801    -0.0000
 22 H      0.8980     1.0000     0.1020     0.9446     0.9446     0.0000
 23 H      0.8969     1.0000     0.1031     0.9578     0.9578    -0.0000
 24 H      0.9714     1.0000     0.0286     0.9610     0.9610     0.0000

  Mayer bond orders larger than 0.100000
B(  0-C ,  1-C ) :   1.1314 B(  0-C , 12-H ) :   0.9308 B(  0-C , 13-H ) :   0.9274 
B(  0-C , 14-H ) :   0.9412 B(  1-C ,  2-C ) :   2.0482 B(  1-C ,  3-C ) :   0.9991 
B(  2-C , 15-H ) :   0.8939 B(  2-C , 16-H ) :   0.9033 B(  3-C ,  4-H ) :   0.8777 
B(  3-C ,  5-C ) :   1.0794 B(  3-C ,  9-C ) :   1.0917 B(  5-C ,  6-C ) :   1.1503 
B(  5-C , 17-H ) :   0.9086 B(  5-C , 18-H ) :   0.9125 B(  6-C ,  7-C ) :   1.0944 
B(  6-C , 19-H ) :   0.8749 B(  6-C , 20-H ) :   0.8976 B(  7-C ,  8-C ) :   1.7387 
B(  7-C , 10-C ) :   1.0381 B(  8-C ,  9-C ) :   1.0977 B(  8-C , 11-O ) :   0.1152 
B(  8-C , 21-H ) :   0.9384 B(  9-C , 22-H ) :   0.8589 B(  9-C , 23-H ) :   0.9133 
B( 10-C , 11-O ) :   2.1328 B( 10-C , 24-H ) :   0.9123 

-------
TIMINGS
-------

Total SCF time: 0 days 0 hours 0 min 12 sec 

Total time                  ....      12.775 sec
Sum of individual times     ....      12.007 sec  ( 94.0%)

SCF preparation             ....       0.204 sec  (  1.6%)
Fock matrix formation       ....      10.539 sec  ( 82.5%)
  Startup                   ....       0.071 sec  (  0.7% of F)
  Split-RI-J                ....       4.398 sec  ( 41.7% of F)
  XC integration            ....       5.539 sec  ( 52.6% of F)
    XC Preparation          ....       0.000 sec  (  0.0% of XC)
    Basis function eval.    ....       1.851 sec  ( 33.4% of XC)
    Density eval.           ....       0.822 sec  ( 14.8% of XC)
    XC-Functional eval.     ....       0.384 sec  (  6.9% of XC)
    XC-Potential eval.      ....       1.298 sec  ( 23.4% of XC)
Diagonalization             ....       0.000 sec  (  0.0%)
Density matrix formation    ....       0.200 sec  (  1.6%)
Total Energy calculation    ....       0.034 sec  (  0.3%)
Population analysis         ....       0.123 sec  (  1.0%)
Orbital Transformation      ....       0.075 sec  (  0.6%)
Orbital Orthonormalization  ....       0.000 sec  (  0.0%)
DIIS solution               ....       0.732 sec  (  5.7%)
  MO trafo                  ....       0.000 sec  (  0.0 % of DIIS)
  Orb grad                  ....       0.000 sec  (  0.0 % of DIIS)
  Energy W gradient         ....       0.000 sec  (  0.0 % of DIIS)
  DIIS error                ....       0.011 sec  (  1.4 % of DIIS)
  DIIS work                 ....       0.671 sec  ( 91.6 % of DIIS)
  Form Q                    ....       0.000 sec  (  0.0 % of DIIS)
  Form QpQm                 ....       0.000 sec  (  0.0 % of DIIS)
  Exp/Cayley                ....       0.000 sec  (  0.0 % of DIIS)
  Orb update                ....       0.000 sec  (  0.0 % of DIIS)
  Wake-sleep                ....       0.018 sec  (  2.4 % of DIIS)
SOSCF solution              ....       0.101 sec  (  0.8%)
  MO trafo                  ....       0.058 sec  ( 57.4 % of SOSCF)
  Orb grad                  ....       0.002 sec  (  1.5 % of SOSCF)
  Rot update                ....       0.016 sec  ( 15.6 % of SOSCF)
  Step                      ....       0.026 sec  ( 25.3 % of SOSCF)
Finished LeanSCF after  12.9 sec

Maximum memory used throughout the entire LEANSCF-calculation: 17.6 MB


-------------------------------------------------------------------------------
                          DFT DISPERSION CORRECTION                            
                                                                               
                                DFTD4 V3.4.0                                   
-------------------------------------------------------------------------------
The PBE functional is recognized
Active option DFTDOPT                   ...         5   

-------------------------   ----------------
Dispersion correction           -0.027181493
-------------------------   ----------------

------------------   -----------------
gCP correction             0.102341217
------------------   -----------------

-------------------------   --------------------
FINAL SINGLE POINT ENERGY      -463.615966967618
-------------------------   --------------------


------------------------------------------------------------------------------
                              ORCA PROPERTY CALCULATIONS
------------------------------------------------------------------------------

GBWName                                 ... sp.gbw
Number of atoms                         ...     25
Number of basis functions               ...    182
Max core memory                         ...   1024 MB

Electric properties:
Dipole moment                           ... YES
Quadrupole moment                       ...  NO
Static polarizability (Dipole/Dipole)   ...  NO
Static polarizability (Dipole/Quad.)    ...  NO
Static polarizability (Quad./Quad.)     ...  NO
Static polarizability (Velocity)        ...  NO

Atomic electric properties:
Dipole moment                           ...  NO
Quadrupole moment                       ...  NO
Static polarizability                   ...  NO

Choice of electric origin               ... Center of mass
Position of electric origin             ...     0.000033    -0.000000    -0.000009

General magnetic properties:
Magnetizability                         ...  NO

EPR properties:
g-Tensor (aka g-matrix)                 ...  NO
Zero-Field splitting spin-orbit         ...  NO
Zero-field splitting spin-spin          ...  NO
Hyperfine couplings                     ...  NO (   0 nuclei)
Quadrupole couplings                    ...  NO (   0 nuclei)
Contact density                         ...  NO (   0 nuclei)

NMR properties:
Chemical shifts                         ...  NO (   0 nuclei)
Spin-rotation constants                 ...  NO (   0 nuclei)
Spin-spin couplings                     ...  NO (   0 nuclei,    0 pairs)

Choice of magnetic origin               ... GIAO
Position of magnetic origin             ...     0.000000     0.000000     0.000000

Properties with geometric perturbations:
SCF Hessian                             ...  NO
IR spectrum                             ...  NO
VCD spectrum                            ...  NO
X-ray spectroscopy properties:
SCF XES/XAS/RIXS spectra                ...  NO


-------------
DIPOLE MOMENT
-------------

Method             : SCF
Type of density    : Electron Density
Multiplicity       :   1
Irrep              :   0
Energy             :  -463.6911266917891226 Eh
Relativity type    : 
Basis              : AO
                                X                 Y                 Z
Electronic contribution:    -10.590107073       1.054717640       2.247888484
Nuclear contribution   :     11.799543812      -0.919485720      -3.147319272
                        -----------------------------------------
Total Dipole Moment    :      1.209436739       0.135231920      -0.899430788
                        -----------------------------------------
Magnitude (a.u.)       :      1.513274807
Magnitude (Debye)      :      3.846438877



--------------------
Rotational spectrum 
--------------------
 
Rotational constants in cm-1:             0.074146             0.022073             0.020206 
Rotational constants in MHz :          2222.833976           661.743178           605.771221 

Dipole components along the rotational axes: 
x,y,z [a.u.] :    -1.188350     0.903723    -0.247202 
x,y,z [Debye]:    -3.020546     2.297082    -0.628337 

 

Dipole moment calculation done in   0.0 sec 

Maximum memory used throughout the entire PROP-calculation: 11.3 MB

--------------------------------
SUGGESTED CITATIONS FOR THIS RUN
--------------------------------

Below you find a list of papers that are relevant to this ORCA run
We neither can nor want to force you to cite these papers, but we appreciate if you do
You receive ORCA, which is the product of decades of hard work by many enthusiastic individuals, for free
The only thing we kindly ask in return is that you cite our papers,
We deeply appreciate it, if you show your appreciation for ORCA by not just citing the generic ORCA reference.

Please note that relegating all ORCA citations to the supporting information does *not* help us.
SI sections are not indexed - citations you put there will not count into any citation statistics
But we need these citations in order to attract the funding resources that allow us to do what we are doing

Therefore, if you are a happy ORCA user, please consider citing a few of the papers listed below in the main body of your paper

In addition to the list printed below, the program has created the file sp.bibtex that contains the list in bibtex format
You can import this file easily into all common literature databanks and citation aid programs


List of essential papers. We consider these as the minimum necessary citations

  1. Neese,F.
     Software update: the ORCA program system, version 5.0
     WIRES Comput. Molec. Sci., 2022 12(1)e1606
     doi.org/10.1002/wcms.1606

List of papers to cite with high priority. The work reported in these papers was absolutely
necessary for this run to complete.
Our perspective: the developers of density functionals and basis sets usually get cited in chemistry papers
Good! But without the algorithms to do something with them, the functionals or basis sets would not do anything.
Hence, in our opinion, the algorithm design and method developments papers are equally worthy of getting cited

  1. Neese,F.
     An improvement of the resolution of the identity approximation for the formation of the Coulomb matrix
     J. Comp. Chem., 2003 24(14)1740-1747
     doi.org/10.1002/jcc.10318
  2. Neese,F.
     The SHARK Integral Generation and Digestion System
     J. Comp. Chem., 2022  1-16
     doi.org/10.1002/jcc.26942
  3. Caldeweyher,E.; Bannwarth,C.; Grimme,S.
     Extension of the D3 dispersion coefficient model
     J. Chem. Phys., 2017 147 034112-XXXX
     doi.org/10.1063/1.4993215
  4. Caldeweyher,E.; Ehlert,S.; Hansen,A.; Neugebauer,H.; Spicher,S.; Bannwarth,C.; Grimme,S.
     A generally applicable atomic-charge dependent London dispersion correction
     J. Chem. Phys., 2019 150 154122-XXXX
     doi.org/10.1063/1.5090222
  5. Caldeweyher,E.; Mewes,J.; Ehlert,S.; Grimme,S.
     Extension and evaluation of the D4 London-dispersion model for periodic systems
     Phys. Chem. Chem. Phys., 2020 22(16)8499-8512
     doi.org/10.1039/D0CP00502A

List of suggested additional citations. These are papers that are important in the 'surrounding' of 
of this run, or papers that preceded the highly important papers. If you like your results we are grateful for a citation.

  1. Neese,F.
     The ORCA program system
     WIRES Comput. Molec. Sci., 2012 2(1)73-78
     doi.org/10.1002/wcms.81
  2. Neese,F.
     Software update: the ORCA program system, version 4.0
     WIRES Comput. Molec. Sci., 2018 8(1)1-6
     doi.org/10.1002/wcms.1327
  3. Neese,F.; Wennmohs,F.; Becker,U.; Riplinger,C.
     The ORCA quantum chemistry program package
     J. Chem. Phys., 2020 152 Art. No. L224108
     doi.org/10.1063/5.0004608

List of optional additional citations

  1. Neese,F.
     Approximate second-order SCF convergence for spin unrestricted wavefunctions
     Chem. Phys. Lett., 2000 325(1-3)93-98
     doi.org/10.1016/s0009-2614(00)00662-x

Timings for individual modules:

Sum of individual times          ...       15.536 sec (=   0.259 min)
Startup calculation              ...        1.127 sec (=   0.019 min)   7.3 %
SCF iterations                   ...       14.278 sec (=   0.238 min)  91.9 %
Property calculations            ...        0.130 sec (=   0.002 min)   0.8 %
                             ****ORCA TERMINATED NORMALLY****
TOTAL RUN TIME: 0 days 0 hours 0 minutes 16 seconds 405 msec
