      -----------------------------------------------------------      
     |                   =====================                   |     
     |                           x T B                           |     
     |                   =====================                   |     
     |                         S. Grimme                         |     
     |          Mulliken Center for Theoretical Chemistry        |     
     |                    University of Bonn                     |     
      -----------------------------------------------------------      

   * xtb version 6.7.1 (edcfbbe) compiled by 'albert@albert-system' on 2024-07-22

   xtb is free software: you can redistribute it and/or modify it under
   the terms of the GNU Lesser General Public License as published by
   the Free Software Foundation, either version 3 of the License, or
   (at your option) any later version.
   
   xtb is distributed in the hope that it will be useful,
   but WITHOUT ANY WARRANTY; without even the implied warranty of
   MERCHANTABILITY or FITNESS FOR A PARTICULAR PURPOSE.  See the
   GNU Lesser General Public License for more details.
   
   Cite this work as:
   * C. Bannwarth, E. Caldeweyher, S. Ehlert, A. Hansen, P. Pracht,
     J. Seibert, S. Spicher, S. Grimme, WIREs Comput. Mol. Sci., 2020, 11,
     e01493. DOI: 10.1002/wcms.1493
   
   for GFN2-xTB:
   * C. Bannwarth, S. Ehlert and S. Grimme., J. Chem. Theory Comput., 2019,
     15, 1652-1671. DOI: 10.1021/acs.jctc.8b01176
   for GFN1-xTB:
   * S. Grimme, C. Bannwarth, P. Shushkov, J. Chem. Theory Comput., 2017,
     13, 1989-2009. DOI: 10.1021/acs.jctc.7b00118
   for GFN0-xTB:
   * P. Pracht, E. Caldeweyher, S. Ehlert, S. Grimme, ChemRxiv, 2019, preprint.
     DOI: 10.26434/chemrxiv.8326202.v1
   for GFN-FF:
   * S. Spicher and S. Grimme, Angew. Chem. Int. Ed., 2020, 59, 15665-15673.
     DOI: 10.1002/anie.202004239
   
   for ALPB and GBSA implicit solvation:
   * S. Ehlert, M. Stahn, S. Spicher, S. Grimme, J. Chem. Theory Comput.,
     2021, 17, 4250-4261. DOI: 10.1021/acs.jctc.1c00471
   
   for ddCOSMO and CPCM-X implicit solvation:
   * M. Stahn, S. Ehlert, S. Grimme, J. Phys. Chem. A,
     2023, XX, XXXX-XXXX. DOI: 10.1021/acs.jpca.3c04382
   
   for DFT-D4:
   * E. Caldeweyher, C. Bannwarth and S. Grimme, J. Chem. Phys., 2017,
     147, 034112. DOI: 10.1063/1.4993215
   * E. Caldeweyher, S. Ehlert, A. Hansen, H. Neugebauer, S. Spicher,
     C. Bannwarth and S. Grimme, J. Chem. Phys., 2019, 150, 154122.
     DOI: 10.1063/1.5090222
   * E. Caldeweyher, J.-M. Mewes, S. Ehlert and S. Grimme, Phys. Chem. Chem. Phys.
     2020, 22, 8499-8512. DOI: 10.1039/D0CP00502A
   
   for sTDA-xTB:
   * S. Grimme and C. Bannwarth, J. Chem. Phys., 2016, 145, 054103.
     DOI: 10.1063/1.4959605
   
   in the mass-spec context:
   * V. Asgeirsson, C. Bauer and S. Grimme, Chem. Sci., 2017, 8, 4879.
     DOI: 10.1039/c7sc00601b
   * J. Koopman and S. Grimme, ACS Omega 2019, 4, 12, 15120-15133.
     DOI: 10.1021/acsomega.9b02011
   
   for metadynamics refer to:
   * S. Grimme, J. Chem. Theory Comput., 2019, 155, 2847-2862
     DOI: 10.1021/acs.jctc.9b00143
   
   for SPH calculations refer to:
   * S. Spicher and S. Grimme, J. Chem. Theory Comput., 2021, 17, 1701-1714
     DOI: 10.1021/acs.jctc.0c01306
   
   for ONIOM refer to:
   * C. Plett, A. Katbashev, S. Ehlert, S. Grimme, M. Bursch,
     Phys. Chem. Chem. Phys., 2023, 25, 17860-17868. DOI: 10.1039/D3CP02178E
   
   for DIPRO refer to:
   * J. Kohn, N. Gildemeister, S. Grimme, D. Fazzi, A. Hansen,
     J. Chem. Phys., 2023, just accepted.
   
   for PTB refer to:
   * S. Grimme, M. Mueller, A. Hansen, J. Chem. Phys., 2023, 158, 124111.
     DOI: 10.1063/5.0137838
   
   with help from (in alphabetical order)
   P. Atkinson, C. Bannwarth, F. Bohle, G. Brandenburg, E. Caldeweyher
   M. Checinski, S. Dohm, S. Ehlert, S. Ehrlich, I. Gerasimov, C. Hölzer
   A. Katbashev, J. Kohn, J. Koopman, C. Lavigne, S. Lehtola, F. März, M. Müller,
   F. Musil, H. Neugebauer, J. Pisarek, C. Plett, P. Pracht, F. Pultar,
   J. Seibert, P. Shushkov, S. Spicher, M. Stahn, M. Steiner, T. Strunk,
   J. Stückrath, T. Rose, and J. Unsleber
   
 * started run on 2025/04/11 at 12:14:17.597     
   ID    Z sym.   atoms
    1    6 C      1, 2, 4-7
    2    1 H      3, 9-21
    3    8 O      8

           -------------------------------------------------
          |                Calculation Setup                |
           -------------------------------------------------

          program call               : /srv/scratch/z5358697/.xtb/bin/xtb xtb_rrho.coord --gfn2 --bhess vtight --chrg 0 --enso --norestart -I rrho-xcontrol-inp --parallel 1 --alpb water
          hostname                   : k068
          coordinate file            : xtb_rrho.coord
          omp threads                :                     1


           -------------------------------------------------
          |                 G F N 2 - x T B                 |
           -------------------------------------------------

        Reference                      10.1021/acs.jctc.8b01176
      * Hamiltonian:
        H0-scaling (s, p, d)           1.850000    2.230000    2.230000
        zeta-weighting                 0.500000
      * Dispersion:
        s8                             2.700000
        a1                             0.520000
        a2                             5.000000
        s9                             5.000000
      * Repulsion:
        kExp                           1.500000    1.000000
        rExp                           1.000000
      * Coulomb:
        alpha                          2.000000
        third order                    shell-resolved
        anisotropic                    true
        a3                             3.000000
        a5                             4.000000
        cn-shift                       1.200000
        cn-exp                         4.000000
        max-rad                        5.000000

      * Solvation model:               ALPB
        Solvent                        water
        Parameter file                 internal GFN2-xTB/ALPB
        Dielectric constant                8.0200E+01
        Reference state                gsolv [1 M gas/solution]
        Free energy shift                  1.0808E-03 Eh       6.7819E-01 kcal/mol
        Temperature                        2.9815E+02 K
        Density                            1.0000E+00 kg/L
        Solvent mass                       1.8000E+01 g/mol
        Interaction kernel             P16
        Born radius scaling (c1)           1.4744E+00
        Born radii integrator          GBOBC
        Born offset                        0.0000E+00 a0       0.0000E+00 AA
        H-bond correction              true
        Ion screening                  false
        Surface tension                    1.0000E-05 Eh       1.5569E+01 dyn/cm
        Grid points                               974 per atom

          ...................................................
          :                      SETUP                      :
          :.................................................:
          :  # basis functions                  42          :
          :  # atomic orbitals                  42          :
          :  # shells                           28          :
          :  # electrons                        44          :
          :  max. iterations                   250          :
          :  Hamiltonian                  GFN2-xTB          :
          :  restarted?                      false          :
          :  GBSA solvation                   true          :
          :  PC potential                    false          :
          :  electronic temp.          300.0000000     K    :
          :  accuracy                    1.0000000          :
          :  -> integral cutoff          0.2500000E+02      :
          :  -> integral neglect         0.1000000E-07      :
          :  -> SCF convergence          0.1000000E-05 Eh   :
          :  -> wf. convergence          0.1000000E-03 e    :
          :  Broyden damping             0.4000000          :
          :  net charge                          0          :
          :  unpaired electrons                  0          :
          ...................................................

 iter      E             dE          RMSdq      gap      omega  full diag
   1    -24.3178873 -0.243179E+02  0.299E+00   11.65       0.0  T
   2    -24.3518727 -0.339853E-01  0.160E+00   11.43       1.0  T
   3    -24.3528592 -0.986510E-03  0.601E-01   11.44       1.0  T
   4    -24.3531348 -0.275618E-03  0.135E-01   11.42       1.0  T
   5    -24.3532115 -0.766525E-04  0.658E-02   11.43       1.0  T
   6    -24.3532137 -0.226536E-05  0.970E-03   11.44       2.3  T
   7    -24.3532140 -0.233461E-06  0.433E-03   11.44       5.0  T
   8    -24.3532140 -0.442740E-07  0.195E-03   11.44      11.2  T
   9    -24.3532140 -0.578469E-08  0.696E-04   11.44      31.4  T
  10    -24.3532140 -0.149080E-08  0.157E-04   11.44     139.4  T

   *** convergence criteria satisfied after 10 iterations ***

         #    Occupation            Energy/Eh            Energy/eV
      -------------------------------------------------------------
         1        2.0000           -0.6795636             -18.4919
       ...           ...                  ...                  ...
        16        2.0000           -0.4535969             -12.3430
        17        2.0000           -0.4515859             -12.2883
        18        2.0000           -0.4416508             -12.0179
        19        2.0000           -0.4296358             -11.6910
        20        2.0000           -0.4198961             -11.4260
        21        2.0000           -0.4143397             -11.2748
        22        2.0000           -0.4019252             -10.9369 (HOMO)
        23                          0.0184105               0.5010 (LUMO)
        24                          0.0617007               1.6790
        25                          0.0910430               2.4774
        26                          0.1007321               2.7411
        27                          0.1087722               2.9598
       ...                                ...                  ...
        42                          0.3126280               8.5070
      -------------------------------------------------------------
                  HL-Gap            0.4203356 Eh           11.4379 eV
             Fermi-level           -0.1917573 Eh           -5.2180 eV

 SCC (total)                   0 d,  0 h,  0 min,  0.040 sec
 SCC setup                      ...        0 min,  0.001 sec (  3.225%)
 Dispersion                     ...        0 min,  0.000 sec (  0.286%)
 classical contributions        ...        0 min,  0.000 sec (  0.060%)
 integral evaluation            ...        0 min,  0.001 sec (  3.712%)
 iterations                     ...        0 min,  0.032 sec ( 79.474%)
 molecular gradient             ...        0 min,  0.005 sec ( 12.774%)
 printout                       ...        0 min,  0.000 sec (  0.427%)

         :::::::::::::::::::::::::::::::::::::::::::::::::::::
         ::                     SUMMARY                     ::
         :::::::::::::::::::::::::::::::::::::::::::::::::::::
         :: total energy             -24.056369472962 Eh    ::
         :: total w/o Gsasa/hb       -24.052269126823 Eh    ::
         :: gradient norm              0.031928353578 Eh/a0 ::
         :: HOMO-LUMO gap             11.437914666466 eV    ::
         ::.................................................::
         :: SCC energy               -24.353147389537 Eh    ::
         :: -> isotropic ES            0.038122926479 Eh    ::
         :: -> anisotropic ES          0.006425973945 Eh    ::
         :: -> anisotropic XC          0.010247944821 Eh    ::
         :: -> dispersion             -0.012989055608 Eh    ::
         :: -> Gsolv                  -0.008596058221 Eh    ::
         ::    -> Gelec               -0.004495712083 Eh    ::
         ::    -> Gsasa                0.000018476238 Eh    ::
         ::    -> Ghb                 -0.005199582075 Eh    ::
         ::    -> Gshift               0.001080759698 Eh    ::
         :: repulsion energy           0.296777916575 Eh    ::
         :: add. restraining           0.000000000000 Eh    ::
         :: total charge              -0.000000000000 e     ::
         :::::::::::::::::::::::::::::::::::::::::::::::::::::

metadynamics with 1 initial structures loaded
           -------------------------------------------------
          |           Optimal kpush determination           |
           -------------------------------------------------
      ----------------------------------------------------------- 
     |                   =====================                   |
     |                        A N C O P T                        |
     |                   =====================                   |
     |               Approximate Normal Coordinate               |
     |                Rational Function Optimizer                |
      ----------------------------------------------------------- 
target rmsd / Å         0.100000
unbiased initial rmsd   0.098806
 
iter. min.        max.        rmsd       kpush
final kpush:  0.000000
           -------------------------------------------------
          |            Biased Numerical Hessian             |
           -------------------------------------------------
kpush                :   0.00000
alpha                :   1.00000
step length          :   0.00500
SCC accuracy         :   0.30000
Hessian scale factor :   1.00000
frozen atoms in %    :   0.00000    0
RMS gradient         :   0.00003
estimated CPU  time      0.02 min
estimated wall time      0.02 min

writing file <hessian>.

 projected vibrational frequencies (cm⁻¹)
eigval :       -0.00    -0.00    -0.00     0.00     0.00     0.00
eigval :       49.85    98.66   184.43   193.81   218.24   270.76
eigval :      292.05   303.46   363.11   375.20   423.08   439.62
eigval :      597.54   815.62   878.80   897.08   948.70   967.48
eigval :      982.71   998.43  1042.97  1061.14  1104.28  1163.11
eigval :     1169.02  1184.63  1219.46  1252.66  1299.06  1328.33
eigval :     1344.33  1348.28  1362.03  1399.11  1403.29  1416.73
eigval :     1471.85  1483.03  1488.94  1497.73  1501.48  1503.99
eigval :     1516.92  2796.69  2947.32  2967.51  2984.19  3018.47
eigval :     3019.72  3021.45  3025.10  3027.52  3037.41  3046.58
eigval :     3052.13  3069.27  3510.46
           -------------------------------------------------
          |                Property Printout                |
           -------------------------------------------------

    * Orbital Energies and Occupations

         #    Occupation            Energy/Eh            Energy/eV
      -------------------------------------------------------------
         1        2.0000           -0.6827663             -18.5790
       ...           ...                  ...                  ...
        10        2.0000           -0.5121543             -13.9364
        11        2.0000           -0.4989334             -13.5767
        12        2.0000           -0.4819423             -13.1143
        13        2.0000           -0.4733778             -12.8813
        14        2.0000           -0.4684744             -12.7478
        15        2.0000           -0.4584526             -12.4751
        16        2.0000           -0.4552624             -12.3883
        17        2.0000           -0.4500919             -12.2476
        18        2.0000           -0.4408638             -11.9965
        19        2.0000           -0.4279407             -11.6449
        20        2.0000           -0.4187350             -11.3944
        21        2.0000           -0.4140190             -11.2660
        22        2.0000           -0.3999921             -10.8843 (HOMO)
        23                          0.0384347               1.0459 (LUMO)
        24                          0.0641893               1.7467
        25                          0.0976744               2.6579
        26                          0.1119975               3.0476
        27                          0.1195120               3.2521
        28                          0.1231361               3.3507
        29                          0.1496731               4.0728
        30                          0.1556314               4.2349
        31                          0.1777098               4.8357
        32                          0.1823518               4.9620
        33                          0.2136534               5.8138
       ...                                ...                  ...
        42                          0.3223985               8.7729
      -------------------------------------------------------------
                  HL-Gap            0.4384268 Eh           11.9302 eV
             Fermi-level           -0.1807787 Eh           -4.9192 eV

     #   Z          covCN         q      C6AA      α(0)
     1   6 C        3.751    -0.130    23.063     6.849
     2   6 C        3.720     0.121    18.717     6.179
     3   1 H        0.923     0.005     2.970     2.695
     4   6 C        3.804    -0.073    21.896     6.662
     5   6 C        3.849    -0.010    20.715     6.474
     6   6 C        3.755    -0.110    22.662     6.788
     7   6 C        3.758    -0.115    22.761     6.802
     8   8 O        1.655    -0.515    23.207     6.503
     9   1 H        0.925     0.045     2.382     2.414
    10   1 H        0.925     0.055     2.257     2.349
    11   1 H        0.925     0.042     2.422     2.434
    12   1 H        0.924     0.042     2.424     2.435
    13   1 H        0.924     0.036     2.506     2.476
    14   1 H        0.924     0.039     2.460     2.453
    15   1 H        0.925     0.034     2.527     2.486
    16   1 H        0.925     0.037     2.490     2.468
    17   1 H        0.925     0.041     2.440     2.443
    18   1 H        0.925     0.038     2.475     2.460
    19   1 H        0.925     0.039     2.464     2.455
    20   1 H        0.925     0.033     2.543     2.494
    21   1 H        0.805     0.346     0.597     1.214

 Mol. C6AA /au·bohr⁶  :       2901.996377
 Mol. C8AA /au·bohr⁸  :      60100.601262
 Mol. α(0) /au        :         79.529607


Wiberg/Mayer (AO) data.
largest (>0.10) Wiberg bond orders for each atom

 ---------------------------------------------------------------------------
     #   Z sym  total        # sym  WBO       # sym  WBO       # sym  WBO
 ---------------------------------------------------------------------------
     1   6 C    3.994 --     2 C    1.002     9 H    0.985    11 H    0.985
                            10 H    0.981
     2   6 C    3.952 --     1 C    1.002     4 C    0.987     8 O    0.982
                             3 H    0.965
     3   1 H    1.000 --     2 C    0.965
     4   6 C    3.995 --     5 C    0.997     2 C    0.987    13 H    0.978
                            12 H    0.975
     5   6 C    3.995 --     6 C    1.010     7 C    1.007     4 C    0.997
                            14 H    0.968
     6   6 C    3.997 --     5 C    1.010    16 H    0.986    15 H    0.986
                            17 H    0.983
     7   6 C    3.996 --     5 C    1.007    19 H    0.987    20 H    0.987
                            18 H    0.986
     8   8 O    1.915 --     2 C    0.982    21 H    0.864
     9   1 H    0.998 --     1 C    0.985
    10   1 H    0.997 --     1 C    0.981
    11   1 H    0.998 --     1 C    0.985
    12   1 H    0.998 --     4 C    0.975
    13   1 H    0.999 --     4 C    0.978
    14   1 H    0.998 --     5 C    0.968
    15   1 H    0.999 --     6 C    0.986
    16   1 H    0.999 --     6 C    0.986
    17   1 H    0.998 --     6 C    0.983
    18   1 H    0.998 --     7 C    0.986
    19   1 H    0.998 --     7 C    0.987
    20   1 H    0.999 --     7 C    0.987
    21   1 H    0.880 --     8 O    0.864
 ---------------------------------------------------------------------------

Topologies differ in total number of bonds
Writing topology from bond orders to xtbtopo.mol

molecular dipole:
                 x           y           z       tot (Debye)
 q only:        0.425       0.132      -0.376
   full:        0.631       0.118      -0.428       1.962
molecular quadrupole (traceless):
                xx          xy          yy          xz          yz          zz
 q only:        3.335       2.005      -0.950       0.840       0.622      -2.385
  q+dip:        4.525       1.747      -1.418       1.469       0.494      -3.107
   full:        4.633       2.125      -1.407       1.360       0.692      -3.226

           -------------------------------------------------
          |                Geometry Summary                 |
           -------------------------------------------------

      molecular mass/u    :      102.1749908
   center of mass at/Å    :        0.0001728      -0.0010600       0.0002942
  moments of inertia/u·Å² :        0.1242757E+03   0.3245457E+03   0.3377948E+03
rotational constants/cm⁻¹ :        0.1356471E+00   0.5194224E-01   0.4990494E-01

 * 19 selected distances

     #   Z          #   Z                                           value/Å
     1   6 C        2   6 C                                       1.5308633
     2   6 C        3   1 H                                       1.1046093
     4   6 C        5   6 C                                       1.5343929 (max)
     5   6 C        6   6 C                                       1.5261938
     5   6 C        7   6 C                                       1.5284246
     2   6 C        8   8 O                                       1.4180514
     1   6 C        9   1 H                                       1.0860811
     1   6 C       10   1 H                                       1.0849659
     1   6 C       11   1 H                                       1.0884266
     4   6 C       12   1 H                                       1.0909314
     4   6 C       13   1 H                                       1.0919313
     5   6 C       14   1 H                                       1.0943426
     6   6 C       15   1 H                                       1.0879615
     6   6 C       16   1 H                                       1.0881012
     6   6 C       17   1 H                                       1.0858533
     7   6 C       18   1 H                                       1.0872816
     7   6 C       19   1 H                                       1.0880564
     7   6 C       20   1 H                                       1.0875036
     8   8 O       21   1 H                                       0.9661534 (min)

 * 4 distinct bonds (by element types)

   Z      Z             #   av. dist./Å        max./Å        min./Å
   1 H    6 C          13     1.0896958     1.1046093     1.0849659
   6 C    6 C           4     1.5299687     1.5343929     1.5261938
   1 H    8 O           1     0.9661534     0.9661534     0.9661534
   6 C    8 O           1     1.4180514     1.4180514     1.4180514

           -------------------------------------------------
          |               Frequency Printout                |
           -------------------------------------------------
 projected vibrational frequencies (cm⁻¹)
eigval :       -0.00    -0.00    -0.00     0.00     0.00     0.00
eigval :       49.85    98.66   184.43   193.81   218.24   270.76
eigval :      292.05   303.46   363.11   375.20   423.08   439.62
eigval :      597.54   815.62   878.80   897.08   948.70   967.48
eigval :      982.71   998.43  1042.97  1061.14  1104.28  1163.11
eigval :     1169.02  1184.63  1219.46  1252.66  1299.06  1328.33
eigval :     1344.33  1348.28  1362.03  1399.11  1403.29  1416.73
eigval :     1471.85  1483.03  1488.94  1497.73  1501.48  1503.99
eigval :     1516.92  2796.69  2947.32  2967.51  2984.19  3018.47
eigval :     3019.72  3021.45  3025.10  3027.52  3037.41  3046.58
eigval :     3052.13  3069.27  3510.46
 reduced masses (amu)
   1: 11.15   2:  9.57   3: 10.02   4: 10.54   5: 11.51   6: 10.19   7:  9.80   8:  8.09
   9:  6.83  10:  4.80  11:  2.29  12:  2.08  13:  2.02  14:  9.25  15:  8.63  16:  7.46
  17:  8.69  18:  8.49  19:  9.23  20:  9.29  21:  6.14  22:  6.68  23:  2.93  24:  6.60
  25:  4.34  26:  4.75  27:  6.99  28:  5.21  29:  7.18  30:  7.99  31:  7.07  32:  6.48
  33:  4.70  34:  3.82  35:  3.23  36:  3.30  37:  4.51  38:  4.62  39:  4.67  40:  3.33
  41:  3.38  42:  3.11  43:  1.88  44:  1.59  45:  1.61  46:  1.62  47:  1.56  48:  1.59
  49:  1.54  50:  1.71  51:  1.74  52:  1.93  53:  1.55  54:  1.88  55:  1.82  56:  1.89
  57:  1.82  58:  1.73  59:  1.30  60:  1.69  61:  1.61  62:  1.67  63:  1.87
 IR intensities (km·mol⁻¹)
   1:  0.32   2:  0.44   3:  0.24   4:  0.08   5:  0.06   6:  0.09   7:  0.77   8:  2.29
   9:  1.43  10:  1.16  11:  0.50  12:  1.19  13:209.20  14:  2.48  15:  2.73  16:  6.66
  17:  7.37  18:  4.34  19: 17.66  20:  8.72  21:  5.66  22:  0.68  23:  4.61  24: 13.19
  25:  3.35  26:  3.90  27:  6.53  28: 20.73  29:147.56  30: 28.80  31: 29.53  32: 24.41
  33: 45.00  34: 15.83  35:  1.53  36: 16.88  37: 37.31  38: 30.81  39:  4.55  40:  5.28
  41:  3.55  42:  0.56  43:  0.29  44:  0.58  45:  0.66  46:  0.14  47:  0.64  48:  0.41
  49:  2.07  50:162.04  51: 42.57  52: 97.63  53: 57.17  54: 72.57  55: 45.53  56: 74.53
  57: 69.13  58:132.22  59: 61.01  60: 49.14  61: 38.43  62: 25.69  63: 51.34
 Raman intensities (Ä⁴*amu⁻¹)
   1:  0.00   2:  0.00   3:  0.00   4:  0.00   5:  0.00   6:  0.00   7:  0.00   8:  0.00
   9:  0.00  10:  0.00  11:  0.00  12:  0.00  13:  0.00  14:  0.00  15:  0.00  16:  0.00
  17:  0.00  18:  0.00  19:  0.00  20:  0.00  21:  0.00  22:  0.00  23:  0.00  24:  0.00
  25:  0.00  26:  0.00  27:  0.00  28:  0.00  29:  0.00  30:  0.00  31:  0.00  32:  0.00
  33:  0.00  34:  0.00  35:  0.00  36:  0.00  37:  0.00  38:  0.00  39:  0.00  40:  0.00
  41:  0.00  42:  0.00  43:  0.00  44:  0.00  45:  0.00  46:  0.00  47:  0.00  48:  0.00
  49:  0.00  50:  0.00  51:  0.00  52:  0.00  53:  0.00  54:  0.00  55:  0.00  56:  0.00
  57:  0.00  58:  0.00  59:  0.00  60:  0.00  61:  0.00  62:  0.00  63:  0.00
 output can be read by thermo (or use thermo option).
 writing <g98.out> molden fake output.
 recommended (thermochemical) frequency scaling factor: 1.0
           -------------------------------------------------
          |             Thermodynamic Functions             |
           -------------------------------------------------

Molecule has no symmetry elements
It seems to be the C1 point group
c1  symmetry found (for desy threshold:  0.10E+00) used in thermo

          ...................................................
          :                      SETUP                      :
          :.................................................:
          :  # frequencies                          57      :
          :  # imaginary freq.                       0      :
          :  linear?                             false      :
          :  only rotor calc.                    false      :
          :  symmetry                               c1      :
          :  rotational number                       1      :
          :  scaling factor                  1.0000000      :
          :  rotor cutoff                    0.0000000 cm⁻¹ :
          :  imag. cutoff                 -100.0000000 cm⁻¹ :
          :.................................................:

    mode    ω/cm⁻¹     T·S(HO)/kcal·mol⁻¹    T·S(FR)/kcal·mol⁻¹   T·S(vib)
   ------------------------------------------------------------------------
       1     49.85    -1.43813 (100.00%)    -1.05709 (  0.00%)    -1.43813
       2     98.66    -1.03772 (100.00%)    -0.85500 (  0.00%)    -1.03772
       3    184.43    -0.68069 (100.00%)    -0.66977 (  0.00%)    -0.68069
       4    193.81    -0.65327 (100.00%)    -0.65509 (  0.00%)    -0.65327
       5    218.24    -0.58845 (100.00%)    -0.61993 (  0.00%)    -0.58845
       6    270.76    -0.47446 (100.00%)    -0.55606 (  0.00%)    -0.47446
       7    292.05    -0.43591 (100.00%)    -0.53364 (  0.00%)    -0.43591
   ------------------------------------------------------------------------

   temp. (K)  partition function   enthalpy   heat capacity  entropy
                                   cal/mol     cal/K/mol   cal/K/mol   J/K/mol
 298.15  VIB   286.                 4137.725     28.198     25.117
         ROT  0.282E+06              888.752      2.981     27.920
         INT  0.806E+08             5026.477     31.179     53.037
         TR   0.999E+27             1481.254      4.968     39.764
         TOT                        6507.7313    36.1467    92.8008   388.2785

       T/K    H(0)-H(T)+PV         H(T)/Eh          T*S/Eh         G(T)/Eh
   ------------------------------------------------------------------------
    298.15    0.103707E-01    0.200335E+00    0.440926E-01    0.156243E+00
   ------------------------------------------------------------------------

         :::::::::::::::::::::::::::::::::::::::::::::::::::::
         ::                  THERMODYNAMIC                  ::
         :::::::::::::::::::::::::::::::::::::::::::::::::::::
         :: total free energy         -23.901899189075 Eh   ::
         ::.................................................::
         :: total energy              -24.058141839645 Eh   ::
         :: zero point energy           0.189964570358 Eh   ::
         :: G(RRHO) w/o ZPVE           -0.033721919788 Eh   ::
         :: G(RRHO) contrib.            0.156242650570 Eh   ::
         :::::::::::::::::::::::::::::::::::::::::::::::::::::

optimized geometry written to: xtbopt.coord


           -------------------------------------------------
          | TOTAL ENERGY              -24.058141839645 Eh   |
          | TOTAL ENTHALPY            -23.857806539374 Eh   |
          | TOTAL FREE ENERGY         -23.901899189075 Eh   |
          | GRADIENT NORM               0.000026878401 Eh/α |
          | HOMO-LUMO GAP              11.930200053861 eV   |
           -------------------------------------------------

------------------------------------------------------------------------
 * finished run on 2025/04/11 at 12:14:19.282     
------------------------------------------------------------------------
 total:
 * wall-time:     0 d,  0 h,  0 min,  1.684 sec
 *  cpu-time:     0 d,  0 h,  0 min,  1.546 sec
 * ratio c/w:     0.918 speedup
 SCF:
 * wall-time:     0 d,  0 h,  0 min,  0.040 sec
 *  cpu-time:     0 d,  0 h,  0 min,  0.015 sec
 * ratio c/w:     0.374 speedup
 analytical hessian:
 * wall-time:     0 d,  0 h,  0 min,  1.269 sec
 *  cpu-time:     0 d,  0 h,  0 min,  1.255 sec
 * ratio c/w:     0.989 speedup

