 Entering Gaussian System
 *********************************************
 Gaussian 98:
 frequency output generated by the xtb code
 *********************************************
                         Standard orientation:
 --------------------------------------------------------------------
  Center     Atomic     Atomic              Coordinates (Angstroms)
  Number     Number      Type              X           Y           Z
 --------------------------------------------------------------------
    1          6             0       -2.991489   -1.081427   -0.562649
    2          6             0       -1.773751   -0.448203    0.112491
    3          6             0       -2.234561    0.542526    1.178455
    4          6             0       -0.900009    0.218468   -0.956664
    5          6             0        0.361892    0.960067   -0.498856
    6          6             0        1.565040    0.148214    0.027157
    7          6             0        1.851699   -1.065671   -0.858889
    8          6             0        2.786187    1.078824   -0.005194
    9          6             0        1.368884   -0.310182    1.474718
   10          1             0       -3.610150   -1.594820    0.170001
   11          1             0       -2.683582   -1.802603   -1.316558
   12          1             0       -3.596578   -0.317309   -1.046372
   13          1             0       -1.209568   -1.250249    0.596737
   14          1             0       -1.394061    0.922343    1.751605
   15          1             0       -2.747930    1.382723    0.715221
   16          1             0       -2.922006    0.059120    1.869189
   17          1             0       -0.623300   -0.534488   -1.696471
   18          1             0       -1.525088    0.954288   -1.472102
   19          1             0        0.090664    1.700801    0.255122
   20          1             0        0.714088    1.515404   -1.373086
   21          1             0        1.947851   -0.765047   -1.899920
   22          1             0        2.782778   -1.537967   -0.552822
   23          1             0        1.058149   -1.803862   -0.780290
   24          1             0        3.659919    0.576904    0.404420
   25          1             0        3.014517    1.382303   -1.024496
   26          1             0        2.598815    1.973524    0.584737
   27          1             0        1.151742    0.538732    2.119384
   28          1             0        2.277150   -0.787104    1.838153
   29          1             0        0.558455   -1.026039    1.562645
 --------------------------------------------------------------------
     1 basis functions        1 primitive gaussians
     1 alpha electrons        1 beta electrons
 
 Harmonic frequencies (cm**-1), IR intensities (km*mol⁻¹),
 Raman scattering activities (A**4/amu), Raman depolarization ratios,
 reduced masses (AMU), force constants (mDyne/A) and normal coordinates:
                      1                      2                      3
                        a                      a                      a 
 Frequencies --    43.3747                71.9477               121.9205
 Red. masses --     8.4408                 8.4018                 8.0036
 Frc consts  --     0.0000                 0.0000                 0.0000
 IR Inten    --     0.0004                 0.0182                 0.1374
 Raman Activ --     0.0000                 0.0000                 0.0000
 Depolar     --     0.0000                 0.0000                 0.0000
 Atom AN      X      Y      Z        X      Y      Z        X      Y      Z
   1   6     0.11  -0.02  -0.19    -0.27   0.32  -0.01    -0.23   0.20  -0.23
   2   6     0.10  -0.06  -0.12     0.01  -0.13  -0.09    -0.21  -0.08   0.01
   3   6     0.07  -0.32   0.11     0.43  -0.22   0.17    -0.22  -0.03  -0.04
   4   6    -0.01   0.24  -0.02     0.00  -0.18  -0.13     0.05  -0.21   0.14
   5   6     0.00   0.15   0.07    -0.03  -0.09  -0.19    -0.04  -0.11   0.25
   6   6    -0.05   0.04   0.04    -0.03   0.04   0.01     0.14   0.01   0.03
   7   6    -0.35  -0.14   0.20     0.15  -0.00   0.12     0.10  -0.00   0.05
   8   6     0.10  -0.17  -0.23    -0.10   0.13   0.08     0.05   0.12  -0.24
   9   6     0.03   0.31   0.14    -0.16   0.12   0.01     0.37   0.05   0.07
  10   1     0.05  -0.06  -0.08    -0.07   0.08  -0.00    -0.13   0.07  -0.11
  11   1     0.04   0.04  -0.10    -0.17   0.13  -0.07    -0.07   0.06  -0.07
  12   1     0.01   0.01  -0.01    -0.06   0.17   0.09     0.00   0.11  -0.07
  13   1     0.06  -0.03  -0.09    -0.03  -0.11  -0.10    -0.12  -0.05   0.03
  14   1     0.02  -0.09   0.03     0.17  -0.17   0.04    -0.08  -0.09   0.07
  15   1    -0.02  -0.09   0.09     0.18   0.01   0.12     0.05   0.05  -0.03
  16   1     0.06  -0.15   0.02     0.11  -0.05   0.04    -0.16   0.03  -0.08
  17   1    -0.01   0.12  -0.07     0.01  -0.06  -0.02     0.05  -0.09   0.08
  18   1    -0.02   0.10   0.06    -0.00  -0.07  -0.05     0.04  -0.08  -0.02
  19   1     0.01   0.03   0.04    -0.02   0.01  -0.10    -0.04  -0.08   0.11
  20   1     0.01   0.06   0.03     0.00  -0.07  -0.08    -0.05   0.03   0.10
  21   1    -0.11  -0.09   0.04     0.07  -0.02   0.03    -0.07  -0.02  -0.00
  22   1    -0.12  -0.07   0.06     0.04   0.02   0.08     0.08   0.06  -0.05
  23   1    -0.13   0.00   0.11     0.05  -0.01   0.02     0.08  -0.04   0.10
  24   1     0.01  -0.07  -0.06    -0.03   0.06   0.06     0.04   0.08  -0.06
  25   1     0.02  -0.11  -0.09    -0.00   0.02   0.03    -0.02  -0.01  -0.09
  26   1     0.08  -0.01  -0.11    -0.07   0.04   0.00     0.00   0.06  -0.11
  27   1     0.10   0.13   0.01    -0.05   0.04  -0.01     0.24   0.03   0.04
  28   1    -0.01   0.03   0.02    -0.06   0.03   0.03     0.08  -0.08  -0.05
  29   1    -0.05   0.16   0.11    -0.05   0.04  -0.00     0.03   0.10   0.07
                      4                      5                      6
                        a                      a                      a 
 Frequencies --   186.4423               197.6278               218.8847
 Red. masses --     5.2737                 1.4145                 2.4041
 Frc consts  --     0.0000                 0.0000                 0.0000
 IR Inten    --     0.0227                 0.0665                 0.0506
 Raman Activ --     0.0000                 0.0000                 0.0000
 Depolar     --     0.0000                 0.0000                 0.0000
 Atom AN      X      Y      Z        X      Y      Z        X      Y      Z
   1   6     0.09  -0.13   0.11     0.01   0.01  -0.03    -0.03  -0.04   0.08
   2   6     0.12  -0.04  -0.07     0.00  -0.01   0.00    -0.05   0.07   0.02
   3   6     0.29   0.16  -0.18    -0.01   0.02  -0.03    -0.20   0.01   0.02
   4   6     0.08  -0.08  -0.12    -0.01   0.00   0.01    -0.05   0.08   0.02
   5   6    -0.11   0.07   0.13    -0.03  -0.00   0.06     0.06  -0.03  -0.07
   6   6    -0.12   0.03   0.07    -0.00  -0.00   0.01     0.06  -0.03  -0.04
   7   6    -0.26   0.09  -0.06    -0.02  -0.06   0.08     0.19  -0.04   0.01
   8   6    -0.10  -0.01   0.07    -0.01   0.00  -0.12     0.06  -0.02   0.01
   9   6    -0.00  -0.08   0.05     0.07   0.03   0.03    -0.03   0.01  -0.05
  10   1     0.11  -0.11   0.05     0.08  -0.14  -0.04     0.26  -0.41  -0.03
  11   1     0.01   0.02  -0.03     0.01   0.13  -0.13    -0.01   0.33  -0.30
  12   1    -0.05  -0.05   0.11    -0.08   0.03   0.13    -0.28   0.03   0.43
  13   1     0.04   0.00  -0.01     0.00   0.01   0.01     0.00   0.03   0.00
  14   1     0.07  -0.18   0.12    -0.03  -0.18   0.16    -0.08   0.01   0.03
  15   1     0.37   0.19  -0.10     0.22   0.13  -0.03    -0.05  -0.00  -0.00
  16   1    -0.16   0.18  -0.20    -0.21   0.08  -0.16    -0.07  -0.02  -0.03
  17   1     0.08  -0.03  -0.01     0.00   0.01  -0.00    -0.04   0.02  -0.00
  18   1     0.01  -0.06  -0.07    -0.00   0.00   0.01    -0.01   0.04   0.02
  19   1    -0.09  -0.04   0.07    -0.01  -0.02   0.03     0.04   0.01  -0.03
  20   1    -0.02   0.08   0.08    -0.02   0.02   0.03     0.02  -0.03  -0.03
  21   1    -0.23   0.03  -0.03     0.15  -0.01   0.04     0.09  -0.02   0.00
  22   1    -0.00   0.08  -0.15    -0.09  -0.11   0.14     0.05  -0.00   0.04
  23   1    -0.02  -0.03   0.09    -0.08   0.06  -0.09     0.06  -0.02  -0.02
  24   1    -0.04   0.01   0.07     0.07  -0.08  -0.28    -0.03   0.05   0.17
  25   1     0.01  -0.05   0.02    -0.17   0.19  -0.02     0.13  -0.14  -0.01
  26   1    -0.04   0.02  -0.02     0.10  -0.11   0.16    -0.05   0.07  -0.14
  27   1     0.17  -0.02   0.06    -0.33  -0.04  -0.05     0.08   0.02  -0.01
  28   1    -0.04  -0.16  -0.07     0.14   0.33   0.12    -0.05  -0.09  -0.02
  29   1    -0.09   0.09   0.05     0.25  -0.27  -0.04    -0.08   0.08  -0.01
                      7                      8                      9
                        a                      a                      a 
 Frequencies --   240.1501               240.9288               250.1124
 Red. masses --     5.6514                 3.0678                 2.9739
 Frc consts  --     0.0000                 0.0000                 0.0000
 IR Inten    --     0.2269                 0.2481                 0.1414
 Raman Activ --     0.0000                 0.0000                 0.0000
 Depolar     --     0.0000                 0.0000                 0.0000
 Atom AN      X      Y      Z        X      Y      Z        X      Y      Z
   1   6     0.11  -0.02  -0.07    -0.10  -0.04   0.06     0.05   0.11  -0.07
   2   6    -0.03  -0.03   0.20    -0.05  -0.08   0.01     0.04  -0.03   0.08
   3   6    -0.15  -0.08   0.19    -0.05  -0.01  -0.05    -0.05  -0.02   0.02
   4   6     0.02  -0.05   0.19     0.04  -0.14   0.02     0.15  -0.19   0.07
   5   6     0.07   0.06  -0.11     0.01   0.02  -0.06     0.03   0.04  -0.02
   6   6     0.04   0.06  -0.12     0.04   0.09  -0.02     0.00   0.05   0.01
   7   6     0.07   0.06  -0.12    -0.02   0.11  -0.07    -0.15   0.07  -0.09
   8   6     0.19  -0.13   0.01     0.20  -0.11   0.13     0.10  -0.09   0.03
   9   6    -0.30   0.16  -0.14    -0.06   0.18  -0.01    -0.13   0.07  -0.00
  10   1    -0.08   0.08  -0.05     0.02  -0.07   0.02     0.04  -0.08  -0.07
  11   1     0.08  -0.08   0.07    -0.05   0.04  -0.04     0.01   0.14  -0.12
  12   1     0.12  -0.02  -0.15    -0.07   0.00   0.09    -0.02   0.08   0.09
  13   1    -0.04  -0.02   0.07    -0.03  -0.03   0.01    -0.02  -0.02   0.04
  14   1    -0.09  -0.25   0.27    -0.01   0.04  -0.05    -0.02   0.11  -0.07
  15   1     0.23   0.13   0.03    -0.05  -0.03  -0.03    -0.13  -0.08  -0.00
  16   1    -0.29   0.05  -0.14     0.02  -0.00   0.02     0.08  -0.05   0.08
  17   1    -0.01  -0.03   0.07     0.03  -0.06   0.03     0.09  -0.10   0.09
  18   1    -0.01  -0.04   0.05     0.01  -0.07  -0.03     0.04  -0.11  -0.06
  19   1     0.04   0.05  -0.05    -0.00   0.02  -0.04    -0.00   0.03  -0.03
  20   1    -0.01  -0.02  -0.07    -0.02  -0.01  -0.04     0.00  -0.01  -0.02
  21   1     0.05   0.03  -0.03     0.06   0.06  -0.01    -0.45  -0.01  -0.07
  22   1     0.01   0.01  -0.02    -0.04  -0.03   0.01     0.15   0.22  -0.31
  23   1     0.01   0.02  -0.06    -0.04   0.07  -0.08     0.13  -0.14   0.27
  24   1    -0.01  -0.05   0.13     0.10  -0.23  -0.31     0.02  -0.07  -0.02
  25   1     0.17  -0.14  -0.00    -0.13   0.29   0.09     0.02  -0.01   0.01
  26   1     0.05   0.02  -0.09     0.24  -0.22   0.38     0.07  -0.04   0.04
  27   1    -0.09   0.07  -0.07     0.24   0.10   0.01    -0.26  -0.00  -0.05
  28   1    -0.13   0.01   0.03    -0.11  -0.18  -0.06     0.02   0.21   0.10
  29   1    -0.13   0.09  -0.08    -0.19   0.26   0.04     0.09  -0.13  -0.05
                     10                     11                     12
                        a                      a                      a 
 Frequencies --   288.7762               305.4497               339.0515
 Red. masses --     5.2460                 7.0431                 7.2501
 Frc consts  --     0.0000                 0.0000                 0.0000
 IR Inten    --     0.0647                 0.2390                 0.0658
 Raman Activ --     0.0000                 0.0000                 0.0000
 Depolar     --     0.0000                 0.0000                 0.0000
 Atom AN      X      Y      Z        X      Y      Z        X      Y      Z
   1   6    -0.17   0.00   0.09    -0.33  -0.15   0.23    -0.01  -0.02   0.08
   2   6    -0.01  -0.15  -0.04    -0.12   0.00  -0.24     0.04   0.02  -0.06
   3   6     0.05  -0.01  -0.16    -0.07  -0.12  -0.11     0.08   0.02  -0.05
   4   6     0.12  -0.20   0.01    -0.15   0.23  -0.16     0.07   0.06  -0.00
   5   6    -0.05   0.06   0.17     0.04  -0.02  -0.01    -0.11   0.13   0.32
   6   6     0.03   0.11   0.06     0.10   0.00   0.03    -0.05   0.01  -0.01
   7   6    -0.17   0.23  -0.15     0.16   0.05  -0.02     0.33  -0.01   0.12
   8   6     0.23  -0.14   0.00     0.23  -0.13   0.11     0.02  -0.10  -0.33
   9   6     0.01   0.08   0.05     0.12   0.12   0.07    -0.39  -0.07  -0.09
  10   1    -0.03   0.01   0.05    -0.05   0.08   0.19     0.02   0.02   0.05
  11   1    -0.12   0.00  -0.00    -0.18  -0.16   0.15    -0.02  -0.03   0.04
  12   1    -0.05   0.03   0.07    -0.11  -0.09   0.01    -0.02  -0.02   0.02
  13   1    -0.03  -0.05   0.01     0.02   0.01  -0.11     0.01  -0.00  -0.03
  14   1     0.02   0.09  -0.13    -0.02  -0.13   0.04     0.03   0.04  -0.05
  15   1    -0.07  -0.07  -0.08     0.06   0.03  -0.00    -0.02  -0.02  -0.01
  16   1     0.09   0.01   0.04    -0.09  -0.03  -0.10     0.07  -0.01   0.02
  17   1     0.09  -0.06   0.03    -0.09   0.12  -0.12     0.09   0.02   0.02
  18   1     0.03  -0.10  -0.05    -0.02   0.15   0.04     0.02  -0.01  -0.03
  19   1    -0.07  -0.03   0.08     0.02  -0.01   0.01    -0.06  -0.10   0.21
  20   1    -0.03   0.08   0.08     0.03   0.00   0.01    -0.07   0.20   0.18
  21   1     0.19   0.16   0.01    -0.14   0.01  -0.02     0.10  -0.03   0.03
  22   1    -0.18  -0.13   0.08     0.15   0.13  -0.14     0.14   0.11   0.08
  23   1    -0.18   0.19  -0.26     0.14  -0.07   0.11     0.18  -0.09   0.03
  24   1    -0.02  -0.03   0.19     0.03  -0.08   0.05     0.03  -0.06  -0.19
  25   1     0.21  -0.24  -0.03     0.11  -0.04   0.04    -0.10  -0.05  -0.12
  26   1     0.06   0.08  -0.18     0.10  -0.03   0.03     0.10  -0.02  -0.08
  27   1    -0.12   0.01  -0.01    -0.06   0.04  -0.02    -0.12  -0.03  -0.01
  28   1     0.03   0.12   0.06     0.07   0.13   0.07    -0.17  -0.08   0.03
  29   1     0.07  -0.06  -0.02     0.09  -0.03   0.03    -0.15   0.02  -0.12
                     13                     14                     15
                        a                      a                      a 
 Frequencies --   375.0895               396.1021               414.6833
 Red. masses --     7.7068                 7.6790                 7.4559
 Frc consts  --     0.0000                 0.0000                 0.0000
 IR Inten    --     0.5489                 0.1593                 1.2020
 Raman Activ --     0.0000                 0.0000                 0.0000
 Depolar     --     0.0000                 0.0000                 0.0000
 Atom AN      X      Y      Z        X      Y      Z        X      Y      Z
   1   6     0.07  -0.09  -0.22    -0.14  -0.23  -0.21     0.06  -0.04  -0.06
   2   6    -0.12  -0.02   0.06    -0.26  -0.16   0.05    -0.09   0.25  -0.05
   3   6     0.21   0.17   0.03     0.24   0.15  -0.04    -0.05   0.01   0.24
   4   6    -0.20   0.04   0.09    -0.17   0.06   0.24    -0.04  -0.10  -0.24
   5   6    -0.08  -0.20   0.08     0.00   0.08  -0.04    -0.15   0.08  -0.19
   6   6    -0.09  -0.20   0.09     0.09   0.21   0.01    -0.19   0.14   0.16
   7   6     0.20   0.12  -0.27    -0.05   0.05   0.23     0.08   0.26   0.15
   8   6    -0.12  -0.20  -0.04     0.23   0.08  -0.03     0.07  -0.22  -0.10
   9   6    -0.00   0.22   0.26    -0.01  -0.17  -0.14     0.14  -0.19   0.13
  10   1    -0.00  -0.10  -0.14    -0.05  -0.13  -0.11     0.04  -0.04  -0.02
  11   1     0.12   0.03  -0.08     0.05  -0.02  -0.07     0.09  -0.01   0.01
  12   1     0.01  -0.04  -0.07    -0.06  -0.08  -0.07    -0.03  -0.07  -0.06
  13   1    -0.03  -0.00   0.01    -0.10  -0.06   0.02     0.00   0.09  -0.01
  14   1     0.13   0.04  -0.09     0.18   0.01  -0.15     0.00  -0.06   0.09
  15   1     0.06   0.05   0.01     0.10   0.06  -0.03    -0.03   0.05   0.18
  16   1     0.10   0.12   0.10     0.10   0.17   0.11     0.01  -0.08   0.03
  17   1    -0.11   0.05  -0.03    -0.08   0.07  -0.00     0.05  -0.14   0.07
  18   1    -0.05   0.07   0.10    -0.06   0.06   0.14     0.02  -0.12  -0.22
  19   1     0.01  -0.03   0.01     0.06   0.11  -0.08    -0.09   0.08  -0.13
  20   1    -0.01  -0.08   0.01    -0.03  -0.08  -0.09     0.02  -0.05  -0.08
  21   1     0.05   0.19  -0.03    -0.05  -0.08   0.04     0.07   0.10   0.06
  22   1     0.09   0.07  -0.13    -0.01   0.02   0.07     0.04   0.12   0.08
  23   1     0.11  -0.04  -0.19    -0.03   0.04   0.16     0.07   0.02  -0.02
  24   1    -0.03  -0.05  -0.02     0.04  -0.01  -0.00    -0.02  -0.15  -0.06
  25   1    -0.06  -0.07  -0.02     0.07  -0.01  -0.01     0.00  -0.14  -0.06
  26   1    -0.01  -0.04  -0.02     0.11   0.04  -0.02     0.17  -0.01  -0.06
  27   1     0.01   0.15  -0.04    -0.04  -0.13   0.05     0.07  -0.12   0.13
  28   1     0.01   0.12   0.12    -0.01  -0.08  -0.06     0.09  -0.06  -0.09
  29   1     0.00   0.07   0.18     0.01  -0.08  -0.16     0.07  -0.09   0.04
                     16                     17                     18
                        a                      a                      a 
 Frequencies --   426.5927               455.6770               545.3934
 Red. masses --     6.8983                 7.5860                 8.1740
 Frc consts  --     0.0000                 0.0000                 0.0000
 IR Inten    --     0.7847                 0.5755                 2.7749
 Raman Activ --     0.0000                 0.0000                 0.0000
 Depolar     --     0.0000                 0.0000                 0.0000
 Atom AN      X      Y      Z        X      Y      Z        X      Y      Z
   1   6     0.01  -0.10  -0.10     0.11   0.19   0.04     0.20   0.14   0.02
   2   6    -0.15   0.16  -0.03     0.22  -0.26   0.16     0.12   0.03   0.07
   3   6     0.08   0.10   0.18    -0.02  -0.04  -0.21    -0.01   0.04   0.03
   4   6    -0.05  -0.07  -0.11    -0.17   0.03   0.09    -0.31  -0.11  -0.27
   5   6    -0.21   0.06   0.13    -0.24   0.17  -0.09    -0.21  -0.42   0.01
   6   6    -0.01   0.01  -0.29    -0.25   0.08  -0.12     0.19   0.09   0.06
   7   6     0.03  -0.23  -0.00     0.15   0.01   0.11    -0.05   0.09   0.07
   8   6     0.05  -0.05   0.27    -0.06  -0.23   0.10     0.28   0.13  -0.00
   9   6     0.14   0.19  -0.25     0.17   0.01  -0.10    -0.07  -0.03  -0.00
  10   1     0.02  -0.07  -0.05    -0.05   0.09  -0.04     0.01   0.02  -0.05
  11   1     0.10  -0.01  -0.01    -0.05   0.07  -0.04     0.07   0.07  -0.02
  12   1    -0.04  -0.09  -0.07     0.14   0.17   0.06     0.10   0.08   0.01
  13   1    -0.03   0.06  -0.00     0.07  -0.07   0.04     0.07   0.03   0.01
  14   1     0.07  -0.01   0.00    -0.07   0.08  -0.04    -0.05   0.05   0.05
  15   1    -0.02   0.05   0.14     0.01  -0.08  -0.21    -0.03  -0.01  -0.01
  16   1     0.09  -0.01   0.09    -0.05   0.06  -0.06    -0.01  -0.02  -0.02
  17   1     0.06  -0.08   0.06    -0.06   0.08  -0.05    -0.24   0.02  -0.19
  18   1     0.01  -0.08  -0.14    -0.14   0.00   0.13    -0.08   0.09   0.09
  19   1    -0.10  -0.15   0.18    -0.05   0.05  -0.02    -0.17  -0.23   0.07
  20   1    -0.11   0.21   0.14    -0.08   0.04  -0.03    -0.07   0.03   0.09
  21   1     0.04  -0.17  -0.03     0.08  -0.06   0.02    -0.07   0.02   0.01
  22   1    -0.00  -0.04   0.08     0.08   0.12   0.12    -0.03  -0.04  -0.05
  23   1     0.00  -0.05   0.06     0.12  -0.08   0.04    -0.07   0.09   0.07
  24   1    -0.05  -0.06   0.17    -0.09  -0.16   0.07     0.06   0.01  -0.01
  25   1     0.17   0.06   0.13     0.08  -0.07   0.05     0.08   0.02  -0.01
  26   1    -0.05  -0.06   0.12     0.05  -0.06   0.04     0.11   0.05  -0.00
  27   1     0.02   0.08  -0.11     0.09  -0.02   0.01    -0.05  -0.03   0.02
  28   1     0.07   0.12  -0.06     0.11   0.04  -0.14    -0.07  -0.06   0.05
  29   1     0.07   0.03  -0.00     0.10  -0.04   0.07    -0.05   0.01  -0.10
                     19                     20                     21
                        a                      a                      a 
 Frequencies --   752.3603               807.7996               885.5507
 Red. masses --     9.1192                 7.3436                 5.8728
 Frc consts  --     0.0000                 0.0000                 0.0000
 IR Inten    --     0.3024                 4.3328                 2.6341
 Raman Activ --     0.0000                 0.0000                 0.0000
 Depolar     --     0.0000                 0.0000                 0.0000
 Atom AN      X      Y      Z        X      Y      Z        X      Y      Z
   1   6     0.01  -0.00   0.01    -0.20  -0.16  -0.07     0.03   0.09  -0.04
   2   6    -0.00  -0.08   0.08     0.04  -0.21   0.18     0.00   0.12  -0.12
   3   6     0.00  -0.02   0.00    -0.07   0.17   0.26     0.01   0.05  -0.11
   4   6    -0.22   0.07  -0.10     0.22  -0.05  -0.28     0.23  -0.23   0.22
   5   6    -0.20   0.38  -0.12     0.25   0.18  -0.27    -0.06  -0.01  -0.10
   6   6     0.09  -0.06   0.04     0.00  -0.00  -0.01    -0.19   0.14  -0.08
   7   6     0.08  -0.33  -0.24     0.01   0.04   0.04    -0.00  -0.16  -0.18
   8   6     0.27   0.20  -0.00    -0.08  -0.06  -0.00     0.10   0.15  -0.02
   9   6    -0.05  -0.13   0.38    -0.02  -0.03   0.09    -0.10  -0.03   0.24
  10   1    -0.06  -0.00  -0.05    -0.14  -0.06  -0.10     0.16   0.02   0.12
  11   1     0.00   0.02  -0.02    -0.06  -0.00  -0.06     0.02  -0.04   0.06
  12   1     0.06   0.05   0.01     0.02   0.03  -0.01    -0.14  -0.11  -0.03
  13   1     0.05  -0.00  -0.01    -0.04  -0.07   0.08    -0.17  -0.01   0.10
  14   1     0.00   0.02  -0.02    -0.05   0.11   0.07     0.01  -0.08   0.02
  15   1     0.02  -0.02  -0.06    -0.01   0.01  -0.01    -0.07   0.08   0.17
  16   1    -0.02   0.05   0.02    -0.05   0.11   0.09     0.07  -0.17  -0.08
  17   1     0.08  -0.06   0.10    -0.09   0.09  -0.24    -0.13   0.10  -0.18
  18   1    -0.13  -0.14  -0.17    -0.02   0.08   0.14     0.01   0.11   0.35
  19   1    -0.04   0.10  -0.03    -0.10  -0.21   0.12    -0.11  -0.05  -0.01
  20   1    -0.05   0.10  -0.03     0.06   0.35   0.12    -0.10   0.05  -0.02
  21   1     0.02  -0.07  -0.06    -0.02   0.04   0.02     0.05  -0.13  -0.07
  22   1     0.02  -0.12  -0.09     0.01   0.00  -0.02     0.01   0.04   0.05
  23   1     0.01  -0.09  -0.08    -0.01   0.02   0.00     0.05  -0.10  -0.04
  24   1     0.12   0.12  -0.01     0.01   0.02  -0.02    -0.04  -0.06   0.01
  25   1     0.04   0.06  -0.01    -0.06  -0.02  -0.01     0.09   0.03   0.01
  26   1     0.03   0.05  -0.01    -0.05  -0.02  -0.01     0.12   0.05   0.01
  27   1    -0.02  -0.02   0.09     0.02  -0.02   0.05     0.03  -0.06   0.15
  28   1    -0.03  -0.04   0.15     0.02   0.01  -0.03     0.04   0.01  -0.08
  29   1    -0.03  -0.02   0.10     0.02  -0.03   0.06     0.03  -0.07   0.13
                     22                     23                     24
                        a                      a                      a 
 Frequencies --   918.7423               945.4555               948.7794
 Red. masses --     6.8107                 2.8695                 5.5507
 Frc consts  --     0.0000                 0.0000                 0.0000
 IR Inten    --     1.6138                 2.5836                 6.0853
 Raman Activ --     0.0000                 0.0000                 0.0000
 Depolar     --     0.0000                 0.0000                 0.0000
 Atom AN      X      Y      Z        X      Y      Z        X      Y      Z
   1   6    -0.14  -0.18  -0.11     0.21  -0.14   0.03     0.04   0.01   0.05
   2   6     0.20  -0.11  -0.04    -0.08  -0.10  -0.07    -0.10   0.01   0.06
   3   6    -0.02   0.22   0.27    -0.24   0.08  -0.09    -0.04  -0.15  -0.03
   4   6     0.13   0.03  -0.16     0.00  -0.03  -0.04    -0.01   0.15   0.04
   5   6    -0.11  -0.14   0.31     0.01   0.04   0.03     0.20  -0.22  -0.08
   6   6    -0.18   0.04   0.03     0.02  -0.01   0.02    -0.25  -0.06  -0.09
   7   6    -0.08  -0.10  -0.13     0.01  -0.01   0.01    -0.12   0.07   0.02
   8   6     0.12   0.17  -0.00     0.00  -0.02   0.02     0.22   0.21   0.02
   9   6    -0.03  -0.00  -0.07    -0.02   0.01  -0.04    -0.23  -0.08  -0.02
  10   1    -0.11   0.00  -0.05    -0.07   0.13   0.02    -0.02  -0.00  -0.02
  11   1    -0.17  -0.04  -0.10    -0.30  -0.02  -0.15     0.03   0.02   0.00
  12   1     0.06   0.07   0.04     0.27   0.27   0.21     0.04   0.03   0.01
  13   1     0.12   0.01  -0.04     0.07   0.19   0.23     0.09   0.03  -0.08
  14   1    -0.11   0.17   0.16     0.22  -0.31  -0.22     0.08  -0.04  -0.13
  15   1    -0.04  -0.00  -0.00    -0.01   0.25   0.34     0.08  -0.04  -0.12
  16   1    -0.05   0.03   0.01     0.11   0.01   0.14    -0.03   0.15   0.11
  17   1     0.12   0.10  -0.10     0.01   0.03  -0.05    -0.02  -0.10   0.15
  18   1     0.07   0.06  -0.00    -0.01   0.01   0.02     0.10   0.02  -0.15
  19   1     0.00   0.20  -0.14     0.01   0.03  -0.01     0.09  -0.18   0.12
  20   1     0.09  -0.31  -0.05     0.01  -0.00  -0.00     0.04   0.09   0.07
  21   1     0.08  -0.10  -0.05    -0.01   0.02   0.01     0.04  -0.01   0.00
  22   1     0.01   0.11   0.10     0.00  -0.01  -0.01    -0.01   0.14   0.11
  23   1     0.08  -0.13  -0.05    -0.00   0.00  -0.01     0.05  -0.08  -0.03
  24   1    -0.02  -0.05   0.00     0.03   0.03  -0.01     0.06   0.03  -0.03
  25   1     0.09   0.02   0.00    -0.04  -0.02  -0.01     0.04   0.01  -0.02
  26   1     0.13   0.06   0.01    -0.01   0.00  -0.01     0.14   0.09  -0.02
  27   1     0.01   0.03  -0.05     0.01   0.01  -0.01     0.12   0.04  -0.03
  28   1     0.01   0.02  -0.03    -0.00  -0.00  -0.02     0.12   0.13  -0.24
  29   1    -0.01   0.01   0.04     0.00  -0.00   0.00     0.05  -0.10   0.39
                     25                     26                     27
                        a                      a                      a 
 Frequencies --   960.1694               962.6592               966.1689
 Red. masses --     4.3781                 3.7334                 4.9972
 Frc consts  --     0.0000                 0.0000                 0.0000
 IR Inten    --     0.1779                 0.3719                 0.7078
 Raman Activ --     0.0000                 0.0000                 0.0000
 Depolar     --     0.0000                 0.0000                 0.0000
 Atom AN      X      Y      Z        X      Y      Z        X      Y      Z
   1   6    -0.02   0.04   0.03    -0.05   0.01  -0.01    -0.01   0.00  -0.00
   2   6    -0.01   0.01   0.01     0.04   0.02  -0.01    -0.00   0.00   0.01
   3   6     0.03   0.02  -0.05     0.06   0.06  -0.05     0.01  -0.02   0.01
   4   6    -0.02  -0.08  -0.03    -0.03  -0.11   0.00     0.01   0.03   0.00
   5   6    -0.03   0.10   0.02    -0.08   0.15   0.02     0.00  -0.01   0.01
   6   6    -0.07  -0.17   0.14     0.06  -0.14   0.06    -0.03   0.12   0.24
   7   6    -0.18  -0.14   0.20     0.05   0.14   0.00     0.19  -0.30  -0.05
   8   6     0.27  -0.04   0.00     0.09  -0.04   0.21    -0.12   0.08   0.23
   9   6    -0.01   0.12  -0.21    -0.05  -0.21  -0.20    -0.07   0.22  -0.20
  10   1    -0.00  -0.03  -0.02    -0.00  -0.02  -0.01    -0.00  -0.00  -0.00
  11   1     0.07   0.02   0.03     0.04   0.01   0.02     0.01   0.00   0.00
  12   1    -0.03  -0.03  -0.03    -0.04  -0.03  -0.03    -0.01  -0.01  -0.01
  13   1    -0.06  -0.01   0.04    -0.05   0.00   0.06     0.01  -0.00  -0.02
  14   1    -0.02  -0.01   0.04    -0.05   0.01   0.08    -0.00   0.02  -0.00
  15   1    -0.03   0.01   0.04    -0.06   0.02   0.08     0.01  -0.02  -0.03
  16   1     0.02  -0.08  -0.06     0.03  -0.14  -0.10    -0.01   0.02   0.01
  17   1    -0.02   0.03  -0.07    -0.01   0.04  -0.07     0.00  -0.01   0.02
  18   1    -0.05  -0.00   0.07    -0.08  -0.02   0.09     0.02   0.00  -0.03
  19   1    -0.05   0.05  -0.03    -0.05   0.08  -0.04    -0.01  -0.01   0.00
  20   1     0.01  -0.00  -0.01    -0.03  -0.01  -0.03     0.00   0.01   0.01
  21   1     0.01   0.38   0.17    -0.01  -0.13  -0.05    -0.10   0.10   0.02
  22   1     0.08   0.14  -0.05    -0.03  -0.02   0.05     0.02  -0.29  -0.27
  23   1     0.14  -0.27  -0.32    -0.06   0.13   0.16    -0.07   0.04  -0.06
  24   1     0.23   0.28   0.01     0.21   0.18  -0.12    -0.02  -0.09  -0.11
  25   1    -0.04   0.11   0.01    -0.31  -0.18  -0.07    -0.22  -0.26  -0.07
  26   1    -0.22  -0.06  -0.01     0.06   0.11  -0.11     0.31   0.19  -0.09
  27   1     0.02  -0.03   0.03     0.09   0.22  -0.37     0.04  -0.09   0.16
  28   1     0.04   0.02  -0.18     0.04   0.13   0.05     0.08   0.04  -0.32
  29   1     0.04  -0.01  -0.09    -0.03   0.01   0.34     0.08  -0.05  -0.08
                     28                     29                     30
                        a                      a                      a 
 Frequencies --   980.1796               989.9225              1036.6510
 Red. masses --     5.2614                 4.8389                 4.0508
 Frc consts  --     0.0000                 0.0000                 0.0000
 IR Inten    --     1.2714                 0.4480                 0.0542
 Raman Activ --     0.0000                 0.0000                 0.0000
 Depolar     --     0.0000                 0.0000                 0.0000
 Atom AN      X      Y      Z        X      Y      Z        X      Y      Z
   1   6     0.06  -0.06  -0.34     0.23   0.23   0.02    -0.01  -0.05  -0.03
   2   6     0.22   0.00  -0.15    -0.17  -0.14  -0.05     0.01   0.06  -0.01
   3   6    -0.03   0.13   0.20    -0.22  -0.11   0.18     0.03  -0.02   0.01
   4   6    -0.07   0.03   0.24     0.10  -0.07  -0.19    -0.07  -0.01   0.04
   5   6    -0.11  -0.05  -0.15    -0.05   0.07   0.09     0.06  -0.07   0.03
   6   6     0.05  -0.07  -0.03    -0.01   0.01   0.09     0.08   0.15   0.01
   7   6     0.03   0.04   0.12    -0.04  -0.04  -0.07    -0.07   0.07  -0.26
   8   6     0.06  -0.04  -0.00     0.01  -0.01   0.06     0.05  -0.26   0.15
   9   6    -0.04  -0.02   0.00     0.09  -0.01  -0.07    -0.04   0.20   0.10
  10   1     0.28   0.19   0.28     0.26   0.06   0.18    -0.02   0.01  -0.01
  11   1    -0.40  -0.20  -0.08     0.08  -0.03   0.10    -0.06  -0.01  -0.03
  12   1    -0.15  -0.04   0.09    -0.13  -0.11  -0.01     0.03   0.03   0.02
  13   1     0.06  -0.04  -0.11    -0.14  -0.16  -0.10     0.08   0.04  -0.06
  14   1    -0.05   0.11   0.06     0.12  -0.04  -0.21    -0.02   0.03   0.01
  15   1     0.01  -0.01  -0.05     0.12  -0.02  -0.14     0.01  -0.03  -0.05
  16   1    -0.05   0.10   0.06    -0.09   0.36   0.28    -0.01   0.01  -0.01
  17   1    -0.02  -0.07   0.14    -0.02   0.06  -0.15    -0.08  -0.07   0.06
  18   1    -0.06  -0.08  -0.01     0.02   0.05   0.06     0.06   0.03  -0.03
  19   1     0.01  -0.09   0.05    -0.11   0.09  -0.09    -0.04  -0.02  -0.01
  20   1    -0.12   0.08  -0.02     0.07  -0.06   0.01    -0.04  -0.01  -0.01
  21   1    -0.05   0.12   0.06     0.04  -0.07  -0.03     0.12  -0.33  -0.15
  22   1     0.00  -0.07  -0.08     0.00   0.07   0.07    -0.04   0.16   0.23
  23   1    -0.04   0.05  -0.01     0.04  -0.06  -0.01     0.05  -0.04   0.10
  24   1     0.06   0.07   0.00     0.05   0.04  -0.03     0.24   0.27  -0.05
  25   1    -0.01   0.02   0.00    -0.08  -0.05  -0.02    -0.29  -0.08  -0.04
  26   1    -0.07  -0.03  -0.00     0.02   0.03  -0.03    -0.21  -0.04  -0.07
  27   1     0.02   0.00  -0.00    -0.02   0.05  -0.10    -0.02  -0.15   0.28
  28   1     0.02   0.02  -0.04    -0.02  -0.00   0.10     0.02  -0.04  -0.16
  29   1     0.01  -0.02   0.07    -0.03   0.05  -0.07     0.05  -0.04  -0.15
                     31                     32                     33
                        a                      a                      a 
 Frequencies --  1045.7996              1092.3361              1123.8731
 Red. masses --     4.2579                 6.1652                 5.9930
 Frc consts  --     0.0000                 0.0000                 0.0000
 IR Inten    --     1.4537                 7.1429                 7.8862
 Raman Activ --     0.0000                 0.0000                 0.0000
 Depolar     --     0.0000                 0.0000                 0.0000
 Atom AN      X      Y      Z        X      Y      Z        X      Y      Z
   1   6     0.03   0.07   0.08     0.11   0.12  -0.07    -0.00  -0.06  -0.14
   2   6    -0.05  -0.08  -0.07    -0.01  -0.22   0.01    -0.01   0.23   0.16
   3   6    -0.06   0.03   0.07     0.02   0.15  -0.01     0.09  -0.15  -0.05
   4   6     0.07  -0.04  -0.11    -0.37  -0.10  -0.20    -0.16  -0.23  -0.08
   5   6    -0.12   0.01   0.17     0.35   0.06   0.16     0.23   0.23   0.22
   6   6     0.05  -0.00  -0.11    -0.01  -0.06  -0.01     0.01   0.07   0.15
   7   6     0.22   0.08   0.05    -0.06   0.05  -0.05     0.07  -0.06  -0.04
   8   6     0.08  -0.14  -0.16    -0.05   0.07  -0.01    -0.05  -0.01  -0.14
   9   6    -0.26   0.04   0.06    -0.05   0.08   0.02    -0.08  -0.03  -0.09
  10   1    -0.00  -0.03  -0.02     0.17   0.05   0.12     0.04   0.06   0.05
  11   1     0.11   0.04   0.04    -0.01  -0.05   0.05    -0.16  -0.06  -0.05
  12   1     0.01  -0.02  -0.03    -0.10  -0.07  -0.00    -0.03   0.01   0.04
  13   1    -0.02  -0.04  -0.03    -0.17  -0.12   0.10     0.08   0.12   0.04
  14   1     0.01   0.00  -0.02    -0.05   0.01   0.10     0.00   0.01  -0.02
  15   1     0.01   0.01  -0.00    -0.08   0.06   0.13     0.04  -0.09  -0.12
  16   1    -0.02   0.06   0.05     0.04  -0.14  -0.09    -0.02   0.02  -0.02
  17   1     0.13   0.11  -0.11     0.08   0.01  -0.03    -0.41  -0.21   0.01
  18   1     0.01   0.02   0.02    -0.27  -0.19  -0.06     0.05   0.07   0.05
  19   1     0.07   0.13  -0.04     0.35   0.02   0.13    -0.22   0.13  -0.11
  20   1    -0.06  -0.14  -0.07     0.14  -0.01   0.05     0.24  -0.02   0.08
  21   1    -0.10  -0.01  -0.01     0.04  -0.07  -0.03    -0.01  -0.04  -0.02
  22   1    -0.02  -0.22  -0.15    -0.01   0.08   0.08     0.00  -0.05  -0.02
  23   1    -0.14   0.25   0.16     0.02  -0.02   0.03    -0.01   0.02   0.01
  24   1     0.05   0.11   0.07    -0.06  -0.07  -0.00    -0.08  -0.05   0.05
  25   1     0.11   0.17   0.04     0.03  -0.02  -0.00     0.13   0.10   0.03
  26   1    -0.27  -0.15   0.05     0.08   0.03   0.01    -0.07  -0.07   0.06
  27   1     0.09  -0.07   0.17     0.01  -0.05   0.10     0.04   0.04  -0.06
  28   1     0.11   0.09  -0.31     0.03   0.01  -0.10     0.03   0.05  -0.07
  29   1     0.07  -0.12   0.24     0.03  -0.03  -0.02     0.01  -0.02   0.11
                     34                     35                     36
                        a                      a                      a 
 Frequencies --  1143.3469              1178.1924              1198.3634
 Red. masses --     7.3559                 6.3441                 5.7803
 Frc consts  --     0.0000                 0.0000                 0.0000
 IR Inten    --     2.2923                17.2800                 5.0821
 Raman Activ --     0.0000                 0.0000                 0.0000
 Depolar     --     0.0000                 0.0000                 0.0000
 Atom AN      X      Y      Z        X      Y      Z        X      Y      Z
   1   6    -0.20   0.04  -0.18    -0.26   0.05  -0.04     0.08  -0.10  -0.09
   2   6     0.27   0.04   0.41     0.43   0.17  -0.02    -0.22   0.29   0.16
   3   6    -0.05  -0.11  -0.15    -0.21  -0.07   0.01     0.17  -0.24   0.03
   4   6     0.14   0.30  -0.13    -0.10  -0.24  -0.02     0.08  -0.09  -0.18
   5   6    -0.16  -0.16  -0.03     0.05   0.07   0.11    -0.09   0.03   0.06
   6   6    -0.09  -0.08   0.08     0.16   0.03  -0.14    -0.01  -0.09  -0.25
   7   6     0.05   0.05  -0.05    -0.07  -0.01   0.05    -0.02   0.03   0.08
   8   6     0.08  -0.00  -0.02    -0.07   0.00   0.05     0.01   0.03   0.10
   9   6     0.01   0.06  -0.03    -0.03  -0.01   0.04     0.02   0.02   0.10
  10   1     0.07  -0.01   0.05    -0.06  -0.10  -0.08     0.01   0.09   0.06
  11   1    -0.04  -0.07   0.04     0.11   0.03   0.04    -0.17  -0.05  -0.07
  12   1    -0.22  -0.14  -0.07    -0.13  -0.11  -0.14     0.03   0.07   0.10
  13   1    -0.12   0.03   0.36     0.31   0.16  -0.06    -0.15   0.17   0.30
  14   1     0.10  -0.15  -0.11     0.13  -0.12  -0.19    -0.04   0.11   0.01
  15   1     0.03   0.04   0.05     0.09   0.08   0.02     0.07  -0.18  -0.24
  16   1     0.06  -0.01   0.04     0.00   0.14   0.16    -0.07   0.04  -0.04
  17   1     0.11   0.02   0.06    -0.03   0.01  -0.08     0.09   0.12  -0.16
  18   1    -0.12  -0.08  -0.06    -0.12  -0.06   0.11     0.02   0.05   0.05
  19   1    -0.11  -0.02  -0.05     0.24   0.06   0.07     0.32   0.06   0.08
  20   1     0.18  -0.05   0.08    -0.19  -0.02  -0.08    -0.18  -0.05  -0.09
  21   1    -0.01  -0.08  -0.04     0.02   0.07   0.03    -0.01   0.08   0.04
  22   1    -0.02  -0.03   0.02     0.02   0.06   0.01     0.01   0.03  -0.02
  23   1    -0.03   0.07   0.08     0.03  -0.06  -0.06    -0.01   0.02  -0.01
  24   1     0.04   0.05   0.01    -0.03  -0.05  -0.02     0.04   0.01  -0.04
  25   1     0.03   0.04   0.01    -0.05  -0.06  -0.01    -0.07  -0.07  -0.02
  26   1    -0.03  -0.02   0.01     0.05   0.03  -0.01     0.07   0.06  -0.04
  27   1    -0.01  -0.02   0.03     0.01  -0.02   0.04    -0.02  -0.03   0.06
  28   1    -0.01  -0.02  -0.03    -0.01  -0.01   0.02    -0.02  -0.04   0.04
  29   1     0.01  -0.00  -0.07     0.01  -0.02   0.05     0.00  -0.00  -0.04
                     37                     38                     39
                        a                      a                      a 
 Frequencies --  1225.3985              1255.8989              1280.7027
 Red. masses --     8.2044                 6.6274                 8.1055
 Frc consts  --     0.0000                 0.0000                 0.0000
 IR Inten    --    15.9980                11.3187                14.3521
 Raman Activ --     0.0000                 0.0000                 0.0000
 Depolar     --     0.0000                 0.0000                 0.0000
 Atom AN      X      Y      Z        X      Y      Z        X      Y      Z
   1   6     0.03   0.04  -0.06    -0.01   0.08  -0.06    -0.01  -0.01   0.00
   2   6    -0.07  -0.12   0.16     0.02  -0.22   0.21     0.01   0.09  -0.08
   3   6     0.05   0.02  -0.04    -0.03   0.11  -0.09     0.01  -0.07   0.04
   4   6     0.00   0.17  -0.10    -0.01   0.03  -0.12    -0.10  -0.05   0.02
   5   6    -0.02  -0.10   0.03     0.07   0.00   0.14     0.17  -0.16  -0.04
   6   6     0.52   0.39  -0.02    -0.28   0.21  -0.38    -0.32   0.55   0.22
   7   6    -0.16  -0.13   0.01     0.09  -0.07   0.11     0.09  -0.15  -0.06
   8   6    -0.18  -0.10  -0.01     0.08  -0.06   0.11     0.08  -0.14  -0.06
   9   6    -0.15  -0.13   0.01     0.09  -0.07   0.11     0.09  -0.15  -0.06
  10   1     0.07   0.03   0.05     0.08  -0.01   0.04    -0.01   0.01  -0.00
  11   1    -0.03  -0.04   0.02     0.00  -0.04   0.05     0.01   0.01  -0.01
  12   1    -0.06  -0.03   0.01    -0.08  -0.06  -0.02     0.01   0.01   0.00
  13   1    -0.05  -0.01   0.12     0.08  -0.08  -0.08    -0.00   0.10   0.10
  14   1    -0.01  -0.01   0.04     0.01  -0.08   0.03    -0.00   0.04  -0.02
  15   1    -0.03  -0.01   0.02    -0.06   0.07   0.12     0.04  -0.03  -0.05
  16   1     0.02  -0.06  -0.04     0.06  -0.09  -0.04    -0.02   0.05   0.02
  17   1     0.10   0.03   0.02    -0.23  -0.16   0.06     0.22   0.13  -0.04
  18   1     0.08   0.05  -0.10     0.33   0.21  -0.13    -0.14  -0.10   0.04
  19   1    -0.12   0.02  -0.07     0.10   0.06   0.00     0.18  -0.10   0.10
  20   1    -0.18  -0.02  -0.06    -0.04  -0.05  -0.03    -0.00   0.04   0.03
  21   1     0.08   0.08   0.04    -0.09   0.11   0.05    -0.02  -0.04  -0.03
  22   1     0.04   0.12  -0.00     0.02  -0.09  -0.11     0.01  -0.12  -0.11
  23   1     0.09  -0.18  -0.15    -0.05   0.06  -0.06    -0.00  -0.02  -0.06
  24   1    -0.10  -0.10   0.01     0.11   0.10  -0.04     0.06   0.11   0.06
  25   1    -0.05  -0.05  -0.01    -0.13  -0.03  -0.02    -0.05   0.11   0.02
  26   1    -0.05  -0.04   0.01    -0.03   0.04  -0.07    -0.17  -0.07  -0.00
  27   1     0.10   0.05  -0.05    -0.07  -0.01  -0.00    -0.03   0.08  -0.17
  28   1     0.05   0.09  -0.05    -0.05  -0.05   0.16    -0.01   0.04   0.14
  29   1     0.01  -0.05   0.25    -0.04   0.05  -0.01    -0.08   0.08   0.04
                     40                     41                     42
                        a                      a                      a 
 Frequencies --  1300.4349              1316.1914              1333.4083
 Red. masses --     4.4750                 4.6439                 4.3582
 Frc consts  --     0.0000                 0.0000                 0.0000
 IR Inten    --    17.5831                10.6784                 7.3931
 Raman Activ --     0.0000                 0.0000                 0.0000
 Depolar     --     0.0000                 0.0000                 0.0000
 Atom AN      X      Y      Z        X      Y      Z        X      Y      Z
   1   6    -0.04   0.15  -0.13    -0.03   0.07   0.00    -0.07   0.08   0.06
   2   6    -0.25  -0.23   0.16    -0.11  -0.10  -0.21     0.16  -0.23  -0.40
   3   6     0.06   0.02  -0.03     0.06  -0.04   0.06     0.04  -0.06   0.10
   4   6    -0.04  -0.12   0.03    -0.04   0.02   0.12    -0.05   0.09   0.01
   5   6    -0.02   0.06  -0.12     0.12  -0.06   0.07     0.03   0.05   0.02
   6   6    -0.03  -0.14   0.23     0.01   0.05  -0.42    -0.03  -0.06   0.12
   7   6     0.00   0.05  -0.06     0.01  -0.02   0.10     0.01  -0.00  -0.03
   8   6     0.01   0.03  -0.06    -0.00  -0.00   0.10     0.01   0.01  -0.03
   9   6     0.02   0.05  -0.08    -0.01   0.01   0.09     0.01   0.01  -0.02
  10   1     0.16   0.03   0.11     0.04   0.00   0.03     0.03  -0.07  -0.02
  11   1     0.06  -0.04   0.08     0.08   0.03   0.03     0.12   0.04   0.04
  12   1    -0.12  -0.05  -0.02    -0.01  -0.00  -0.03     0.01  -0.02  -0.07
  13   1     0.53   0.36   0.03     0.19   0.29   0.20    -0.17   0.20   0.56
  14   1    -0.03  -0.00   0.06    -0.05   0.07   0.05    -0.07   0.13   0.06
  15   1    -0.04  -0.02   0.02    -0.00  -0.04  -0.03     0.02  -0.01   0.02
  16   1     0.01  -0.05  -0.05    -0.04   0.07   0.02    -0.05   0.14   0.07
  17   1     0.21   0.16  -0.10     0.13   0.07   0.01    -0.24  -0.18   0.12
  18   1     0.23   0.14  -0.04    -0.23  -0.16   0.06     0.18   0.11  -0.11
  19   1     0.04  -0.04   0.04    -0.37   0.00  -0.15     0.04   0.01   0.02
  20   1    -0.09   0.06  -0.03     0.36  -0.05   0.13    -0.23   0.02  -0.09
  21   1     0.01  -0.07  -0.03    -0.03   0.11   0.05    -0.00  -0.01  -0.01
  22   1    -0.02  -0.01   0.03     0.03   0.02  -0.04    -0.01   0.01   0.03
  23   1     0.01   0.00   0.05    -0.04   0.03  -0.04    -0.00   0.01   0.03
  24   1    -0.03  -0.01   0.03     0.04  -0.00  -0.08    -0.02  -0.00   0.03
  25   1     0.06   0.03   0.01    -0.08  -0.07  -0.02     0.02   0.02   0.01
  26   1     0.01  -0.02   0.03     0.01   0.05  -0.05     0.01  -0.01   0.02
  27   1    -0.01  -0.00  -0.01    -0.02  -0.05   0.08     0.00   0.02  -0.03
  28   1    -0.03  -0.05  -0.00    -0.05  -0.06   0.06    -0.00  -0.01  -0.01
  29   1     0.02  -0.01  -0.03     0.02  -0.02   0.05     0.01  -0.00  -0.02
                     43                     44                     45
                        a                      a                      a 
 Frequencies --  1365.8287              1377.2506              1403.1715
 Red. masses --     4.6685                 4.4044                 3.2692
 Frc consts  --     0.0000                 0.0000                 0.0000
 IR Inten    --     1.7253                 0.9749                 0.4204
 Raman Activ --     0.0000                 0.0000                 0.0000
 Depolar     --     0.0000                 0.0000                 0.0000
 Atom AN      X      Y      Z        X      Y      Z        X      Y      Z
   1   6    -0.01  -0.04  -0.01     0.05   0.04  -0.00    -0.07  -0.04  -0.04
   2   6     0.12   0.11   0.07    -0.21  -0.08   0.05     0.00   0.02   0.02
   3   6    -0.03  -0.01  -0.01     0.05   0.01  -0.04     0.03  -0.08  -0.09
   4   6    -0.26  -0.04   0.01     0.33   0.22  -0.14    -0.00  -0.01  -0.02
   5   6     0.41  -0.00   0.10     0.16  -0.06   0.14    -0.01   0.02   0.01
   6   6    -0.14  -0.14  -0.04    -0.10  -0.03   0.06     0.01  -0.04  -0.06
   7   6     0.04   0.01   0.00     0.03   0.01  -0.01    -0.06   0.28   0.22
   8   6     0.04   0.05   0.01     0.06   0.03  -0.02     0.09   0.08   0.02
   9   6     0.03   0.01   0.07     0.03   0.01  -0.02    -0.03  -0.03   0.17
  10   1    -0.02   0.02   0.00    -0.01   0.01  -0.02     0.06   0.03   0.08
  11   1    -0.02   0.00  -0.02    -0.02  -0.02   0.02     0.10   0.02   0.02
  12   1     0.01   0.00   0.01    -0.04  -0.02   0.01     0.06   0.07   0.03
  13   1    -0.13  -0.10  -0.00     0.19   0.09  -0.09    -0.00  -0.01  -0.01
  14   1     0.03  -0.04  -0.03    -0.03   0.01   0.05    -0.09   0.07   0.08
  15   1     0.02  -0.01  -0.03    -0.05  -0.01   0.04    -0.02   0.06   0.13
  16   1     0.02  -0.01   0.02    -0.01   0.01  -0.02    -0.00   0.13   0.08
  17   1     0.31   0.17  -0.04    -0.27  -0.15   0.04     0.00  -0.01   0.01
  18   1     0.10   0.07  -0.09    -0.44  -0.30   0.09     0.00   0.02   0.03
  19   1    -0.46  -0.02  -0.16    -0.07   0.01  -0.03    -0.00  -0.01   0.01
  20   1    -0.42   0.03  -0.17    -0.43  -0.04  -0.18     0.04  -0.03  -0.00
  21   1    -0.02   0.03   0.01    -0.03  -0.02  -0.01     0.07  -0.40  -0.10
  22   1    -0.00  -0.01   0.01    -0.01  -0.02   0.02    -0.05  -0.28  -0.31
  23   1    -0.03   0.05   0.04    -0.00   0.01  -0.00     0.20  -0.23  -0.28
  24   1    -0.02  -0.04   0.00    -0.03  -0.03   0.04    -0.07  -0.13  -0.01
  25   1    -0.01  -0.00  -0.01    -0.03   0.01  -0.01    -0.09  -0.09  -0.05
  26   1    -0.00   0.01  -0.01    -0.03  -0.01   0.01    -0.14  -0.04   0.02
  27   1    -0.02   0.04  -0.05    -0.03  -0.00  -0.01     0.01   0.12  -0.15
  28   1     0.02  -0.02  -0.06    -0.01  -0.03   0.01     0.08   0.01  -0.18
  29   1    -0.01   0.01  -0.11    -0.00   0.01  -0.01    -0.02  -0.00  -0.18
                     46                     47                     48
                        a                      a                      a 
 Frequencies --  1404.8483              1406.5955              1418.8887
 Red. masses --     3.2977                 3.2424                 3.0770
 Frc consts  --     0.0000                 0.0000                 0.0000
 IR Inten    --     1.1774                 0.7757                 1.0008
 Raman Activ --     0.0000                 0.0000                 0.0000
 Depolar     --     0.0000                 0.0000                 0.0000
 Atom AN      X      Y      Z        X      Y      Z        X      Y      Z
   1   6    -0.17  -0.12  -0.11    -0.07  -0.07  -0.04    -0.27  -0.13  -0.14
   2   6     0.00   0.06   0.08     0.03   0.05   0.03     0.02  -0.01  -0.02
   3   6     0.07  -0.18  -0.22     0.02  -0.09  -0.09    -0.08   0.17   0.18
   4   6     0.01  -0.01  -0.03    -0.03  -0.02  -0.01     0.04   0.03  -0.00
   5   6    -0.00  -0.00   0.01     0.01   0.02  -0.01    -0.00  -0.02   0.02
   6   6     0.02   0.03  -0.00    -0.03  -0.03   0.04    -0.01   0.01   0.00
   7   6     0.01  -0.11  -0.08     0.01  -0.01  -0.03     0.01  -0.01  -0.00
   8   6    -0.13  -0.11   0.00     0.21   0.17  -0.02     0.02   0.01  -0.00
   9   6    -0.01  -0.04   0.06     0.06   0.09  -0.28    -0.01  -0.01   0.02
  10   1     0.15   0.09   0.20     0.06   0.04   0.09     0.26   0.09   0.29
  11   1     0.26   0.05   0.04     0.11   0.03   0.01     0.39   0.07   0.08
  12   1     0.17   0.20   0.10     0.09   0.10   0.05     0.27   0.30   0.11
  13   1     0.00  -0.05  -0.09    -0.07  -0.07  -0.04    -0.01  -0.00   0.03
  14   1    -0.21   0.17   0.17    -0.09   0.08   0.06     0.19  -0.17  -0.16
  15   1    -0.03   0.15   0.32    -0.01   0.07   0.14     0.05  -0.12  -0.29
  16   1    -0.01   0.28   0.17    -0.00   0.12   0.07     0.03  -0.27  -0.15
  17   1     0.02   0.00  -0.00     0.04   0.01   0.00    -0.09  -0.02  -0.01
  18   1    -0.03  -0.01   0.02     0.03   0.03   0.00    -0.05  -0.05  -0.03
  19   1     0.01  -0.01   0.01    -0.00  -0.02   0.02     0.02   0.02  -0.01
  20   1    -0.02  -0.02  -0.02    -0.00  -0.02  -0.02    -0.03   0.02   0.01
  21   1    -0.01   0.16   0.04    -0.01   0.03   0.00    -0.01   0.01   0.00
  22   1     0.02   0.11   0.11    -0.01   0.00   0.04     0.00   0.01   0.01
  23   1    -0.07   0.08   0.11    -0.00   0.01   0.04    -0.01   0.01  -0.00
  24   1     0.10   0.16  -0.02    -0.17  -0.26   0.06    -0.02  -0.03   0.01
  25   1     0.14   0.11   0.07    -0.24  -0.18  -0.12    -0.03  -0.01  -0.01
  26   1     0.19   0.07  -0.05    -0.29  -0.11   0.09    -0.03  -0.01   0.01
  27   1    -0.02   0.04  -0.06    -0.05  -0.23   0.27     0.02   0.03  -0.03
  28   1     0.05   0.03  -0.08    -0.15  -0.05   0.29     0.01   0.01  -0.02
  29   1    -0.04   0.03  -0.07     0.05   0.01   0.34     0.00  -0.01  -0.04
                     49                     50                     51
                        a                      a                      a 
 Frequencies --  1429.5497              1479.8602              1484.7576
 Red. masses --     2.9931                 1.7888                 1.7853
 Frc consts  --     0.0000                 0.0000                 0.0000
 IR Inten    --     1.9670                 1.6930                 0.1260
 Raman Activ --     0.0000                 0.0000                 0.0000
 Depolar     --     0.0000                 0.0000                 0.0000
 Atom AN      X      Y      Z        X      Y      Z        X      Y      Z
   1   6    -0.02  -0.02  -0.01     0.01  -0.00  -0.00     0.02   0.02  -0.03
   2   6     0.01   0.01  -0.00     0.01   0.01   0.00     0.01   0.01   0.01
   3   6    -0.01   0.01   0.02    -0.03   0.03  -0.05    -0.04  -0.07   0.01
   4   6    -0.02   0.02  -0.02     0.03   0.01   0.13     0.03  -0.00   0.18
   5   6     0.06   0.02   0.02     0.00   0.19  -0.01    -0.00  -0.12   0.02
   6   6    -0.01  -0.03   0.01     0.00   0.02   0.02     0.01  -0.01   0.00
   7   6    -0.04   0.17   0.12     0.02  -0.05   0.03     0.03  -0.02   0.08
   8   6    -0.20  -0.15   0.00     0.02  -0.01   0.02    -0.03   0.02  -0.06
   9   6     0.04   0.08  -0.24    -0.07  -0.00   0.00     0.05   0.02  -0.00
  10   1     0.02   0.01   0.03    -0.03   0.02  -0.01    -0.04  -0.03  -0.06
  11   1     0.03   0.01   0.00     0.01  -0.00   0.00     0.01  -0.09   0.09
  12   1     0.03   0.03   0.02    -0.03  -0.01   0.02    -0.04   0.04   0.10
  13   1    -0.05  -0.03   0.01    -0.01  -0.00   0.01    -0.02  -0.02  -0.00
  14   1     0.02  -0.02  -0.02    -0.06  -0.11   0.15    -0.04   0.20  -0.09
  15   1     0.00  -0.01  -0.03     0.03  -0.03  -0.09     0.17   0.14   0.06
  16   1     0.00  -0.02  -0.01     0.15   0.00   0.15     0.01  -0.08  -0.04
  17   1     0.02   0.00   0.01    -0.17   0.17  -0.24    -0.20   0.22  -0.29
  18   1    -0.01   0.00   0.00     0.05  -0.17  -0.30     0.05  -0.21  -0.36
  19   1    -0.09  -0.05   0.02    -0.09  -0.34   0.30     0.05   0.20  -0.18
  20   1    -0.08  -0.06  -0.07     0.08  -0.40  -0.22    -0.04   0.24   0.14
  21   1     0.05  -0.24  -0.06    -0.05  -0.07  -0.02    -0.10  -0.16  -0.05
  22   1    -0.03  -0.17  -0.19     0.08   0.14  -0.01     0.09   0.15  -0.03
  23   1     0.12  -0.14  -0.15    -0.11   0.10  -0.13    -0.12   0.11  -0.23
  24   1     0.16   0.26  -0.04    -0.02  -0.06  -0.03     0.01   0.12   0.11
  25   1     0.23   0.18   0.11    -0.02   0.06   0.01    -0.01  -0.11  -0.04
  26   1     0.30   0.11  -0.08    -0.05   0.04  -0.07     0.11  -0.09   0.17
  27   1    -0.01  -0.20   0.25     0.19   0.05  -0.00    -0.15  -0.03  -0.02
  28   1    -0.14  -0.04   0.28    -0.02   0.04   0.09    -0.01  -0.08  -0.07
  29   1     0.05  -0.01   0.29     0.07  -0.10  -0.09    -0.02   0.04   0.09
                     52                     53                     54
                        a                      a                      a 
 Frequencies --  1492.0450              1493.7835              1497.8980
 Red. masses --     1.6161                 1.6141                 1.5649
 Frc consts  --     0.0000                 0.0000                 0.0000
 IR Inten    --     0.1860                 0.1448                 0.1240
 Raman Activ --     0.0000                 0.0000                 0.0000
 Depolar     --     0.0000                 0.0000                 0.0000
 Atom AN      X      Y      Z        X      Y      Z        X      Y      Z
   1   6    -0.04  -0.02   0.06     0.01  -0.03   0.02    -0.02  -0.06   0.09
   2   6     0.03   0.03   0.02    -0.01  -0.00  -0.01    -0.00  -0.00   0.01
   3   6     0.13   0.03  -0.01    -0.03   0.02  -0.02     0.02   0.07  -0.04
   4   6    -0.01  -0.01   0.02     0.00   0.00  -0.02     0.00   0.00  -0.02
   5   6     0.00  -0.07   0.00    -0.01   0.03  -0.00    -0.00   0.03   0.00
   6   6    -0.01   0.00   0.01    -0.00  -0.01  -0.00     0.01   0.02  -0.01
   7   6     0.05  -0.02   0.04    -0.13  -0.06   0.03     0.03  -0.01   0.02
   8   6     0.03  -0.04  -0.04     0.06  -0.06  -0.07    -0.09   0.10  -0.07
   9   6    -0.09   0.08  -0.00     0.07   0.10   0.04     0.07  -0.03   0.01
  10   1     0.09  -0.02   0.07    -0.02   0.07   0.04     0.06   0.12   0.14
  11   1    -0.06   0.10  -0.12     0.01   0.07  -0.07    -0.04   0.25  -0.26
  12   1     0.11  -0.03  -0.18    -0.01  -0.03  -0.03     0.06  -0.12  -0.27
  13   1    -0.02  -0.03  -0.03    -0.01  -0.01  -0.00     0.01   0.02   0.02
  14   1     0.09  -0.18   0.00    -0.03  -0.05   0.07    -0.00  -0.21   0.15
  15   1    -0.38  -0.18   0.11     0.04  -0.01  -0.06    -0.13  -0.12  -0.08
  16   1    -0.24   0.24  -0.08     0.09  -0.03   0.07     0.06   0.07   0.10
  17   1    -0.01   0.03  -0.04     0.01  -0.04   0.05     0.02  -0.01   0.01
  18   1     0.01  -0.03  -0.05    -0.01   0.03   0.05    -0.00   0.01   0.02
  19   1     0.06   0.12  -0.10    -0.01  -0.04   0.04    -0.01  -0.06   0.06
  20   1    -0.02   0.15   0.08     0.03  -0.04  -0.02     0.01  -0.08  -0.04
  21   1    -0.14  -0.09  -0.03     0.43  -0.02   0.04    -0.09  -0.04  -0.02
  22   1     0.03   0.08   0.04     0.18   0.15  -0.33     0.02   0.05   0.03
  23   1    -0.07   0.06  -0.17    -0.10   0.11   0.16    -0.04   0.04  -0.10
  24   1    -0.06   0.03   0.17    -0.11   0.04   0.30     0.11   0.20  -0.01
  25   1    -0.14   0.10  -0.00    -0.25   0.17  -0.01     0.14  -0.37  -0.08
  26   1     0.09   0.02  -0.00     0.15   0.03  -0.01     0.07  -0.22   0.36
  27   1     0.28   0.11  -0.05    -0.27   0.05  -0.14    -0.22  -0.06   0.01
  28   1    -0.13  -0.12   0.14    -0.10  -0.32  -0.16     0.06   0.02  -0.11
  29   1     0.24  -0.29  -0.09     0.10  -0.08   0.15    -0.13   0.17   0.09
                     55                     56                     57
                        a                      a                      a 
 Frequencies --  1499.9303              1502.8030              1504.9837
 Red. masses --     1.5881                 1.6134                 1.5877
 Frc consts  --     0.0000                 0.0000                 0.0000
 IR Inten    --     0.2857                 0.1956                 0.5336
 Raman Activ --     0.0000                 0.0000                 0.0000
 Depolar     --     0.0000                 0.0000                 0.0000
 Atom AN      X      Y      Z        X      Y      Z        X      Y      Z
   1   6    -0.09   0.13   0.03     0.00  -0.09   0.08    -0.07   0.04   0.12
   2   6     0.00   0.04   0.04     0.00  -0.02   0.03    -0.07  -0.00   0.05
   3   6     0.09  -0.02   0.04     0.01   0.01  -0.01    -0.11  -0.06  -0.02
   4   6     0.01   0.00   0.03     0.03   0.00   0.09     0.01   0.01  -0.04
   5   6     0.01   0.04   0.00    -0.00  -0.07   0.01    -0.00  -0.00   0.00
   6   6    -0.01  -0.02   0.01    -0.00  -0.03   0.04     0.02   0.00  -0.00
   7   6    -0.07  -0.03   0.02    -0.05   0.01  -0.02     0.05   0.02  -0.00
   8   6    -0.00   0.02   0.03     0.03  -0.03   0.12     0.02  -0.03  -0.00
   9   6     0.05  -0.05  -0.01     0.03  -0.03  -0.03    -0.02   0.03   0.01
  10   1     0.28  -0.43  -0.07    -0.01   0.22   0.15     0.29  -0.23   0.09
  11   1    -0.22  -0.21   0.12     0.01   0.30  -0.28    -0.23   0.09  -0.17
  12   1     0.28   0.12  -0.18    -0.02  -0.15  -0.21     0.29  -0.03  -0.41
  13   1    -0.00  -0.01  -0.02     0.02   0.01   0.01     0.01  -0.00  -0.02
  14   1     0.10   0.00  -0.14    -0.00  -0.03   0.02    -0.11   0.22   0.01
  15   1    -0.19  -0.06   0.12    -0.03  -0.01   0.01     0.36   0.19  -0.05
  16   1    -0.23   0.10  -0.16    -0.00   0.02   0.01     0.22  -0.21   0.08
  17   1    -0.03   0.06  -0.07    -0.15   0.11  -0.18     0.04  -0.02   0.03
  18   1     0.00  -0.05  -0.08     0.03  -0.12  -0.21    -0.03   0.02   0.06
  19   1    -0.04  -0.08   0.07     0.06   0.14  -0.11    -0.01   0.00  -0.01
  20   1     0.01  -0.09  -0.05    -0.04   0.16   0.09    -0.00   0.00  -0.00
  21   1     0.23  -0.02   0.02     0.17   0.02   0.02    -0.18  -0.00  -0.02
  22   1     0.10   0.08  -0.18     0.01  -0.03  -0.09    -0.06  -0.04   0.13
  23   1    -0.05   0.06   0.09     0.04  -0.03   0.13     0.02  -0.03  -0.09
  24   1     0.02  -0.04  -0.09     0.00  -0.22  -0.26    -0.04  -0.02   0.07
  25   1     0.06  -0.02   0.01     0.10   0.18   0.08    -0.08   0.11   0.01
  26   1    -0.06   0.01  -0.03    -0.21   0.17  -0.32     0.03   0.05  -0.07
  27   1    -0.13  -0.07   0.05    -0.07  -0.06   0.05     0.04   0.03  -0.03
  28   1     0.08   0.11  -0.06     0.05   0.08  -0.02    -0.04  -0.06   0.01
  29   1    -0.15   0.17   0.03    -0.09   0.11   0.03     0.07  -0.08  -0.00
                     58                     59                     60
                        a                      a                      a 
 Frequencies --  1509.6454              1512.7391              1514.4484
 Red. masses --     1.5916                 1.6154                 1.6144
 Frc consts  --     0.0000                 0.0000                 0.0000
 IR Inten    --     0.4733                 1.7542                 1.0186
 Raman Activ --     0.0000                 0.0000                 0.0000
 Depolar     --     0.0000                 0.0000                 0.0000
 Atom AN      X      Y      Z        X      Y      Z        X      Y      Z
   1   6     0.01  -0.04   0.02    -0.00   0.00  -0.00     0.02  -0.06   0.01
   2   6    -0.02  -0.04   0.02     0.02   0.01  -0.01     0.01  -0.04   0.04
   3   6    -0.02  -0.05   0.04     0.03   0.03  -0.01     0.04  -0.08   0.12
   4   6     0.00   0.01  -0.03    -0.00  -0.01   0.06    -0.01   0.01  -0.03
   5   6     0.01   0.01   0.01    -0.02   0.03  -0.00    -0.01   0.11  -0.01
   6   6    -0.04  -0.06  -0.03     0.07  -0.04  -0.06     0.05   0.01   0.02
   7   6    -0.05  -0.03   0.05     0.04   0.08  -0.04     0.06  -0.02   0.02
   8   6     0.03   0.00  -0.07     0.07  -0.09  -0.08     0.00  -0.02   0.02
   9   6    -0.09  -0.12  -0.04     0.06  -0.08   0.01     0.06   0.03   0.03
  10   1    -0.03   0.14   0.07    -0.01  -0.01  -0.01    -0.07   0.19   0.08
  11   1     0.04   0.14  -0.12    -0.00  -0.01   0.01     0.07   0.15  -0.12
  12   1    -0.05  -0.08  -0.06    -0.01   0.00   0.01    -0.08  -0.08  -0.02
  13   1     0.05   0.03  -0.00    -0.00   0.01   0.02     0.01  -0.02  -0.01
  14   1     0.02   0.18  -0.15     0.02  -0.12   0.05     0.13   0.27  -0.37
  15   1     0.11   0.11   0.07    -0.11  -0.08  -0.02    -0.00   0.10   0.20
  16   1    -0.06  -0.08  -0.11    -0.02   0.07   0.03    -0.30  -0.04  -0.32
  17   1     0.03  -0.05   0.06    -0.05   0.07  -0.09     0.03  -0.04   0.05
  18   1    -0.01   0.04   0.06     0.03  -0.05  -0.11     0.01   0.05   0.04
  19   1    -0.04  -0.01  -0.01    -0.03  -0.03   0.02    -0.07  -0.19   0.17
  20   1    -0.00  -0.01  -0.01     0.06  -0.04  -0.00     0.04  -0.21  -0.12
  21   1     0.19  -0.07   0.00    -0.19   0.09   0.00    -0.20  -0.05  -0.03
  22   1     0.13   0.13  -0.20    -0.17  -0.19   0.21    -0.00   0.06   0.12
  23   1    -0.11   0.11   0.01     0.15  -0.16   0.01    -0.05   0.04  -0.17
  24   1    -0.05   0.09   0.23    -0.17   0.02   0.40    -0.02  -0.05  -0.03
  25   1    -0.15  -0.01  -0.04    -0.35   0.27  -0.00    -0.01   0.06   0.02
  26   1     0.14  -0.05   0.12     0.21   0.08  -0.07    -0.03   0.04  -0.07
  27   1     0.34  -0.07   0.19    -0.18  -0.11   0.08    -0.22   0.02  -0.09
  28   1     0.14   0.43   0.20     0.13   0.17  -0.11    -0.03  -0.16  -0.14
  29   1    -0.14   0.12  -0.22    -0.22   0.25   0.05     0.00   0.01   0.10
                     61                     62                     63
                        a                      a                      a 
 Frequencies --  1519.4144              2938.2640              2944.4400
 Red. masses --     1.6112                 1.7581                 1.7869
 Frc consts  --     0.0000                 0.0000                 0.0000
 IR Inten    --     0.7330                11.5800                76.4586
 Raman Activ --     0.0000                 0.0000                 0.0000
 Depolar     --     0.0000                 0.0000                 0.0000
 Atom AN      X      Y      Z        X      Y      Z        X      Y      Z
   1   6     0.00   0.02  -0.02    -0.00  -0.00  -0.00     0.00  -0.01   0.00
   2   6    -0.00   0.01  -0.03    -0.06   0.09  -0.05    -0.11   0.15  -0.09
   3   6    -0.01   0.04  -0.03     0.00   0.00   0.00     0.00  -0.01   0.01
   4   6    -0.02  -0.01  -0.09     0.13  -0.17   0.06    -0.05   0.05  -0.03
   5   6    -0.02  -0.03  -0.02     0.03   0.03  -0.06    -0.05  -0.04   0.13
   6   6     0.05  -0.07   0.06    -0.00   0.00  -0.00    -0.00  -0.00   0.01
   7   6     0.06  -0.06   0.12     0.00   0.00   0.00    -0.00   0.00  -0.00
   8   6     0.03  -0.03   0.05     0.00  -0.00   0.00    -0.00   0.00  -0.00
   9   6     0.04  -0.04  -0.03    -0.01  -0.00   0.00    -0.01  -0.00  -0.00
  10   1    -0.01  -0.03  -0.03     0.01   0.00  -0.01     0.02   0.01  -0.02
  11   1     0.01  -0.06   0.06    -0.01   0.01   0.01    -0.01   0.01   0.02
  12   1    -0.01   0.03   0.06    -0.01   0.01  -0.01    -0.02   0.03  -0.02
  13   1     0.00   0.02   0.01     0.25  -0.35   0.22     0.40  -0.55   0.34
  14   1    -0.03  -0.13   0.14    -0.01  -0.01  -0.01    -0.01  -0.01  -0.00
  15   1    -0.03  -0.06  -0.09    -0.01   0.01  -0.00    -0.02   0.03  -0.01
  16   1     0.10   0.02   0.11     0.01   0.00  -0.00     0.01   0.01  -0.01
  17   1     0.14  -0.12   0.17    -0.03   0.10   0.13    -0.01   0.01  -0.00
  18   1    -0.02   0.12   0.20    -0.43   0.52  -0.35     0.17  -0.20   0.13
  19   1     0.03   0.07  -0.05     0.00   0.01  -0.00     0.02  -0.09  -0.07
  20   1    -0.02   0.09   0.04    -0.10  -0.14   0.24     0.16   0.25  -0.40
  21   1    -0.19  -0.25  -0.08     0.00   0.00  -0.00    -0.00  -0.00   0.01
  22   1     0.17   0.31  -0.01     0.00  -0.00   0.00     0.00  -0.00   0.00
  23   1    -0.26   0.24  -0.38    -0.00  -0.00   0.00     0.00  -0.00  -0.00
  24   1    -0.05  -0.14  -0.07    -0.00   0.00  -0.00     0.00  -0.00   0.00
  25   1    -0.01   0.18   0.05     0.00   0.00  -0.00    -0.00  -0.00   0.01
  26   1    -0.07   0.12  -0.21    -0.00   0.00   0.00     0.00  -0.01  -0.00
  27   1    -0.12  -0.09   0.07     0.00  -0.00  -0.00    -0.00  -0.00  -0.00
  28   1     0.08   0.11  -0.06     0.01  -0.00   0.00    -0.00  -0.00   0.00
  29   1    -0.14   0.17   0.05     0.01   0.01  -0.00     0.02   0.01  -0.00
                     64                     65                     66
                        a                      a                      a 
 Frequencies --  2949.1916              2983.1932              2987.2589
 Red. masses --     1.8808                 1.5435                 1.6821
 Frc consts  --     0.0000                 0.0000                 0.0000
 IR Inten    --   162.1343                31.0013               124.5498
 Raman Activ --     0.0000                 0.0000                 0.0000
 Depolar     --     0.0000                 0.0000                 0.0000
 Atom AN      X      Y      Z        X      Y      Z        X      Y      Z
   1   6    -0.00   0.01  -0.00     0.00   0.00  -0.01     0.00  -0.00  -0.01
   2   6     0.05  -0.07   0.04    -0.00   0.00   0.00    -0.01   0.01   0.00
   3   6    -0.00   0.00  -0.01     0.00  -0.00   0.00    -0.01  -0.01   0.00
   4   6     0.08  -0.12   0.03    -0.01   0.07   0.13    -0.03   0.11   0.14
   5   6    -0.08  -0.05   0.20     0.03  -0.15  -0.07    -0.03   0.12   0.10
   6   6    -0.00  -0.00   0.01     0.00  -0.00  -0.00    -0.00   0.00   0.00
   7   6     0.00   0.00  -0.00    -0.00  -0.00   0.00    -0.01  -0.00  -0.00
   8   6    -0.00   0.00  -0.01    -0.00   0.01  -0.00     0.00  -0.01  -0.00
   9   6     0.01  -0.00  -0.00    -0.00   0.01   0.00     0.00  -0.01  -0.00
  10   1    -0.01  -0.01   0.01    -0.00  -0.00   0.00    -0.01  -0.01   0.01
  11   1     0.00  -0.00  -0.00    -0.01   0.02   0.02    -0.01   0.02   0.02
  12   1     0.01  -0.02   0.01     0.01  -0.02   0.01     0.01  -0.01   0.01
  13   1    -0.18   0.24  -0.15     0.01  -0.01   0.01     0.01  -0.02   0.01
  14   1     0.01   0.00   0.00    -0.02  -0.01  -0.01     0.02   0.01   0.01
  15   1     0.01  -0.02   0.01    -0.00   0.00  -0.00    -0.00   0.00  -0.00
  16   1    -0.01  -0.01   0.01     0.01   0.01  -0.00     0.01   0.01  -0.01
  17   1    -0.04   0.11   0.13     0.16  -0.42  -0.39     0.20  -0.51  -0.47
  18   1    -0.26   0.30  -0.21    -0.13   0.16  -0.08    -0.08   0.10  -0.04
  19   1     0.06  -0.19  -0.16    -0.18   0.45   0.49     0.16  -0.40  -0.44
  20   1     0.23   0.36  -0.57     0.09   0.11  -0.23    -0.04  -0.04   0.10
  21   1     0.00  -0.00   0.01    -0.00   0.00  -0.00    -0.00  -0.00  -0.00
  22   1     0.00  -0.00   0.00    -0.01   0.00  -0.00     0.02  -0.01   0.01
  23   1    -0.00  -0.00   0.00     0.01   0.01  -0.00     0.01   0.01  -0.00
  24   1     0.01  -0.00   0.00     0.01  -0.00   0.00    -0.01   0.01  -0.01
  25   1    -0.00  -0.00   0.02    -0.00  -0.00   0.02     0.00   0.00  -0.01
  26   1     0.00  -0.01  -0.00     0.01  -0.03  -0.02    -0.01   0.02   0.01
  27   1    -0.00   0.01   0.01     0.00  -0.02  -0.01    -0.01   0.02   0.02
  28   1    -0.02   0.01  -0.01    -0.00   0.00   0.00    -0.01   0.00  -0.00
  29   1    -0.01  -0.01   0.00     0.00   0.00   0.00    -0.00  -0.00   0.00
                     67                     68                     69
                        a                      a                      a 
 Frequencies --  3016.3688              3019.1947              3019.3913
 Red. masses --     1.9301                 1.9200                 1.9235
 Frc consts  --     0.0000                 0.0000                 0.0000
 IR Inten    --    40.2719                28.7685                17.0304
 Raman Activ --     0.0000                 0.0000                 0.0000
 Depolar     --     0.0000                 0.0000                 0.0000
 Atom AN      X      Y      Z        X      Y      Z        X      Y      Z
   1   6    -0.00  -0.00   0.01     0.10  -0.20   0.04     0.05  -0.10   0.01
   2   6    -0.00   0.00  -0.00     0.01  -0.01   0.00     0.00  -0.00   0.00
   3   6     0.00  -0.01   0.01    -0.04   0.10  -0.08    -0.02   0.05  -0.03
   4   6     0.00  -0.00  -0.00    -0.00   0.00   0.00    -0.00   0.00   0.00
   5   6     0.00  -0.00  -0.01     0.00  -0.00  -0.00    -0.00   0.00   0.00
   6   6     0.00  -0.00  -0.00     0.00  -0.00  -0.00    -0.00   0.00   0.01
   7   6    -0.04   0.04  -0.07    -0.03  -0.01   0.02     0.07   0.01  -0.02
   8   6    -0.03   0.03  -0.02     0.03  -0.04  -0.11    -0.07   0.10   0.21
   9   6     0.20  -0.18  -0.01     0.02   0.02   0.02    -0.02  -0.04  -0.04
  10   1     0.01   0.01  -0.01     0.10   0.04  -0.10     0.03   0.01  -0.03
  11   1     0.00  -0.01  -0.01    -0.10   0.21   0.26    -0.05   0.12   0.14
  12   1    -0.01   0.01  -0.00    -0.35   0.45  -0.29    -0.17   0.22  -0.14
  13   1     0.01  -0.01   0.00    -0.01   0.02  -0.01    -0.01   0.01  -0.00
  14   1    -0.01  -0.00  -0.00     0.03   0.03   0.01     0.01   0.01   0.00
  15   1    -0.02   0.03  -0.01     0.20  -0.32   0.18     0.10  -0.15   0.09
  16   1     0.01   0.01  -0.01    -0.09  -0.05   0.07    -0.04  -0.02   0.03
  17   1    -0.00   0.01   0.01     0.00  -0.01  -0.00     0.00  -0.01  -0.01
  18   1     0.00  -0.00   0.00    -0.00   0.00  -0.00    -0.00   0.00  -0.00
  19   1    -0.01   0.02   0.02    -0.00   0.01   0.01     0.00  -0.01  -0.01
  20   1    -0.01  -0.01   0.02     0.00  -0.00  -0.00    -0.00   0.00  -0.00
  21   1    -0.02  -0.06   0.19     0.00   0.02  -0.08    -0.00  -0.04   0.12
  22   1     0.19  -0.09   0.06     0.05  -0.03   0.02    -0.15   0.08  -0.06
  23   1    -0.01  -0.00  -0.01     0.04   0.04  -0.00    -0.08  -0.08   0.01
  24   1     0.11  -0.06   0.05     0.01  -0.01  -0.01     0.04  -0.01   0.05
  25   1    -0.02  -0.01   0.06    -0.05  -0.08   0.25     0.09   0.16  -0.48
  26   1     0.01  -0.03  -0.03    -0.05   0.23   0.14     0.11  -0.50  -0.31
  27   1    -0.07   0.37   0.28     0.02  -0.08  -0.06    -0.04   0.15   0.11
  28   1    -0.64   0.32  -0.25    -0.06   0.04  -0.02     0.08  -0.05   0.03
  29   1    -0.01  -0.06   0.00    -0.02  -0.02   0.00     0.04   0.03  -0.01
                     70                     71                     72
                        a                      a                      a 
 Frequencies --  3019.9441              3020.7610              3021.6900
 Red. masses --     1.9388                 1.9443                 1.9240
 Frc consts  --     0.0000                 0.0000                 0.0000
 IR Inten    --    14.5573                67.7277                92.4292
 Raman Activ --     0.0000                 0.0000                 0.0000
 Depolar     --     0.0000                 0.0000                 0.0000
 Atom AN      X      Y      Z        X      Y      Z        X      Y      Z
   1   6    -0.00   0.01  -0.01     0.11  -0.08  -0.12    -0.07  -0.08   0.23
   2   6    -0.00   0.00  -0.00     0.01  -0.02   0.01     0.01  -0.02   0.02
   3   6    -0.00  -0.01   0.01    -0.06  -0.17   0.14     0.03  -0.10   0.07
   4   6    -0.00   0.00   0.00     0.00  -0.01  -0.01     0.00   0.00   0.01
   5   6    -0.00   0.01   0.00     0.00  -0.00  -0.00    -0.00   0.00   0.00
   6   6     0.00   0.00   0.00    -0.00   0.00  -0.00    -0.00   0.00  -0.00
   7   6     0.12  -0.06   0.11    -0.01   0.00  -0.01    -0.02   0.01  -0.03
   8   6    -0.12   0.15  -0.12    -0.00   0.00  -0.01    -0.02   0.03  -0.01
   9   6     0.03   0.01   0.02    -0.01   0.01  -0.00    -0.02   0.02   0.00
  10   1    -0.02  -0.01   0.02    -0.16  -0.16   0.20     0.36   0.30  -0.42
  11   1     0.00   0.00  -0.00    -0.13   0.31   0.32     0.11  -0.27  -0.24
  12   1     0.02  -0.03   0.02    -0.10   0.14  -0.11    -0.22   0.26  -0.14
  13   1     0.00  -0.01   0.00    -0.02   0.03  -0.02    -0.03   0.04  -0.02
  14   1     0.00  -0.00   0.00     0.07   0.00   0.07    -0.01  -0.02   0.00
  15   1    -0.01   0.02  -0.01    -0.24   0.35  -0.20    -0.20   0.31  -0.18
  16   1     0.02   0.01  -0.02     0.37   0.25  -0.35     0.11   0.06  -0.09
  17   1     0.00  -0.00  -0.00    -0.01   0.03   0.03     0.01  -0.02  -0.02
  18   1     0.00  -0.00   0.00     0.00  -0.00  -0.00    -0.01   0.02  -0.01
  19   1     0.01  -0.03  -0.03    -0.00   0.01   0.01     0.00  -0.01  -0.01
  20   1    -0.01  -0.01   0.02     0.00   0.00  -0.00    -0.00  -0.00   0.00
  21   1     0.05   0.09  -0.30    -0.01  -0.01   0.04    -0.01  -0.03   0.08
  22   1    -0.41   0.20  -0.13     0.04  -0.02   0.01     0.08  -0.04   0.02
  23   1    -0.06  -0.08   0.03     0.01   0.01  -0.00     0.01   0.02  -0.01
  24   1     0.48  -0.28   0.22     0.01  -0.00   0.00     0.08  -0.05   0.04
  25   1    -0.09  -0.08   0.34    -0.00  -0.01   0.02    -0.01  -0.01   0.05
  26   1     0.03  -0.18  -0.15    -0.00   0.01   0.00     0.01  -0.06  -0.05
  27   1     0.02  -0.07  -0.05     0.00  -0.01  -0.01     0.01  -0.04  -0.03
  28   1    -0.10   0.06  -0.04     0.03  -0.02   0.01     0.08  -0.04   0.03
  29   1    -0.03  -0.03   0.01     0.00   0.00  -0.00     0.00   0.01  -0.00
                     73                     74                     75
                        a                      a                      a 
 Frequencies --  3022.8285              3027.2025              3027.9228
 Red. masses --     1.9238                 1.6404                 1.6455
 Frc consts  --     0.0000                 0.0000                 0.0000
 IR Inten    --   262.8813               157.6817                68.3640
 Raman Activ --     0.0000                 0.0000                 0.0000
 Depolar     --     0.0000                 0.0000                 0.0000
 Atom AN      X      Y      Z        X      Y      Z        X      Y      Z
   1   6    -0.01  -0.03   0.04    -0.01   0.02   0.01     0.03  -0.06  -0.06
   2   6     0.00  -0.00   0.00    -0.00   0.00  -0.00     0.01  -0.01  -0.00
   3   6     0.01  -0.03   0.03    -0.04  -0.00   0.01     0.22  -0.00  -0.02
   4   6     0.00  -0.00   0.00    -0.00   0.00  -0.00    -0.00  -0.00   0.00
   5   6    -0.00  -0.00   0.00    -0.00   0.00   0.00    -0.00   0.00   0.00
   6   6     0.01  -0.01   0.01    -0.00   0.00   0.01    -0.00   0.00   0.00
   7   6     0.12  -0.08   0.15    -0.07  -0.02   0.04    -0.01   0.00  -0.00
   8   6     0.09  -0.12   0.06    -0.03   0.01   0.10    -0.01   0.00   0.02
   9   6     0.07  -0.07  -0.01     0.08   0.11   0.14     0.02   0.03   0.03
  10   1     0.07   0.06  -0.08    -0.01  -0.00   0.01     0.01  -0.01  -0.01
  11   1     0.01  -0.04  -0.03     0.03  -0.06  -0.06    -0.10   0.23   0.24
  12   1    -0.06   0.07  -0.04     0.00   0.00   0.00    -0.01   0.00  -0.02
  13   1    -0.00   0.00  -0.00     0.00  -0.01   0.00    -0.01   0.01  -0.01
  14   1    -0.01  -0.01  -0.00     0.02   0.01   0.02    -0.14  -0.07  -0.11
  15   1    -0.07   0.11  -0.06     0.04  -0.07   0.04    -0.22   0.42  -0.24
  16   1     0.04   0.02  -0.03     0.10   0.07  -0.10    -0.41  -0.32   0.44
  17   1     0.00  -0.01  -0.00    -0.00   0.00   0.00    -0.00   0.00   0.00
  18   1    -0.00   0.01  -0.00     0.00  -0.00   0.00     0.00   0.00  -0.00
  19   1    -0.00   0.01   0.01     0.01  -0.01  -0.01     0.00  -0.01  -0.01
  20   1     0.01   0.01  -0.02    -0.00   0.00  -0.00    -0.00  -0.00   0.00
  21   1     0.06   0.13  -0.44     0.01   0.06  -0.20    -0.00  -0.00   0.01
  22   1    -0.43   0.21  -0.13     0.16  -0.09   0.07     0.02  -0.01   0.01
  23   1    -0.04  -0.06   0.03     0.08   0.08  -0.01     0.01   0.01  -0.00
  24   1    -0.34   0.19  -0.16     0.00  -0.00   0.02     0.02  -0.01   0.01
  25   1     0.06   0.05  -0.22     0.07   0.10  -0.32     0.01   0.02  -0.06
  26   1    -0.04   0.20   0.15     0.02  -0.11  -0.06     0.00  -0.01  -0.01
  27   1    -0.03   0.16   0.12     0.15  -0.54  -0.39     0.04  -0.13  -0.10
  28   1    -0.20   0.10  -0.08    -0.37   0.21  -0.12    -0.07   0.04  -0.02
  29   1    -0.00  -0.02  -0.00    -0.08  -0.06   0.02    -0.03  -0.02   0.01
                     76                     77                     78
                        a                      a                      a 
 Frequencies --  3028.0061              3034.1452              3035.1051
 Red. masses --     1.6971                 1.2785                 1.2989
 Frc consts  --     0.0000                 0.0000                 0.0000
 IR Inten    --    33.5539               141.5515                29.3565
 Raman Activ --     0.0000                 0.0000                 0.0000
 Depolar     --     0.0000                 0.0000                 0.0000
 Atom AN      X      Y      Z        X      Y      Z        X      Y      Z
   1   6    -0.00   0.00   0.01     0.10   0.07   0.03    -0.05  -0.04  -0.02
   2   6    -0.00   0.00   0.00     0.00   0.00   0.00    -0.00  -0.00   0.00
   3   6    -0.01  -0.00   0.00     0.05  -0.00  -0.00    -0.02  -0.00   0.00
   4   6    -0.00   0.00   0.00    -0.00   0.00   0.01    -0.00  -0.00  -0.00
   5   6    -0.00   0.00  -0.00    -0.00   0.00   0.00    -0.00   0.01   0.00
   6   6     0.01   0.00  -0.00     0.00   0.00   0.00     0.01   0.00   0.00
   7   6     0.17   0.06  -0.13     0.02   0.01  -0.01     0.05   0.03  -0.03
   8   6    -0.00  -0.07  -0.02     0.05   0.03  -0.00     0.11   0.06   0.00
   9   6     0.02   0.05   0.05     0.01   0.01   0.01     0.02   0.02   0.03
  10   1     0.00   0.00   0.00    -0.31  -0.26   0.41     0.15   0.13  -0.19
  11   1     0.01  -0.02  -0.02     0.16  -0.31  -0.33    -0.08   0.15   0.16
  12   1    -0.01   0.01  -0.00    -0.23   0.32  -0.19     0.11  -0.15   0.09
  13   1     0.00  -0.00   0.00     0.01  -0.01   0.00    -0.00   0.00  -0.00
  14   1     0.01   0.00   0.01    -0.04  -0.02  -0.03     0.02   0.01   0.02
  15   1     0.01  -0.02   0.01    -0.05   0.09  -0.05     0.02  -0.04   0.02
  16   1     0.03   0.02  -0.03    -0.08  -0.07   0.09     0.04   0.03  -0.05
  17   1     0.01  -0.01  -0.01     0.01  -0.01  -0.01    -0.00   0.01   0.01
  18   1    -0.00   0.00  -0.00    -0.01   0.01  -0.00     0.01  -0.01   0.00
  19   1     0.00  -0.00  -0.00     0.00  -0.01  -0.01     0.01  -0.02  -0.02
  20   1    -0.00  -0.00   0.00    -0.00  -0.00   0.00    -0.01  -0.01   0.02
  21   1    -0.03  -0.19   0.62    -0.00  -0.01   0.05    -0.00  -0.03   0.11
  22   1    -0.36   0.20  -0.15    -0.02   0.02  -0.01    -0.07   0.04  -0.03
  23   1    -0.23  -0.22   0.01    -0.06  -0.05   0.01    -0.11  -0.10   0.01
  24   1     0.05  -0.04   0.02    -0.20   0.13  -0.10    -0.41   0.26  -0.20
  25   1     0.02   0.02  -0.11    -0.04  -0.06   0.22    -0.08  -0.12   0.45
  26   1    -0.06   0.26   0.18     0.05  -0.17  -0.12     0.10  -0.36  -0.25
  27   1     0.06  -0.22  -0.16     0.02  -0.05  -0.04     0.04  -0.13  -0.09
  28   1    -0.12   0.07  -0.04    -0.04   0.02  -0.01    -0.10   0.06  -0.04
  29   1    -0.02  -0.01   0.01    -0.01  -0.01   0.00    -0.02  -0.01   0.01
                     79                     80                     81
                        a                      a                      a 
 Frequencies --  3042.5282              3052.5375              3063.8567
 Red. masses --     1.4139                 1.5480                 1.5955
 Frc consts  --     0.0000                 0.0000                 0.0000
 IR Inten    --    37.3410                44.1882                50.7504
 Raman Activ --     0.0000                 0.0000                 0.0000
 Depolar     --     0.0000                 0.0000                 0.0000
 Atom AN      X      Y      Z        X      Y      Z        X      Y      Z
   1   6    -0.00   0.01   0.00    -0.00   0.01   0.00     0.00   0.00  -0.00
   2   6    -0.00   0.00  -0.00    -0.01   0.00  -0.01     0.00  -0.00   0.00
   3   6    -0.01  -0.00  -0.01    -0.14  -0.08  -0.15    -0.00  -0.00  -0.01
   4   6     0.00  -0.00  -0.00     0.00  -0.00   0.00     0.00  -0.00   0.00
   5   6     0.00   0.00  -0.00     0.00  -0.01  -0.00    -0.00   0.00   0.00
   6   6    -0.00  -0.01  -0.00     0.00   0.00   0.00    -0.01  -0.01   0.00
   7   6    -0.08  -0.17  -0.02     0.00   0.01   0.00    -0.01  -0.02   0.00
   8   6     0.01   0.01   0.01    -0.00  -0.00   0.00     0.00   0.00  -0.01
   9   6     0.03   0.01   0.00     0.01   0.00  -0.00    -0.16  -0.16   0.04
  10   1    -0.01  -0.00   0.01    -0.00   0.00   0.00    -0.00  -0.00   0.00
  11   1     0.00  -0.01  -0.01     0.01  -0.02  -0.02     0.00  -0.00  -0.00
  12   1     0.00  -0.00   0.00     0.00  -0.00   0.00    -0.00   0.00  -0.00
  13   1     0.00  -0.00   0.00     0.01  -0.02   0.01    -0.02   0.02  -0.01
  14   1     0.02   0.01   0.02     0.74   0.32   0.48     0.03   0.01   0.01
  15   1     0.00  -0.00   0.00    -0.08   0.08  -0.07    -0.01   0.01  -0.01
  16   1    -0.00  -0.00   0.00    -0.16  -0.11   0.11    -0.01  -0.01   0.01
  17   1    -0.00   0.01   0.01    -0.00   0.00   0.00    -0.00   0.00   0.00
  18   1    -0.00   0.00  -0.00    -0.00   0.00  -0.00    -0.00   0.00  -0.00
  19   1     0.00  -0.00  -0.00    -0.01   0.02   0.02     0.00  -0.00  -0.00
  20   1    -0.00  -0.00   0.01     0.00   0.00  -0.00     0.00   0.00  -0.00
  21   1    -0.03  -0.10   0.24     0.00   0.00  -0.01    -0.00  -0.00  -0.00
  22   1    -0.32   0.13  -0.10     0.01  -0.00   0.00    -0.03   0.01  -0.01
  23   1     0.65   0.57  -0.07    -0.02  -0.02   0.00     0.06   0.05  -0.00
  24   1    -0.04   0.03  -0.02    -0.00  -0.00   0.00     0.01  -0.00   0.00
  25   1    -0.01  -0.01   0.04     0.00   0.00  -0.01    -0.01  -0.01   0.02
  26   1     0.01  -0.06  -0.04    -0.00   0.00   0.00    -0.00   0.00   0.00
  27   1     0.00   0.01   0.00    -0.00   0.01   0.00    -0.01  -0.09  -0.05
  28   1    -0.03   0.02  -0.01    -0.00   0.00  -0.00    -0.14   0.03  -0.04
  29   1    -0.06  -0.06   0.00    -0.02  -0.02   0.00     0.72   0.62  -0.05
