
                                 *****************
                                 * O   R   C   A *
                                 *****************

                                            #,                                       
                                            ###                                      
                                            ####                                     
                                            #####                                    
                                            ######                                   
                                           ########,                                 
                                     ,,################,,,,,                         
                               ,,#################################,,                 
                          ,,##########################################,,             
                       ,#########################################, ''#####,          
                    ,#############################################,,   '####,        
                  ,##################################################,,,,####,       
                ,###########''''           ''''###############################       
              ,#####''   ,,,,##########,,,,          '''####'''          '####       
            ,##' ,,,,###########################,,,                        '##       
           ' ,,###''''                  '''############,,,                           
         ,,##''                                '''############,,,,        ,,,,,,###''
      ,#''                                            '''#######################'''  
     '                                                          ''''####''''         
             ,#######,   #######,   ,#######,      ##                                
            ,#'     '#,  ##    ##  ,#'     '#,    #''#        ,####,   ,####,        
            ##       ##  ##   ,#'  ##            #'  '#       #'       #'  '#        
            ##       ##  #######   ##           ,######,      #####,   #    #        
            '#,     ,#'  ##    ##  '#,     ,#' ,#      #,     #,   #   #,  ,#        
             '#######'   ##     ##  '#######'  #'      '#     '####' # '####'        



                #########################################################
                #                        -***-                          #
                #          Department of theory and spectroscopy        #
                #                                                       #
                #                      Frank Neese                      #
                #                                                       #
                #     Directorship, Architecture, Infrastructure        #
                #                    SHARK, DRIVERS                     #
                #        Core code/Algorithms in most modules           #
                #                                                       #
                #        Max Planck Institute fuer Kohlenforschung      #
                #                Kaiser Wilhelm Platz 1                 #
                #                 D-45470 Muelheim/Ruhr                 #
                #                      Germany                          #
                #                                                       #
                #                  All rights reserved                  #
                #                        -***-                          #
                #########################################################


                         Program Version 6.0.0  -   RELEASE  -


 With contributions from (in alphabetic order):
   Daniel Aravena         : Magnetic Suceptibility
   Michael Atanasov       : Ab Initio Ligand Field Theory (pilot matlab implementation)
   Alexander A. Auer      : GIAO ZORA, VPT2 properties, NMR spectrum
   Ute Becker             : All parallelization in ORCA, NUMFREQ, NUMCALC
   Giovanni Bistoni       : ED, misc. LED, open-shell LED, HFLD
   Martin Brehm           : Molecular dynamics
   Dmytro Bykov           : pre 5.0 version of the SCF Hessian
   Marcos Casanova-Páez   : Triplet and SCS-CIS(D). UHF-(DLPNO)-IP/EA/STEOM-CCSD. UHF-CVS-IP/STEOM-CCSD
   Vijay G. Chilkuri      : MRCI spin determinant printing, contributions to CSF-ICE
   Pauline Colinet        : FMM embedding
   Dipayan Datta          : RHF DLPNO-CCSD density
   Achintya Kumar Dutta   : EOM-CC, STEOM-CC
   Nicolas Foglia         : Exact transition moments, OPA infrastructure, MCD improvements
   Dmitry Ganyushin       : Spin-Orbit,Spin-Spin,Magnetic field MRCI
   Miquel Garcia          : C-PCM and meta-GGA Hessian, CCSD/C-PCM, Gaussian charge scheme
   Tiago L. C. Gouveia    : GS-ROHF, GS-ROCIS
   Yang Guo               : DLPNO-NEVPT2, F12-NEVPT2, CIM, IAO-localization
   Andreas Hansen         : Spin unrestricted coupled pair/coupled cluster methods
   Ingolf Harden          : AUTO-CI MPn and infrastructure 
   Benjamin Helmich-Paris : MC-RPA, TRAH-(SCF,CASSCF), AVAS, COSX integrals, SCF dyn. polar.
   Lee Huntington         : MR-EOM, pCC
   Robert Izsak           : Overlap fitted RIJCOSX, COSX-SCS-MP3, EOM
   Riya Kayal             : Wick's Theorem for AUTO-CI, AUTO-CI UHF-CCSDT
   Emily Kempfer          : AUTO-CI, RHF CISDT and CCSDT
   Christian Kollmar      : KDIIS, OOCD, Brueckner-CCSD(T), CCSD density, CASPT2, CASPT2-K, improved NEVPT2
   Axel Koslowski         : Symmetry handling
   Simone Kossmann        : Meta GGA functionals, TD-DFT gradient, OOMP2, (MP2 Hessian; deprecated post 5.0)
   Lucas Lang             : DCDCAS
   Marvin Lechner         : AUTO-CI (C++ implementation), FIC-MRCC
   Spencer Leger          : CASSCF response
   Dagmar Lenk            : GEPOL surface, SMD, ORCA-2-JSON
   Dimitrios Liakos       : Extrapolation schemes; Compound Job, initial MDCI parallelization
   Dimitrios Manganas     : Further ROCIS development; embedding schemes. LFT, Crystal Embedding
   Dimitrios Pantazis     : SARC Basis sets
   Anastasios Papadopoulos: AUTO-CI, single reference methods and gradients
   Taras Petrenko         : pre 6.0 DFT Hessian and TD-DFT gradient, (ASA, deprecated), ECA, 1-Electron XAS/XES, NRVS
   Peter Pinski           : DLPNO-MP2, DLPNO-MP2 Gradient
   Christoph Reimann      : Effective Core Potentials
   Marius Retegan         : Local ZFS, SOC
   Christoph Riplinger    : Optimizer, TS searches, QM/MM, DLPNO-CCSD(T), (RO)-DLPNO pert. Triples
   Michael Roemelt        : Original ROCIS implementation
   Masaaki Saitow         : Open-shell DLPNO-CCSD energy and density
   Barbara Sandhoefer     : DKH picture change effects
   Kantharuban Sivalingam : CASSCF convergence/infrastructure, NEVPT2 and variants, FIC-MRCI
   Bernardo de Souza      : ESD, SOC TD-DFT
   Georgi Stoychev        : AutoAux, RI-MP2 NMR, DLPNO-MP2 response, X2C
   Van Anh Tran           : RI-MP2 g-tensors
   Willem Van den Heuvel  : Paramagnetic NMR
   Zikuan Wang            : NOTCH, Electric field optimization 
   Frank Wennmohs         : Technical directorship and infrastructure
   Hang Xu                : AUTO-CI-Response properties 


 We gratefully acknowledge several colleagues who have allowed us to
 interface, adapt or use parts of their codes:
   Stefan Grimme, W. Hujo, H. Kruse, P. Pracht,  : VdW corrections, initial TS optimization,
                  C. Bannwarth, S. Ehlert,         DFT functionals, gCP, sTDA/sTD-DF
                  L. Wittmann, M. Mueller
   Ed Valeev, F. Pavosevic, A. Kumar             : LibInt (2-el integral package), F12 methods
   Garnet Chan, S. Sharma, J. Yang, R. Olivares  : DMRG
   Ulf Ekstrom                                   : XCFun DFT Library
   Mihaly Kallay                                 : mrcc  (arbitrary order and MRCC methods)
   Frank Weinhold                                : gennbo (NPA and NBO analysis)
   Simon Mueller                                 : openCOSMO-RS
   Christopher J. Cramer and Donald G. Truhlar   : smd solvation model
   Lars Goerigk                                  : TD-DFT with DH, B97 family of functionals
   V. Asgeirsson, H. Jonsson                     : NEB implementation
   FAccTs GmbH                                   : IRC, NEB, NEB-TS, DLPNO-Multilevel, CI-OPT
                                                   MM, QMMM, 2- and 3-layer-ONIOM, Crystal-QMMM,
                                                   LR-CPCM, SF, NACMEs, symmetry and pop. for TD-DFT,
                                                   nearIR, NL-DFT gradient (VV10), updates on ESD,
                                                   ML-optimized integration grids, MBIS, APM,
                                                   GOAT, DOCKER, SOLVATOR, interface openCOSMO-RS
   S Lehtola, MJT Oliveira, MAL Marques          : LibXC Library
   Liviu Ungur et al                             : ANISO software


 Your calculation uses the libint2 library for the computation of 2-el integrals
 For citations please refer to: http://libint.valeyev.net

 Your ORCA version has been built with support for libXC version: 6.2.2
 For citations please refer to: https://libxc.gitlab.io

 This ORCA versions uses:
   CBLAS   interface :  Fast vector & matrix operations
   LAPACKE interface :  Fast linear algebra routines
   SCALAPACK package :  Parallel linear algebra routines
   Shared memory     :  Shared parallel matrices
   BLAS/LAPACK       :  OpenBLAS 0.3.27  USE64BITINT DYNAMIC_ARCH NO_AFFINITY SkylakeX SINGLE_THREADED
        Core in use  :  SkylakeX
   Copyright (c) 2011-2014, The OpenBLAS Project


Your calculation utilizes the geometrical counterpoise correction gCP
Please cite in your paper:
H.Kruse, S. Grimme J.Chem.Phys., 136, (2012), 154101 
   

Your calculation utilizes the atom-pairwise dispersion correction
based on EEQ partial charges (D4)


Your calculation utilizes the SMD solvation module
Please cite in your paper:
A.V. Marenich, C.J. Cramer, D.G. Truhlar J. Phys. Chem. B, 113, (2009), 6378 

================================================================================

----- Orbital basis set information -----
Your calculation utilizes the basis: def2-mTZVPP
   Stefan Grimme, Andreas Hansen, Sebastian Ehlert, and Jan-Michael Mewes 
   J. Chem. Phys. 154, 064103 (2021). DOI: 10.1063/5.0040021

----- AuxJ basis set information -----
Your calculation utilizes the auxiliary basis: def2/J
   F. Weigend, Phys. Chem. Chem. Phys. 8, 1057 (2006).

================================================================================
                                        WARNINGS
                       Please study these warnings very carefully!
================================================================================

Using LibXC functional ID 497 : Re-regularized SCAN exchange by Furness et al
[ 1]  J. W. Furness, A. D. Kaplan, J. Ning, J. P. Perdew, and J. Sun.,  J. Phys. Chem. Lett. 11, 8208-8215 (2020)
[ 2]  J. W. Furness, A. D. Kaplan, J. Ning, J. P. Perdew, and J. Sun.,  J. Phys. Chem. Lett. 11, 9248-9248 (2020)
Using LibXC functional ID 498 : Re-regularized SCAN correlation by Furness et al
[ 1]  J. W. Furness, A. D. Kaplan, J. Ning, J. P. Perdew, and J. Sun.,  J. Phys. Chem. Lett. 11, 8208-8215 (2020)
[ 2]  J. W. Furness, A. D. Kaplan, J. Ning, J. P. Perdew, and J. Sun.,  J. Phys. Chem. Lett. 11, 9248-9248 (2020)
Using LibXC functional ID 497 : Re-regularized SCAN exchange by Furness et al
[ 1]  J. W. Furness, A. D. Kaplan, J. Ning, J. P. Perdew, and J. Sun.,  J. Phys. Chem. Lett. 11, 8208-8215 (2020)
[ 2]  J. W. Furness, A. D. Kaplan, J. Ning, J. P. Perdew, and J. Sun.,  J. Phys. Chem. Lett. 11, 9248-9248 (2020)
Using LibXC functional ID 498 : Re-regularized SCAN correlation by Furness et al
[ 1]  J. W. Furness, A. D. Kaplan, J. Ning, J. P. Perdew, and J. Sun.,  J. Phys. Chem. Lett. 11, 8208-8215 (2020)
[ 2]  J. W. Furness, A. D. Kaplan, J. Ning, J. P. Perdew, and J. Sun.,  J. Phys. Chem. Lett. 11, 9248-9248 (2020)

================================================================================
                                       INPUT FILE
================================================================================
NAME = sp_solv.inp
|  1> ! r2scan-3c def2/J RI DEFGRID2 scfconv6 printgap
|  2> %output
|  3>     printlevel normal
|  4> end
|  5> %cpcm
|  6>     smd true
|  7>     smdsolvent "water"
|  8> end
|  9> * xyz 0 1
| 10> C 0.9044844311 -2.6157845764 0.8764501853
| 11> O 1.2584194308 -1.6924729772 -0.1487375725
| 12> C 0.7786642398 -0.423612783 -0.0520529343
| 13> C 1.693577591 0.633387649 -0.0175936254
| 14> C 1.2742870226 1.9505134774 0.0571966879
| 15> C -0.0761031281 2.2413687401 0.1154300495
| 16> C -0.9973812384 1.2080909246 0.0702103574
| 17> C -0.5905836907 -0.1207950777 -0.0304818944
| 18> C -1.613907297 -1.2034253665 -0.175067879
| 19> O -2.5328734492 -1.3852066255 0.5936586154
| 20> O -1.4135056642 -1.9256321395 -1.2579191717
| 21> Cl -2.6869565614 1.5799220325 0.0939855725
| 22> Cl 3.3783104991 0.2601791476 -0.0774520223
| 23> H 1.1571147284 -3.5976980077 0.4850134709
| 24> H -0.1569258628 -2.572874447 1.1251636429
| 25> H 1.4899157278 -2.4109594866 1.7769936838
| 26> H 2.0057511243 2.7409467257 0.08287208
| 27> H -0.4178975023 3.2597500813 0.185957809
| 28> H -2.0900502769 -2.6204787608 -1.3909526236
| 29> *
| 30> 
| 31>                          ****END OF INPUT****
================================================================================

                       ****************************
                       * Single Point Calculation *
                       ****************************

---------------------------------
CARTESIAN COORDINATES (ANGSTROEM)
---------------------------------
  C      0.904484   -2.615785    0.876450
  O      1.258419   -1.692473   -0.148738
  C      0.778664   -0.423613   -0.052053
  C      1.693578    0.633388   -0.017594
  C      1.274287    1.950513    0.057197
  C     -0.076103    2.241369    0.115430
  C     -0.997381    1.208091    0.070210
  C     -0.590584   -0.120795   -0.030482
  C     -1.613907   -1.203425   -0.175068
  O     -2.532873   -1.385207    0.593659
  O     -1.413506   -1.925632   -1.257919
  Cl    -2.686957    1.579922    0.093986
  Cl     3.378310    0.260179   -0.077452
  H      1.157115   -3.597698    0.485013
  H     -0.156926   -2.572874    1.125164
  H      1.489916   -2.410959    1.776994
  H      2.005751    2.740947    0.082872
  H     -0.417898    3.259750    0.185958
  H     -2.090050   -2.620479   -1.390953

----------------------------
CARTESIAN COORDINATES (A.U.)
----------------------------
  NO LB      ZA    FRAG     MASS         X           Y           Z
   0 C     6.0000    0    12.011    1.709228   -4.943116    1.656251
   1 O     8.0000    0    15.999    2.378068   -3.198310   -0.281073
   2 C     6.0000    0    12.011    1.471462   -0.800512   -0.098366
   3 C     6.0000    0    12.011    3.200398    1.196929   -0.033247
   4 C     6.0000    0    12.011    2.408053    3.685936    0.108086
   5 C     6.0000    0    12.011   -0.143814    4.235573    0.218131
   6 C     6.0000    0    12.011   -1.884777    2.282961    0.132678
   7 C     6.0000    0    12.011   -1.116041   -0.228270   -0.057602
   8 C     6.0000    0    12.011   -3.049843   -2.274144   -0.330830
   9 O     8.0000    0    15.999   -4.786437   -2.617661    1.121852
  10 O     8.0000    0    15.999   -2.671139   -3.638917   -2.377123
  11 Cl   17.0000    0    35.453   -5.077612    2.985620    0.177607
  12 Cl   17.0000    0    35.453    6.384082    0.491667   -0.146363
  13 H     1.0000    0     1.008    2.186630   -6.798664    0.916543
  14 H     1.0000    0     1.008   -0.296547   -4.862028    2.126251
  15 H     1.0000    0     1.008    2.815533   -4.556053    3.358031
  16 H     1.0000    0     1.008    3.790320    5.179639    0.156606
  17 H     1.0000    0     1.008   -0.789712    6.160035    0.351409
  18 H     1.0000    0     1.008   -3.949623   -4.951987   -2.628520

--------------------------------
INTERNAL COORDINATES (ANGSTROEM)
--------------------------------
 C      0   0   0     0.000000000000     0.00000000     0.00000000
 O      1   0   0     1.424353970041     0.00000000     0.00000000
 C      2   1   0     1.359970277242   117.77336931     0.00000000
 C      3   2   1     1.398393291396   118.43609154   122.05458419
 C      4   3   2     1.384275485426   121.49071864   178.89548484
 C      5   4   3     1.382585066949   119.88650173     0.76492862
 C      6   5   4     1.385085275742   119.42876532   358.67155866
 C      7   6   5     1.393399146510   121.30793140     0.11796044
 C      8   7   6     1.496724641469   119.81611220   184.35002872
 O      9   8   7     1.211810066886   124.45162231   304.52145638
 O      9   8   7     1.316932177258   111.84304786   123.27536370
 Cl     7   6   5     1.730170051106   119.25933708   181.87905480
 Cl     4   3   2     1.726613038533   118.30436531   359.14695245
 H      1   2   3     1.086829680797   105.58483060   165.56260548
 H      1   2   3     1.091004800720   112.35431424    45.52247510
 H      1   2   3     1.093463174166   109.77369231   284.04687092
 H      5   4   3     1.077257479832   119.58885505   179.94672844
 H      6   5   4     1.076521302715   120.78874606   179.25047442
 H     11   9   8     0.978888318160   113.31879435   182.07572790

---------------------------
INTERNAL COORDINATES (A.U.)
---------------------------
 C      0   0   0     0.000000000000     0.00000000     0.00000000
 O      1   0   0     2.691638921142     0.00000000     0.00000000
 C      2   1   0     2.569971374260   117.77336931     0.00000000
 C      3   2   1     2.642580348252   118.43609154   122.05458419
 C      4   3   2     2.615901561356   121.49071864   178.89548484
 C      5   4   3     2.612707133383   119.88650173     0.76492862
 C      6   5   4     2.617431843278   119.42876532   358.67155866
 C      7   6   5     2.633142782144   121.30793140     0.11796044
 C      8   7   6     2.828399670268   119.81611220   184.35002872
 O      9   8   7     2.289989152743   124.45162231   304.52145638
 O      9   8   7     2.488641151967   111.84304786   123.27536370
 Cl     7   6   5     3.269547561704   119.25933708   181.87905480
 Cl     4   3   2     3.262825782085   118.30436531   359.14695245
 H      1   2   3     2.053810450924   105.58483060   165.56260548
 H      1   2   3     2.061700284153   112.35431424    45.52247510
 H      1   2   3     2.066345936703   109.77369231   284.04687092
 H      5   4   3     2.035721612600   119.58885505   179.94672844
 H      6   5   4     2.034330439463   120.78874606   179.25047442
 H     11   9   8     1.849830837017   113.31879435   182.07572790

---------------------
BASIS SET INFORMATION
---------------------
There are 4 groups of distinct atoms

 Group   1 Type C   : 11s6p1d contracted to 5s3p1d pattern {62111/411/1}
 Group   2 Type O   : 11s6p2d contracted to 5s3p2d pattern {62111/411/11}
 Group   3 Type Cl  : 14s9p2d contracted to 5s4p2d pattern {73211/6111/11}
 Group   4 Type H   : 4s1p contracted to 2s1p pattern {31/1}

Atom   0C    basis set group =>   1
Atom   1O    basis set group =>   2
Atom   2C    basis set group =>   1
Atom   3C    basis set group =>   1
Atom   4C    basis set group =>   1
Atom   5C    basis set group =>   1
Atom   6C    basis set group =>   1
Atom   7C    basis set group =>   1
Atom   8C    basis set group =>   1
Atom   9O    basis set group =>   2
Atom  10O    basis set group =>   2
Atom  11Cl   basis set group =>   3
Atom  12Cl   basis set group =>   3
Atom  13H    basis set group =>   4
Atom  14H    basis set group =>   4
Atom  15H    basis set group =>   4
Atom  16H    basis set group =>   4
Atom  17H    basis set group =>   4
Atom  18H    basis set group =>   4
---------------------------------
AUXILIARY/J BASIS SET INFORMATION
---------------------------------
There are 4 groups of distinct atoms

 Group   1 Type C   : 12s5p4d2f1g contracted to 6s4p3d1f1g pattern {711111/2111/211/2/1}
 Group   2 Type O   : 12s5p4d2f1g contracted to 6s4p3d1f1g pattern {711111/2111/211/2/1}
 Group   3 Type Cl  : 14s5p5d2f1g contracted to 8s4p3d1f1g pattern {71111111/2111/311/2/1}
 Group   4 Type H   : 5s2p1d contracted to 3s1p1d pattern {311/2/1}

Atom   0C    basis set group =>   1
Atom   1O    basis set group =>   2
Atom   2C    basis set group =>   1
Atom   3C    basis set group =>   1
Atom   4C    basis set group =>   1
Atom   5C    basis set group =>   1
Atom   6C    basis set group =>   1
Atom   7C    basis set group =>   1
Atom   8C    basis set group =>   1
Atom   9O    basis set group =>   2
Atom  10O    basis set group =>   2
Atom  11Cl   basis set group =>   3
Atom  12Cl   basis set group =>   3
Atom  13H    basis set group =>   4
Atom  14H    basis set group =>   4
Atom  15H    basis set group =>   4
Atom  16H    basis set group =>   4
Atom  17H    basis set group =>   4
Atom  18H    basis set group =>   4

Checking for AutoStart:
The File: sp_solv.gbw exists
Trying to determine its content:
     ... Fine, the file contains calculation information
     ... Fine, the calculation information was read
     ... Fine, the file contains a basis set
     ... Fine, the basis set was read
     ... Fine, the file contains a geometry
     ... Fine, the geometry was read
     ... Fine, the file contains a set of orbitals
     ... Fine, the orbitals can be read
     => possible old guess file was deleted
     => GBW file was renamed to GES file
     => GES file is set as startup file
     => Guess is set to MORead
     ... now leaving AutoStart

------------------------------------------------------------------------------
                             ORCA STARTUP CALCULATIONS
                           -- RI-GTO INTEGRALS CHOSEN --
------------------------------------------------------------------------------
------------------------------------------------------------------------------
                   ___                                                        
                  /   \      - P O W E R E D   B Y -                         
                 /     \                                                     
                 |  |  |   _    _      __       _____    __    __             
                 |  |  |  | |  | |    /  \     |  _  \  |  |  /  |          
                  \  \/   | |  | |   /    \    | | | |  |  | /  /          
                 / \  \   | |__| |  /  /\  \   | |_| |  |  |/  /          
                |  |  |   |  __  | /  /__\  \  |    /   |      \           
                |  |  |   | |  | | |   __   |  |    \   |  |\   \          
                \     /   | |  | | |  |  |  |  | |\  \  |  | \   \       
                 \___/    |_|  |_| |__|  |__|  |_| \__\ |__|  \__/        
                                                                              
                      - O R C A' S   B I G   F R I E N D -                    
                                      &                                       
                       - I N T E G R A L  F E E D E R -                       
                                                                              
 v1 FN, 2020, v2 2021, v3 2022-2024                                           
------------------------------------------------------------------------------


----------------------
SHARK INTEGRAL PACKAGE
----------------------

Number of atoms                             ...     19
Number of basis functions                   ...    308
Number of shells                            ...    142
Maximum angular momentum                    ...      2
Integral batch strategy                     ... SHARK/LIBINT Hybrid
RI-J (if used) integral strategy            ... SPLIT-RIJ (Revised 2003 algorithm where possible)
Printlevel                                  ...      1
Contraction scheme used                     ... SEGMENTED contraction
Prescreening option                         ... SCHWARTZ
   Thresh                                   ... 1.000e-10
   Tcut                                     ... 1.000e-11
   Tpresel                                  ... 1.000e-11 
Coulomb Range Separation                    ... NOT USED
Exchange Range Separation                   ... NOT USED
Multipole approximations                    ... NOT USED
Finite Nucleus Model                        ... NOT USED
CABS basis                                  ... NOT available
Auxiliary Coulomb fitting basis             ... AVAILABLE
   # of basis functions in Aux-J            ...    707
   # of shells in Aux-J                     ...    229
   Maximum angular momentum in Aux-J        ...      4
Auxiliary J/K fitting basis                 ... NOT available
Auxiliary Correlation fitting basis         ... NOT available
Auxiliary 'external' fitting basis          ... NOT available

Checking pre-screening integrals            ... done (  0.0 sec) Dimension = 142
Check shell pair data                       ... done (  0.0 sec)
Shell pair information
Shell pair cut-off parameter TPreSel        ...   1.0e-11
Total number of shell pairs                 ...     10153
Shell pairs after pre-screening             ...      8450
Total number of primitive shell pairs       ...     39961
Primitive shell pairs kept                  ...     21680
          la=0 lb=0:   2328 shell pairs
          la=1 lb=0:   3051 shell pairs
          la=1 lb=1:   1011 shell pairs
          la=2 lb=0:   1151 shell pairs
          la=2 lb=1:    751 shell pairs
          la=2 lb=2:    158 shell pairs

Calculating one electron integrals          ... done (  0.1 sec)
Calculating RI/J V-Matrix + Cholesky decomp.... done (  0.1 sec)
Calculating Nuclear repulsion               ... done (  0.0 sec) ENN=   1001.755347784855 Eh

Diagonalization of the overlap matrix:
Smallest eigenvalue                        ... 1.295e-05
Time for diagonalization                   ...    0.017 sec
Threshold for overlap eigenvalues          ... 1.000e-07
Number of eigenvalues below threshold      ... 0
Time for construction of square roots      ...    0.023 sec
Total time needed                          ...    0.051 sec

-------------------
DFT GRID GENERATION
-------------------

General Integration Accuracy     IntAcc      ... 4.388
Radial Grid Type                 RadialGrid  ... OptM3 with GC (2021)
Angular Grid (max. ang.)         AngularGrid ... 4 (Lebedev-302)
Angular grid pruning method      GridPruning ... 4 (adaptive)
Weight generation scheme         WeightScheme... mBecke (2022)
Basis function cutoff            BFCut       ... 1.0000e-10
Integration weight cutoff        WCut        ... 1.0000e-14
Partially contracted basis set               ... off
Rotationally invariant grid construction     ... off
Angular grids for H and He will be reduced by one unit
Diffuse basis detected: some atoms will have their outermost
                        angular grid increased by 1.

Total number of grid points                  ...   100880
Total number of batches                      ...     1585
Average number of points per batch           ...       63
Average number of grid points per atom       ...     5309
Initializing property integral containers    ... done (  0.0 sec)

SHARK setup successfully completed in   1.7 seconds

Maximum memory used throughout the entire STARTUP-calculation: 50.6 MB
-------------------------------------------------------------------------------
                                 ORCA GUESS
                   Start orbitals & Density for SCF / CASSCF
-------------------------------------------------------------------------------

------------
SCF SETTINGS
------------
Hamiltonian:
 Density Functional     Method          .... DFT(GTOs)
  Functional kind                       .... Exchange
  Functional name                       .... Re-regularized SCAN exchange by Furness et al
  Functional family                     .... MGGA
  Functional refs                              
    [ 0] J. W. Furness, A. D. Kaplan, J. Ning, J. P. Perdew, and J. Sun.,  J. Phys. Chem. Lett. 11, 8208-8215 (2020), doi: 10.1021/acs.jpclett.0c02405
    [ 1] J. W. Furness, A. D. Kaplan, J. Ning, J. P. Perdew, and J. Sun.,  J. Phys. Chem. Lett. 11, 9248-9248 (2020), doi: 10.1021/acs.jpclett.0c03077
  Functional external parameters        .... 6
    Parameter  0 _c1        =  6.670000e-01 : c1 parameter        
    Parameter  1 _c2        =  8.000000e-01 : c2 parameter        
    Parameter  2 _d         =  1.240000e+00 : d parameter         
    Parameter  3 _k1        =  6.500000e-02 : k1 parameter        
    Parameter  4 _eta       =  1.000000e-03 : eta parameter       
    Parameter  5 _dp2       =  3.610000e-01 : dp2 parameter       
  Functional kind                       .... Correlation
  Functional name                       .... Re-regularized SCAN correlation by Furness et al
  Functional family                     .... MGGA
  Functional refs                              
    [ 0] J. W. Furness, A. D. Kaplan, J. Ning, J. P. Perdew, and J. Sun.,  J. Phys. Chem. Lett. 11, 8208-8215 (2020), doi: 10.1021/acs.jpclett.0c02405
    [ 1] J. W. Furness, A. D. Kaplan, J. Ning, J. P. Perdew, and J. Sun.,  J. Phys. Chem. Lett. 11, 9248-9248 (2020), doi: 10.1021/acs.jpclett.0c03077
  Functional external parameters        .... 1
    Parameter  0 _eta       =  1.000000e-03 : Regularization parameter
 Gradients option       PostSCFGGA      .... off
 RI-approximation to the Coulomb term is turned on
   Number of AuxJ basis functions       .... 707


General Settings:
 Integral files         IntName         .... sp_solv
 Hartree-Fock type      HFTyp           .... RHF
 Total Charge           Charge          ....    0
 Multiplicity           Mult            ....    1
 Number of Electrons    NEL             ....  112
 Basis Dimension        Dim             ....  308
 Nuclear Repulsion      ENuc            ....   1001.7553477849 Eh

Convergence Acceleration:
 AO-DIIS                CNVDIIS         .... on
   Start iteration      DIISMaxIt       ....    12
   Startup error        DIISStart       ....  0.200000
   # of expansion vecs  DIISMaxEq       ....     5
   Bias factor          DIISBfac        ....   1.050
   Max. coefficient     DIISMaxC        ....  10.000
 MO-DIIS                CNVKDIIS        .... off
 Trust-Rad. Augm. Hess. CNVTRAH         .... auto
   Auto Start mean grad. ratio tolernc. ....  1.125000
   Auto Start start iteration           ....     1
   Auto Start num. interpolation iter.  ....    10
   Max. Number of Micro iterations      ....    24
   Max. Number of Macro iterations      .... Maxiter - #DIIS iter
   Number of Davidson start vectors     ....     2
   Converg. threshold    (grad. norm)   ....   3.330e-04
   Grad. Scal. Fac. for Micro threshold ....   0.100
   Minimum threshold for Micro iter.    ....   1.000e-02
   NR start threshold (gradient norm)   ....   1.000e-04
   Initial trust radius                 ....   0.400
   Minimum AH scaling param. (alpha)    ....   1.000
   Maximum AH scaling param. (alpha)    .... 1000.000
   Quad. conv. algorithm                .... NR
   White noise on init. David. guess    .... on
   Maximum white noise                  ....   0.010
   Pseudo random numbers                .... off
   Inactive MOs                         .... canonical
   Orbital update algorithm             .... Taylor
   Preconditioner                       .... Diag
   Full preconditioner red. dimension   ....   250
   COSX micro iterations for RIJONX calc.... off
 SOSCF                  CNVSOSCF        .... on
   Start iteration      SOSCFMaxIt      ....   150
   Startup grad/error   SOSCFStart      ....  0.003300
   Hessian update       SOSCFHessUp     .... L-BFGS
 Level Shifting         CNVShift        .... on
   Level shift para.    LevelShift      ....    0.2500
   Turn off err/grad.   ShiftErr        ....    0.0010
 Zerner damping         CNVZerner       .... off
 Static damping         CNVDamp         .... on
   Fraction old density DampFac         ....    0.7000
   Max. Damping (<1)    DampMax         ....    0.9800
   Min. Damping (>=0)   DampMin         ....    0.0000
   Turn off err/grad.   DampErr         ....    0.1000

SCF Procedure:
 Maximum # iterations   MaxIter         ....   125
 SCF integral mode      SCFMode         .... Direct
   Integral package                     .... SHARK and LIBINT hybrid scheme
 Reset frequency        DirectResetFreq ....    20
 Integral Threshold     Thresh          ....  1.000e-10 Eh
 Primitive CutOff       TCut            ....  1.000e-11 Eh

Convergence Tolerance:
 Convergence Check Mode ConvCheckMode   .... Total+1el-Energy
 Convergence forced     ConvForced      .... 0
 Energy Change          TolE            ....  1.000e-06 Eh
 1-El. energy change                    ....  1.000e-03 Eh
 Orbital Gradient       TolG            ....  3.330e-04
 Orbital Rotation angle TolX            ....  3.330e-04
 DIIS Error             TolErr          ....  1.000e-06

---------------------
INITIAL GUESS: MOREAD
---------------------
Guess MOs are being read from file: sp_solv.ges
Input Geometry matches current geometry (good)
Atom 0: N(Shells)= 9 and 6 - projection required
Input basis set needs projection
NBasis(read)= 202
NBasis(calc)= 308
Basis set overlap was calculated
Using GuessMode=FMatrix for the initial guess
C*T matrix was formed
Effective Fockian was calculated
Effective Fockian was diagonalized
Initial density was built
                      ------------------
                      INITIAL GUESS DONE (   0.1 sec)
                      ------------------
             **** ENERGY FILE WAS UPDATED (sp_solv.en.tmp) ****
Finished Guess after   0.4 sec
Maximum memory used throughout the entire GUESS-calculation: 25.5 MB

-------------------------------------------------------------------------------------------
                                      ORCA LEAN-SCF
                              memory conserving SCF solver
-------------------------------------------------------------------------------------------

--------------------
CPCM SOLVATION MODEL
--------------------
CPCM parameters:
  Epsilon                                         ...      78.3550
  Refrac                                          ...       1.3328
  Rsolv                                           ...       1.3000
  Surface type                                    ... GAUSSIAN VDW
  Discretization scheme                           ... Constant charge density
    Threshold for H atoms                         ...       5.0000 (charges/Ang^2)
    Threshold for non-H atoms                     ...       5.0000 (charges/Ang^2)
  Epsilon function type                           ...         CPCM
Solvent:                                          ... WATER
SMD-CDS solvent descriptors:
  Soln                                            ...       1.3328
  Soln25                                          ...       1.3323
  Sola                                            ...       0.0000
  Solb                                            ...       0.0000
  Solg                                            ...       0.0000
  Solc                                            ...       0.0000
  Solh                                            ...       0.0000
Radii:
  Scheme                                          ... Element-dependent radii
  Radius for C  used is    3.4960 Bohr (=   1.8500 Ang.)
  Radius for O  used is    2.8724 Bohr (=   1.5200 Ang.)
  Radius for Cl used is    4.4975 Bohr (=   2.3800 Ang.)
  Radius for H  used is    2.2677 Bohr (=   1.2000 Ang.)
Calculating surface                               ...        done! (  0.0s)
Cavity surface points                             ...         1624
Cavity Volume                                     ...    1479.9212
Cavity Surface-area                               ...     820.3913
Calculating surface distance matrix               ...        done! (  0.0s)
Performing Cholesky decomposition & store         ...        done! (  0.1s)
Overall time for CPCM initialization              ...                 0.1s

----------------------------------------D-I-I-S--------------------------------------------
Iteration    Energy (Eh)           Delta-E    RMSDP     MaxDP     DIISErr   Damp  Time(sec)
-------------------------------------------------------------------------------------------
               ***  Starting incremental Fock matrix formation  ***
    1    -1454.1043502943869044     0.00e+00  2.39e-02  1.23e+00  6.26e-01  0.700   5.9
    2    -1454.1954633010047928    -9.11e-02  1.71e-02  8.43e-01  4.41e-01  0.700   5.2
    3    -1454.2598899775841801    -6.44e-02  1.19e-02  5.75e-01  3.09e-01  0.700   5.1
    4    -1454.3051575224455974    -4.53e-02  8.28e-03  3.97e-01  2.17e-01  0.700   5.1
                               ***Turning on AO-DIIS***
    5    -1454.3369313356840848    -3.18e-02  5.76e-03  2.74e-01  1.52e-01  0.700   5.3
    6    -1454.3592054849716533    -2.23e-02  4.03e-03  1.92e-01  1.06e-01  0.700   6.1
    7    -1454.3748349356908420    -1.56e-02  2.82e-03  1.34e-01  7.41e-02  0.700   5.0
    8    -1454.3857880583702809    -1.10e-02  6.56e-03  3.12e-01  5.20e-02  0.000   4.7
                              *** Initializing SOSCF ***
---------------------------------------S-O-S-C-F--------------------------------------
Iteration    Energy (Eh)           Delta-E    RMSDP     MaxDP     MaxGrad    Time(sec)
--------------------------------------------------------------------------------------
    9    -1454.4113909605227946    -2.56e-02  2.79e-05  1.16e-03  2.10e-04     5.3
               *** Restarting incremental Fock matrix formation ***
   10    -1454.4113912903951586    -3.30e-07  2.34e-05  1.37e-03  7.06e-05     5.8
                  *** Gradient check signals convergence ***

               *****************************************************
               *                     SUCCESS                       *
               *           SCF CONVERGED AFTER  10 CYCLES          *
               *****************************************************


SMD CDS free energy correction energy :                 5.95234     Kcal/mol
Total Energy after SMD CDS correction =             -1454.401905638 Eh
             **** ENERGY FILE WAS UPDATED (sp_solv.en.tmp) ****

----------------
TOTAL SCF ENERGY
----------------

Total Energy       :      -1454.40190563785586 Eh          -39576.28787 eV

Components:
Nuclear Repulsion  :       1001.75534778485530 Eh           27259.14884 eV
Electronic Energy  :      -2456.13977196456881 Eh          -66834.96102 eV
One Electron Energy:      -3990.36692742984178 Eh         -108583.40437 eV
Two Electron Energy:       1534.22715546527297 Eh           41748.44335 eV
CPCM Dielectric    :         -0.02696711068146 Eh              -0.73381 eV
SMD CDS (Gcds)     :          0.00948565253937 Eh               0.25812 eV

Virial components:
Potential Energy   :      -2904.67588432826278 Eh          -79040.24914 eV
Kinetic Energy     :       1450.27397869040692 Eh           39463.96127 eV
Virial Ratio       :          2.00284630835835

DFT components:
N(Alpha)           :       55.999986614963 electrons
N(Beta)            :       55.999986614963 electrons
N(Total)           :      111.999973229927 electrons
E(X)               :     -123.792212644653 Eh       
E(C)               :       -3.924460576713 Eh       
E(XC)              :     -127.716673221367 Eh       

CPCM Solvation Model Properties:
Surface-charge          :         -0.02756828890746
Corrected charge        :         -0.00000000000000
Outlying charge corr.   :          0.00004866315576 Eh               0.00132 eV
Free-energy (cav+disp)  :          0.00948565253937 Eh               0.25812 eV

---------------
SCF CONVERGENCE
---------------

  Last Energy change         ...    3.2987e-07  Tolerance :   1.0000e-06
  Last MAX-Density change    ...    1.3726e-03  Tolerance :   1.0000e-05
  Last RMS-Density change    ...    2.3350e-05  Tolerance :   1.0000e-06
  Last DIIS Error            ...    2.1049e-04  Tolerance :   1.0000e-06
  Last Orbital Gradient      ...    7.0554e-05  Tolerance :   3.3300e-04
  Last Orbital Rotation      ...    4.3133e-04  Tolerance :   3.3300e-04


----------------
ORBITAL ENERGIES
----------------

  NO   OCC          E(Eh)            E(eV) 
   0   2.0000    -101.231714     -2754.6550 
   1   2.0000    -101.230121     -2754.6116 
   2   2.0000     -19.013279      -517.3776 
   3   2.0000     -18.994800      -516.8748 
   4   2.0000     -18.957316      -515.8548 
   5   2.0000     -10.188560      -277.2448 
   6   2.0000     -10.128649      -275.6145 
   7   2.0000     -10.120715      -275.3987 
   8   2.0000     -10.110630      -275.1242 
   9   2.0000     -10.080655      -274.3086 
  10   2.0000     -10.080347      -274.3002 
  11   2.0000     -10.062550      -273.8159 
  12   2.0000     -10.057352      -273.6745 
  13   2.0000      -9.387768      -255.4542 
  14   2.0000      -9.385990      -255.4058 
  15   2.0000      -7.134093      -194.1285 
  16   2.0000      -7.132303      -194.0798 
  17   2.0000      -7.124122      -193.8572 
  18   2.0000      -7.123318      -193.8353 
  19   2.0000      -7.122339      -193.8087 
  20   2.0000      -7.121599      -193.7886 
  21   2.0000      -1.092992       -29.7418 
  22   2.0000      -1.045900       -28.4604 
  23   2.0000      -1.000381       -27.2218 
  24   2.0000      -0.885633       -24.0993 
  25   2.0000      -0.855484       -23.2789 
  26   2.0000      -0.801437       -21.8082 
  27   2.0000      -0.759210       -20.6592 
  28   2.0000      -0.714421       -19.4404 
  29   2.0000      -0.673137       -18.3170 
  30   2.0000      -0.646596       -17.5948 
  31   2.0000      -0.590708       -16.0740 
  32   2.0000      -0.574827       -15.6418 
  33   2.0000      -0.518661       -14.1135 
  34   2.0000      -0.497226       -13.5302 
  35   2.0000      -0.487288       -13.2598 
  36   2.0000      -0.469537       -12.7767 
  37   2.0000      -0.453618       -12.3436 
  38   2.0000      -0.443839       -12.0775 
  39   2.0000      -0.433334       -11.7916 
  40   2.0000      -0.431097       -11.7308 
  41   2.0000      -0.409064       -11.1312 
  42   2.0000      -0.390271       -10.6198 
  43   2.0000      -0.383696       -10.4409 
  44   2.0000      -0.374827       -10.1996 
  45   2.0000      -0.362687        -9.8692 
  46   2.0000      -0.355361        -9.6699 
  47   2.0000      -0.331349        -9.0165 
  48   2.0000      -0.317455        -8.6384 
  49   2.0000      -0.300729        -8.1833 
  50   2.0000      -0.297838        -8.1046 
  51   2.0000      -0.292312        -7.9542 
  52   2.0000      -0.277457        -7.5500 
  53   2.0000      -0.268403        -7.3036 
  54   2.0000      -0.244001        -6.6396 
  55   2.0000      -0.225311        -6.1310 
  56   0.0000      -0.080390        -2.1875 
  57   0.0000      -0.052442        -1.4270 
  58   0.0000      -0.023244        -0.6325 
  59   0.0000      -0.007035        -0.1914 
  60   0.0000       0.013451         0.3660 
  61   0.0000       0.061014         1.6603 
  62   0.0000       0.075170         2.0455 
  63   0.0000       0.096920         2.6373 
  64   0.0000       0.106008         2.8846 
  65   0.0000       0.119274         3.2456 
  66   0.0000       0.128730         3.5029 
*Only the first 10 virtual orbitals were printed.

                    ********************************
                    * MULLIKEN POPULATION ANALYSIS *
                    ********************************

-----------------------
MULLIKEN ATOMIC CHARGES
-----------------------
   0 C :   -0.274106
   1 O :   -0.260917
   2 C :    0.281290
   3 C :   -0.002832
   4 C :   -0.197892
   5 C :   -0.264479
   6 C :    0.086424
   7 C :    0.052182
   8 C :    0.268870
   9 O :   -0.431027
  10 O :   -0.322059
  11 Cl:   -0.121159
  12 Cl:   -0.130197
  13 H :    0.181024
  14 H :    0.166396
  15 H :    0.172914
  16 H :    0.203576
  17 H :    0.201751
  18 H :    0.390239
Sum of atomic charges:   -0.0000000

--------------------------------
MULLIKEN REDUCED ORBITAL CHARGES
--------------------------------
  0 C s       :     3.316604  s :     3.316604
      pz      :     0.904254  p :     2.912352
      px      :     1.083428
      py      :     0.924670
      dz2     :     0.010541  d :     0.045149
      dxz     :     0.009039
      dyz     :     0.011257
      dx2y2   :     0.009579
      dxy     :     0.004733

  1 O s       :     3.726866  s :     3.726866
      pz      :     1.566480  p :     4.487445
      px      :     1.779058
      py      :     1.141907
      dz2     :     0.010827  d :     0.046606
      dxz     :     0.010536
      dyz     :     0.006881
      dx2y2   :     0.009242
      dxy     :     0.009119

  2 C s       :     3.160768  s :     3.160768
      pz      :     0.962535  p :     2.484317
      px      :     0.748531
      py      :     0.773250
      dz2     :     0.004853  d :     0.073625
      dxz     :     0.008056
      dyz     :     0.013061
      dx2y2   :     0.021614
      dxy     :     0.026041

  3 C s       :     3.206128  s :     3.206128
      pz      :     1.065439  p :     2.744050
      px      :     0.727626
      py      :     0.950985
      dz2     :     0.004066  d :     0.052654
      dxz     :     0.007991
      dyz     :     0.006916
      dx2y2   :     0.015873
      dxy     :     0.017808

  4 C s       :     3.231842  s :     3.231842
      pz      :     0.961707  p :     2.928957
      px      :     1.011608
      py      :     0.955642
      dz2     :     0.003447  d :     0.037093
      dxz     :     0.005309
      dyz     :     0.004950
      dx2y2   :     0.011373
      dxy     :     0.012014

  5 C s       :     3.242596  s :     3.242596
      pz      :     0.999806  p :     2.985399
      px      :     0.975011
      py      :     1.010582
      dz2     :     0.003430  d :     0.036484
      dxz     :     0.006333
      dyz     :     0.003128
      dx2y2   :     0.010490
      dxy     :     0.013103

  6 C s       :     3.219282  s :     3.219282
      pz      :     1.020665  p :     2.639394
      px      :     0.755441
      py      :     0.863288
      dz2     :     0.003991  d :     0.054899
      dxz     :     0.007989
      dyz     :     0.008344
      dx2y2   :     0.018148
      dxy     :     0.016427

  7 C s       :     3.219140  s :     3.219140
      pz      :     1.078645  p :     2.686830
      px      :     0.811983
      py      :     0.796203
      dz2     :     0.004147  d :     0.041847
      dxz     :     0.005823
      dyz     :     0.005569
      dx2y2   :     0.012248
      dxy     :     0.014060

  8 C s       :     3.119167  s :     3.119167
      pz      :     0.795698  p :     2.482296
      px      :     0.844709
      py      :     0.841889
      dz2     :     0.037761  d :     0.129666
      dxz     :     0.023654
      dyz     :     0.026548
      dx2y2   :     0.015470
      dxy     :     0.026234

  9 O s       :     3.827525  s :     3.827525
      pz      :     1.516248  p :     4.578458
      px      :     1.395706
      py      :     1.666505
      dz2     :     0.003273  d :     0.025044
      dxz     :     0.010596
      dyz     :     0.002929
      dx2y2   :     0.004406
      dxy     :     0.003840

 10 O s       :     3.721951  s :     3.721951
      pz      :     1.481843  p :     4.580005
      px      :     1.656290
      py      :     1.441872
      dz2     :     0.007625  d :     0.020104
      dxz     :     0.002806
      dyz     :     0.000379
      dx2y2   :     0.001806
      dxy     :     0.007488

 11 Cls       :     5.940039  s :     5.940039
      pz      :     3.920663  p :    11.124265
      px      :     3.276432
      py      :     3.927170
      dz2     :     0.006137  d :     0.056855
      dxz     :     0.018796
      dyz     :     0.001895
      dx2y2   :     0.017280
      dxy     :     0.012747

 12 Cls       :     5.939022  s :     5.939022
      pz      :     3.924800  p :    11.135608
      px      :     3.274168
      py      :     3.936641
      dz2     :     0.006028  d :     0.055566
      dxz     :     0.018769
      dyz     :     0.001572
      dx2y2   :     0.016725
      dxy     :     0.012471

 13 H s       :     0.801215  s :     0.801215
      pz      :     0.003597  p :     0.017761
      px      :     0.003935
      py      :     0.010230

 14 H s       :     0.815280  s :     0.815280
      pz      :     0.003656  p :     0.018324
      px      :     0.011706
      py      :     0.002962

 15 H s       :     0.809502  s :     0.809502
      pz      :     0.008973  p :     0.017584
      px      :     0.005680
      py      :     0.002932

 16 H s       :     0.776511  s :     0.776511
      pz      :     0.003754  p :     0.019913
      px      :     0.007620
      py      :     0.008539

 17 H s       :     0.778226  s :     0.778226
      pz      :     0.004018  p :     0.020022
      px      :     0.003895
      py      :     0.012109

 18 H s       :     0.569224  s :     0.569224
      pz      :     0.007961  p :     0.040536
      px      :     0.015970
      py      :     0.016606


------------------------
MULLIKEN OVERLAP CHARGES
------------------------
B(  0-C ,  1-O ) :   0.4051 B(  0-C ,  2-C ) :  -0.2824 B(  0-C , 13-H ) :   0.8032 
B(  0-C , 14-H ) :   0.7946 B(  0-C , 15-H ) :   0.8066 B(  1-O ,  2-C ) :   0.6766 
B(  1-O ,  3-C ) :  -0.2971 B(  1-O ,  7-C ) :  -0.1318 B(  1-O , 13-H ) :  -0.0844 
B(  1-O , 14-H ) :  -0.0625 B(  1-O , 15-H ) :  -0.0914 B(  2-C ,  3-C ) :  -0.3412 
B(  2-C ,  4-C ) :   0.5813 B(  2-C ,  5-C ) :  -0.6703 B(  2-C ,  6-C ) :   0.5402 
B(  2-C ,  7-C ) :  -0.9063 B(  2-C ,  8-C ) :  -0.3034 B(  2-C , 12-Cl) :  -0.2410 
B(  3-C ,  4-C ) :   0.0773 B(  3-C ,  5-C ) :   0.3206 B(  3-C ,  6-C ) :  -0.5551 
B(  3-C ,  7-C ) :   0.2399 B(  3-C ,  8-C ) :   0.0638 B(  3-C , 12-Cl) :   0.5970 
B(  3-C , 16-H ) :  -0.0689 B(  4-C ,  5-C ) :   0.2633 B(  4-C ,  6-C ) :   0.2491 
B(  4-C ,  7-C ) :  -0.5586 B(  4-C , 12-Cl) :  -0.1127 B(  4-C , 16-H ) :   0.8122 
B(  5-C ,  6-C ) :   0.2978 B(  5-C ,  7-C ) :   0.4026 B(  5-C ,  8-C ) :   0.0862 
B(  5-C , 11-Cl) :  -0.0906 B(  5-C , 16-H ) :  -0.0524 B(  5-C , 17-H ) :   0.8085 
B(  6-C ,  7-C ) :  -0.1985 B(  6-C ,  8-C ) :  -0.2496 B(  6-C , 11-Cl) :   0.6079 
B(  6-C , 17-H ) :  -0.0742 B(  7-C ,  8-C ) :   0.3427 B(  7-C ,  9-O ) :  -0.1999 
B(  7-C , 10-O ) :  -0.2422 B(  7-C , 11-Cl) :  -0.2285 B(  8-C ,  9-O ) :   1.0985 
B(  8-C , 10-O ) :   0.4888 B(  8-C , 14-H ) :   0.0521 B(  8-C , 18-H ) :  -0.0560 
B(  9-O , 10-O ) :  -0.2032 B( 10-O , 18-H ) :   0.6212 B( 14-H , 15-H ) :  -0.0592 



                     *******************************
                     * LOEWDIN POPULATION ANALYSIS *
                     *******************************

----------------------
LOEWDIN ATOMIC CHARGES
----------------------
   0 C :   -0.026961
   1 O :   -0.715184
   2 C :    0.197517
   3 C :   -0.141882
   4 C :   -0.135879
   5 C :   -0.162895
   6 C :   -0.134340
   7 C :   -0.028538
   8 C :    0.349467
   9 O :   -0.458694
  10 O :   -0.354064
  11 Cl:    0.174149
  12 Cl:    0.164983
  13 H :    0.190377
  14 H :    0.182599
  15 H :    0.177029
  16 H :    0.197739
  17 H :    0.196050
  18 H :    0.328525

-------------------------------
LOEWDIN REDUCED ORBITAL CHARGES
-------------------------------
  0 C s       :     2.902812  s :     2.902812
      pz      :     0.958831  p :     3.016809
      px      :     1.089650
      py      :     0.968328
      dz2     :     0.024805  d :     0.107339
      dxz     :     0.022250
      dyz     :     0.026304
      dx2y2   :     0.024248
      dxy     :     0.009733

  1 O s       :     3.464261  s :     3.464261
      pz      :     1.621659  p :     4.745462
      px      :     1.766129
      py      :     1.357675
      dz2     :     0.098856  d :     0.505461
      dxz     :     0.060294
      dyz     :     0.121033
      dx2y2   :     0.123000
      dxy     :     0.102278

  2 C s       :     2.770875  s :     2.770875
      pz      :     0.917008  p :     2.868113
      px      :     1.029216
      py      :     0.921889
      dz2     :     0.010814  d :     0.163494
      dxz     :     0.015078
      dyz     :     0.026052
      dx2y2   :     0.049723
      dxy     :     0.061827

  3 C s       :     2.886696  s :     2.886696
      pz      :     1.041928  p :     3.142581
      px      :     0.998400
      py      :     1.102252
      dz2     :     0.008075  d :     0.112605
      dxz     :     0.014830
      dyz     :     0.012132
      dx2y2   :     0.036658
      dxy     :     0.040909

  4 C s       :     2.903883  s :     2.903883
      pz      :     0.957279  p :     3.150283
      px      :     1.110024
      py      :     1.082979
      dz2     :     0.005983  d :     0.081714
      dxz     :     0.009406
      dyz     :     0.009002
      dx2y2   :     0.027466
      dxy     :     0.029857

  5 C s       :     2.901987  s :     2.901987
      pz      :     0.994313  p :     3.180050
      px      :     1.086386
      py      :     1.099350
      dz2     :     0.005966  d :     0.080858
      dxz     :     0.011842
      dyz     :     0.004999
      dx2y2   :     0.026323
      dxy     :     0.031729

  6 C s       :     2.884906  s :     2.884906
      pz      :     1.011351  p :     3.131661
      px      :     1.013358
      py      :     1.106952
      dz2     :     0.007848  d :     0.117773
      dxz     :     0.014595
      dyz     :     0.015272
      dx2y2   :     0.041283
      dxy     :     0.038775

  7 C s       :     2.847617  s :     2.847617
      pz      :     1.031707  p :     3.093458
      px      :     1.027285
      py      :     1.034466
      dz2     :     0.007638  d :     0.087463
      dxz     :     0.010458
      dyz     :     0.009974
      dx2y2   :     0.028447
      dxy     :     0.030946

  8 C s       :     2.735517  s :     2.735517
      pz      :     0.879351  p :     2.635622
      px      :     0.906905
      py      :     0.849366
      dz2     :     0.079186  d :     0.279394
      dxz     :     0.058083
      dyz     :     0.057725
      dx2y2   :     0.031121
      dxy     :     0.053279

  9 O s       :     3.548957  s :     3.548957
      pz      :     1.556108  p :     4.688951
      px      :     1.503204
      py      :     1.629640
      dz2     :     0.049079  d :     0.220786
      dxz     :     0.057480
      dyz     :     0.029135
      dx2y2   :     0.039947
      dxy     :     0.045145

 10 O s       :     3.463930  s :     3.463930
      pz      :     1.548057  p :     4.651992
      px      :     1.618278
      py      :     1.485656
      dz2     :     0.059317  d :     0.238141
      dxz     :     0.047030
      dyz     :     0.059963
      dx2y2   :     0.028727
      dxy     :     0.043104

 11 Cls       :     5.637764  s :     5.637764
      pz      :     3.893863  p :    11.070204
      px      :     3.316126
      py      :     3.860215
      dz2     :     0.015154  d :     0.117884
      dxz     :     0.032296
      dyz     :     0.002899
      dx2y2   :     0.041880
      dxy     :     0.025655

 12 Cls       :     5.638069  s :     5.638069
      pz      :     3.897069  p :    11.080316
      px      :     3.310358
      py      :     3.872890
      dz2     :     0.014558  d :     0.116632
      dxz     :     0.032688
      dyz     :     0.002618
      dx2y2   :     0.040208
      dxy     :     0.026560

 13 H s       :     0.768983  s :     0.768983
      pz      :     0.008847  p :     0.040640
      px      :     0.008856
      py      :     0.022937

 14 H s       :     0.774651  s :     0.774651
      pz      :     0.007750  p :     0.042750
      px      :     0.028383
      py      :     0.006616

 15 H s       :     0.781946  s :     0.781946
      pz      :     0.020442  p :     0.041025
      px      :     0.013754
      py      :     0.006829

 16 H s       :     0.755537  s :     0.755537
      pz      :     0.008443  p :     0.046724
      px      :     0.017982
      py      :     0.020299

 17 H s       :     0.756888  s :     0.756888
      pz      :     0.009213  p :     0.047062
      px      :     0.008657
      py      :     0.029193

 18 H s       :     0.555570  s :     0.555570
      pz      :     0.020910  p :     0.115905
      px      :     0.047601
      py      :     0.047393


---------------------------------
LOEWDIN BOND ORDERS (THRESH 0.050000)
---------------------------------
B(  0-C ,  1-O ) :   1.3722 B(  0-C ,  2-C ) :   0.0783 B(  0-C , 13-H ) :   0.8579 
B(  0-C , 14-H ) :   0.8358 B(  0-C , 15-H ) :   0.8583 B(  1-O ,  2-C ) :   1.4403 
B(  1-O ,  3-C ) :   0.2073 B(  1-O ,  7-C ) :   0.1889 B(  1-O , 12-Cl) :   0.0866 
B(  1-O , 13-H ) :   0.1005 B(  1-O , 14-H ) :   0.1023 B(  1-O , 15-H ) :   0.1051 
B(  2-C ,  3-C ) :   1.2488 B(  2-C ,  4-C ) :   0.0926 B(  2-C ,  5-C ) :   0.1006 
B(  2-C ,  6-C ) :   0.0899 B(  2-C ,  7-C ) :   1.2416 B(  2-C ,  8-C ) :   0.0741 
B(  2-C , 12-Cl) :   0.1434 B(  3-C ,  4-C ) :   1.4316 B(  3-C ,  5-C ) :   0.0962 
B(  3-C ,  6-C ) :   0.1034 B(  3-C ,  7-C ) :   0.0893 B(  3-C , 12-Cl) :   1.4058 
B(  3-C , 16-H ) :   0.0536 B(  4-C ,  5-C ) :   1.4947 B(  4-C ,  6-C ) :   0.0961 
B(  4-C ,  7-C ) :   0.1067 B(  4-C , 12-Cl) :   0.1543 B(  4-C , 16-H ) :   0.8565 
B(  4-C , 17-H ) :   0.0534 B(  5-C ,  6-C ) :   1.4289 B(  5-C ,  7-C ) :   0.0910 
B(  5-C , 11-Cl) :   0.1556 B(  5-C , 16-H ) :   0.0533 B(  5-C , 17-H ) :   0.8576 
B(  6-C ,  7-C ) :   1.3451 B(  6-C ,  8-C ) :   0.0813 B(  6-C , 11-Cl) :   1.3995 
B(  6-C , 17-H ) :   0.0536 B(  7-C ,  8-C ) :   0.8690 B(  7-C ,  9-O ) :   0.1773 
B(  7-C , 10-O ) :   0.1713 B(  7-C , 11-Cl) :   0.1474 B(  8-C ,  9-O ) :   2.1643 
B(  8-C , 10-O ) :   1.5169 B(  8-C , 11-Cl) :   0.0520 B(  8-C , 18-H ) :   0.0533 
B(  9-O , 10-O ) :   0.4689 B(  9-O , 11-Cl) :   0.0662 B( 10-O , 18-H ) :   0.8904 


------------------------------------------
LOEWDIN REDUCED ORBITAL POPULATIONS PER MO
-------------------------------------------
THRESHOLD FOR PRINTING IS 0.1%%
                      0         1         2         3         4         5   
                 -101.23171 -101.23012 -19.01328 -18.99480 -18.95732 -10.18856
                   2.00000   2.00000   2.00000   2.00000   2.00000   2.00000
                  --------  --------  --------  --------  --------  --------
 1 O  s               0.0       0.0       0.0      99.9       0.0       0.0
 8 C  s               0.0       0.0       0.0       0.0       0.0      98.9
 9 O  s               0.0       0.0       0.0       0.0      99.9       0.0
 9 O  px              0.0       0.0       0.0       0.0       0.0       0.1
 9 O  dxz             0.0       0.0       0.0       0.0       0.0       0.2
10 O  s               0.0       0.0      99.9       0.0       0.0       0.0
10 O  dyz             0.0       0.0       0.0       0.0       0.0       0.2
11 Cl s             100.0       0.0       0.0       0.0       0.0       0.0
12 Cl s               0.0     100.0       0.0       0.0       0.0       0.0

                      6         7         8         9        10        11   
                 -10.12865 -10.12072 -10.11063 -10.08066 -10.08035 -10.06255
                   2.00000   2.00000   2.00000   2.00000   2.00000   2.00000
                  --------  --------  --------  --------  --------  --------
 0 C  s               0.0       0.0       0.0      99.4       0.0       0.0
 1 O  py              0.1       0.0       0.0       0.0       0.0       0.0
 1 O  dyz             0.0       0.0       0.0       0.2       0.0       0.0
 1 O  dx2y2           0.1       0.0       0.0       0.0       0.0       0.0
 2 C  s              99.2       0.0       0.0       0.0       0.0       0.0
 2 C  px              0.0       0.0       0.1       0.0       0.1       0.0
 3 C  s               0.0       0.0      99.5       0.0       0.0       0.0
 3 C  py              0.1       0.0       0.0       0.0       0.0       0.1
 4 C  s               0.0       0.0       0.0       0.0       0.0      99.4
 4 C  py              0.0       0.0       0.1       0.0       0.0       0.0
 5 C  s               0.0       0.0       0.0       0.0       0.0       0.2
 5 C  px              0.0       0.1       0.0       0.0       0.0       0.1
 6 C  s               0.0      99.5       0.0       0.0       0.0       0.0
 6 C  py              0.0       0.0       0.0       0.0       0.1       0.0
 7 C  s               0.0       0.0       0.0       0.0      99.5       0.0
 7 C  px              0.1       0.0       0.0       0.0       0.0       0.0
 7 C  py              0.0       0.1       0.0       0.0       0.0       0.0

                     12        13        14        15        16        17   
                 -10.05735  -9.38777  -9.38599  -7.13409  -7.13230  -7.12412
                   2.00000   2.00000   2.00000   2.00000   2.00000   2.00000
                  --------  --------  --------  --------  --------  --------
 3 C  px              0.0       0.0       0.2       0.0       0.0       0.0
 4 C  s               0.2       0.0       0.0       0.0       0.0       0.0
 4 C  px              0.1       0.0       0.0       0.0       0.0       0.0
 5 C  s              99.4       0.0       0.0       0.0       0.0       0.0
 6 C  px              0.1       0.2       0.0       0.0       0.0       0.0
11 Cl s               0.0      99.8       0.0       0.0       0.0       0.0
11 Cl pz              0.0       0.0       0.0       0.0       0.0      98.9
11 Cl px              0.0       0.0       0.0      94.6       0.0       0.1
11 Cl py              0.0       0.0       0.0       5.4       0.0       0.9
12 Cl s               0.0       0.0      99.8       0.0       0.0       0.0
12 Cl pz              0.0       0.0       0.0       0.0       0.1       0.0
12 Cl px              0.0       0.0       0.0       0.0      95.9       0.0
12 Cl py              0.0       0.0       0.0       0.0       4.0       0.0

                     18        19        20        21        22        23   
                  -7.12332  -7.12234  -7.12160  -1.09299  -1.04590  -1.00038
                   2.00000   2.00000   2.00000   2.00000   2.00000   2.00000
                  --------  --------  --------  --------  --------  --------
 0 C  s               0.0       0.0       0.0       0.1       6.2       0.0
 0 C  pz              0.0       0.0       0.0       0.1       3.2       0.0
 0 C  px              0.0       0.0       0.0       0.0       0.3       0.0
 0 C  py              0.0       0.0       0.0       0.1       3.3       0.0
 0 C  dyz             0.0       0.0       0.0       0.0       0.4       0.0
 1 O  s               0.0       0.0       0.0       0.4      55.5       0.0
 1 O  pz              0.0       0.0       0.0       0.0       1.0       0.0
 1 O  px              0.0       0.0       0.0       0.0       0.9       0.0
 1 O  py              0.0       0.0       0.0       0.0       0.6       0.0
 1 O  dx2y2           0.0       0.0       0.0       0.0       0.2       0.0
 2 C  s               0.0       0.0       0.0       0.3       9.7       0.0
 2 C  px              0.0       0.0       0.0       0.3       1.1       0.0
 2 C  py              0.0       0.0       0.0       0.1       7.5       0.0
 2 C  dz2             0.0       0.0       0.0       0.0       0.3       0.0
 2 C  dx2y2           0.0       0.0       0.0       0.0       0.4       0.0
 2 C  dxy             0.0       0.0       0.0       0.0       0.2       0.0
 3 C  s               0.0       0.0       0.0       0.0       1.0       0.0
 3 C  px              0.0       0.0       0.0       0.0       0.2       0.0
 3 C  py              0.0       0.0       0.0       0.0       1.3       0.0
 4 C  py              0.0       0.0       0.0       0.0       0.1       0.0
 6 C  s               0.0       0.0       0.0       0.1       0.1       0.1
 6 C  py              0.0       0.0       0.0       0.3       0.0       0.1
 7 C  s               0.0       0.0       0.0       1.4       0.7       0.2
 7 C  pz              0.0       0.0       0.0       0.1       0.0       0.2
 7 C  px              0.0       0.0       0.0       0.8       1.5       0.3
 7 C  py              0.0       0.0       0.0       1.5       0.2       0.0
 8 C  s               0.0       0.0       0.0      18.7       0.1       2.4
 8 C  pz              0.0       0.0       0.0       0.9       0.0      16.4
 8 C  px              0.0       0.0       0.0       0.9       0.5       8.2
 8 C  py              0.0       0.0       0.0       2.8       0.1       0.7
 8 C  dz2             0.0       0.0       0.0       0.2       0.0       0.1
 8 C  dxz             0.0       0.0       0.0       0.5       0.0       0.7
 8 C  dyz             0.0       0.0       0.0       0.4       0.0       0.5
 8 C  dx2y2           0.0       0.0       0.0       0.0       0.0       0.5
 8 C  dxy             0.0       0.0       0.0       0.0       0.0       0.1
 9 O  s               0.0       0.0       0.0      15.5       0.3      38.9
 9 O  pz              0.0       0.0       0.0       1.8       0.0       1.0
 9 O  px              0.0       0.0       0.0       1.8       0.0       1.9
 9 O  py              0.0       0.0       0.0       0.0       0.0       0.2
 9 O  dz2             0.0       0.0       0.0       0.2       0.0       0.1
 9 O  dxz             0.0       0.0       0.0       1.1       0.0       0.1
 9 O  dx2y2           0.0       0.0       0.0       0.2       0.0       0.0
10 O  s               0.0       0.0       0.0      38.3       0.4      21.3
10 O  pz              0.0       0.0       0.0       2.3       0.0       0.5
10 O  px              0.0       0.0       0.0       0.8       0.0       0.2
10 O  py              0.0       0.0       0.0       0.3       0.0       0.1
10 O  dz2             0.0       0.0       0.0       0.3       0.0       0.3
10 O  dxz             0.0       0.0       0.0       0.2       0.0       0.4
10 O  dyz             0.0       0.0       0.0       0.5       0.0       0.1
10 O  dxy             0.0       0.0       0.0       0.0       0.0       0.1
11 Cl pz              1.0       0.0       0.0       0.0       0.0       0.0
11 Cl px              5.3       0.0       0.0       0.0       0.0       0.0
11 Cl py             93.7       0.0       0.0       0.0       0.0       0.0
12 Cl s               0.0       0.0       0.0       0.0       0.1       0.0
12 Cl pz              0.0      99.2       0.7       0.0       0.0       0.0
12 Cl px              0.0       0.0       4.1       0.0       0.1       0.0
12 Cl py              0.0       0.8      95.2       0.0       0.0       0.0
13 H  s               0.0       0.0       0.0       0.0       0.4       0.0
14 H  s               0.0       0.0       0.0       0.0       0.4       0.0
15 H  s               0.0       0.0       0.0       0.0       0.4       0.0
18 H  s               0.0       0.0       0.0       5.3       0.1       2.9
18 H  px              0.0       0.0       0.0       0.5       0.0       0.4
18 H  py              0.0       0.0       0.0       0.7       0.0       0.4

                     24        25        26        27        28        29   
                  -0.88563  -0.85548  -0.80144  -0.75921  -0.71442  -0.67314
                   2.00000   2.00000   2.00000   2.00000   2.00000   2.00000
                  --------  --------  --------  --------  --------  --------
 0 C  s               0.4       0.3       0.3       1.9       9.1      13.1
 0 C  pz              0.1       0.1       0.1       0.2       0.1       0.1
 0 C  px              0.0       0.0       0.1       0.1       0.0       0.0
 0 C  py              0.1       0.0       0.0       0.1       0.1       0.3
 1 O  s               1.4       0.5       0.4       0.9       0.0       1.4
 1 O  pz              0.1       0.0       0.1       0.4       1.8       2.6
 1 O  px              0.0       0.1       0.2       0.2       0.0       0.2
 1 O  py              0.8       0.5       0.7       3.2      10.7       6.5
 1 O  dz2             0.2       0.1       0.1       0.3       0.2       0.1
 1 O  dxz             0.0       0.0       0.0       0.0       0.1       0.1
 1 O  dyz             0.0       0.0       0.0       0.1       0.6       0.6
 1 O  dx2y2           0.1       0.1       0.0       0.0       0.3       0.1
 1 O  dxy             0.0       0.1       0.5       0.4       0.2       0.0
 2 C  s               4.1       0.9       3.5       4.7       6.2       0.1
 2 C  pz              0.0       0.0       0.0       0.0       0.2       0.4
 2 C  px              0.2       2.8       2.6       2.8       4.0       0.3
 2 C  py              4.4       1.5       1.0       0.1       0.4       3.5
 2 C  dx2y2           0.0       0.0       0.0       0.2       0.1       0.0
 2 C  dxy             0.0       0.1       0.0       0.0       0.0       0.2
 3 C  s              10.5      13.1       0.1       0.3       4.3       5.0
 3 C  px              0.0       4.8      10.8       0.2       4.8       1.2
 3 C  py              0.1       0.1       0.5       6.9       0.4       3.0
 3 C  dz2             0.1       0.2       0.0       0.0       0.0       0.0
 3 C  dx2y2           0.0       0.1       0.1       0.1       0.2       0.1
 3 C  dxy             0.0       0.0       0.0       0.1       0.1       0.0
 4 C  s               7.1       2.2       2.8      14.3       0.4       3.7
 4 C  px              0.5       1.4       1.5       1.8       0.6       3.4
 4 C  py              1.4       1.8       0.0       0.3       1.1       2.0
 4 C  dz2             0.1       0.0       0.0       0.1       0.0       0.0
 4 C  dx2y2           0.0       0.0       0.0       0.0       0.1       0.2
 5 C  s               8.5       0.4       2.6      14.0       2.1       6.0
 5 C  px              0.1       2.7       1.3       1.9       0.7       3.8
 5 C  py              2.4       0.2       0.4       0.2       0.3       0.2
 5 C  dz2             0.1       0.0       0.0       0.1       0.0       0.0
 5 C  dxy             0.0       0.0       0.0       0.0       0.0       0.1
 6 C  s              17.3       7.3       0.1       0.1       3.9       4.4
 6 C  px              0.1       4.2      12.3       0.9       2.8       2.5
 6 C  py              0.0       0.1       1.2       9.1       0.6       2.1
 6 C  dz2             0.2       0.1       0.0       0.0       0.0       0.0
 6 C  dx2y2           0.0       0.1       0.2       0.1       0.2       0.0
 6 C  dxy             0.0       0.0       0.0       0.2       0.0       0.1
 7 C  s               8.4       0.9       6.0      12.0       3.8       0.3
 7 C  px              0.0       1.4       1.6       0.1       3.2       0.0
 7 C  py              2.9       0.8       0.0       1.2       0.3       2.1
 7 C  dx2y2           0.0       0.0       0.0       0.0       0.2       0.1
 8 C  s               0.3       0.0       0.3       1.6       1.1       0.8
 8 C  px              0.7       0.1       1.0       3.3       1.6       0.9
 8 C  py              1.4       0.5       0.4       2.5       1.0       0.2
 9 O  s               0.4       0.2       0.1       0.7       0.5       0.3
 9 O  px              0.0       0.0       0.0       0.2       0.2       0.1
 9 O  py              0.0       0.0       0.0       0.1       0.1       0.1
 9 O  dxy             0.0       0.0       0.0       0.2       0.1       0.0
10 O  s               0.0       0.0       0.1       0.5       0.2       0.2
10 O  pz              0.0       0.0       0.1       0.4       0.4       0.7
10 O  px              0.0       0.0       0.1       0.4       0.3       0.3
10 O  py              0.0       0.0       0.2       1.2       0.9       1.1
10 O  dyz             0.0       0.0       0.1       0.3       0.1       0.1
11 Cl s              13.3      18.4      25.0       0.0       8.6       4.5
11 Cl px              1.5       1.0       0.2       0.0       0.8       1.2
11 Cl dz2             0.1       0.1       0.0       0.0       0.0       0.1
11 Cl dx2y2           0.2       0.2       0.0       0.0       0.1       0.2
12 Cl s               6.7      27.7      19.8       1.6      10.6       3.6
12 Cl px              0.8       1.5       0.2       0.0       1.0       0.8
12 Cl py              0.1       0.1       0.0       0.1       0.0       0.3
12 Cl dz2             0.1       0.1       0.0       0.0       0.1       0.0
12 Cl dx2y2           0.1       0.3       0.0       0.0       0.1       0.1
12 Cl dxy             0.0       0.1       0.0       0.0       0.0       0.1
13 H  s               0.1       0.0       0.1       0.4       2.1       3.3
13 H  py              0.0       0.0       0.0       0.0       0.2       0.2
14 H  s               0.0       0.0       0.0       0.2       1.8       3.3
14 H  px              0.0       0.0       0.0       0.0       0.1       0.2
15 H  s               0.0       0.0       0.0       0.3       1.6       3.0
15 H  pz              0.0       0.0       0.0       0.0       0.1       0.2
16 H  s               0.6       0.2       0.2       2.0       0.0       0.9
17 H  s               0.7       0.0       0.2       2.0       0.3       1.5
17 H  py              0.0       0.0       0.0       0.2       0.0       0.1
18 H  s               0.0       0.0       0.1       0.6       0.4       0.5

                     30        31        32        33        34        35   
                  -0.64660  -0.59071  -0.57483  -0.51866  -0.49723  -0.48729
                   2.00000   2.00000   2.00000   2.00000   2.00000   2.00000
                  --------  --------  --------  --------  --------  --------
 0 C  s               6.1       3.7       0.2       1.6       0.0       1.4
 0 C  pz              0.3       1.9       0.3       5.7       0.4       7.7
 0 C  px              0.0       0.4       0.9       0.7       4.2       0.6
 0 C  py              0.3       0.6       0.0       0.7       0.0       0.9
 0 C  dyz             0.0       0.1       0.0       0.1       0.0       0.1
 1 O  s               1.0       3.0       1.0       1.1       0.4       0.3
 1 O  pz              1.4       0.6       0.1       0.2       0.1       0.4
 1 O  px              0.1       0.3       3.1       0.0       8.1       0.0
 1 O  py              1.2       1.0       0.6       9.5       1.9      13.3
 1 O  dz2             0.0       0.0       0.0       0.1       0.0       0.2
 1 O  dxz             0.1       0.0       0.1       0.0       0.1       0.0
 1 O  dyz             0.2       0.2       0.0       0.1       0.0       0.2
 1 O  dx2y2           0.7       0.3       0.1       0.2       0.5       0.0
 1 O  dxy             0.0       0.0       0.6       0.3       0.2       0.1
 2 C  s               1.3       3.2       1.7       0.0       0.0       0.3
 2 C  pz              0.4       0.1       0.0       0.1       0.0       0.2
 2 C  px              0.0       0.3      11.9       6.4       4.4       0.9
 2 C  py              4.9       0.9       1.2       2.2       4.9       2.5
 2 C  dx2y2           0.0       0.0       0.1       0.0       0.0       0.1
 2 C  dxy             0.0       0.2       0.1       0.0       0.0       0.3
 3 C  s               0.6       0.0       5.0       0.5       0.1       2.3
 3 C  px              1.0       0.7       0.0       1.8       2.5       0.3
 3 C  py              3.5       8.7       0.2       1.8       9.5       0.0
 4 C  s               5.7       3.6       1.4       0.1       0.1       1.7
 4 C  px              0.0       4.2       1.0       0.4      11.0       0.2
 4 C  py              1.9       0.2       5.2       2.2       2.3       3.2
 5 C  s               1.3       4.6       0.9       0.7       0.8       1.2
 5 C  px              3.0       2.4       4.1       0.1       8.4       4.9
 5 C  py              1.5       0.9       2.4       4.5       1.4       1.6
 5 C  dxy             0.1       0.0       0.1       0.0       0.1       0.0
 6 C  s               2.1       0.7       4.4       0.1       2.0       1.0
 6 C  pz              0.0       0.0       0.0       0.0       0.1       0.2
 6 C  px              0.6       0.5       0.0       3.0       0.3       0.1
 6 C  py              0.5      11.8       0.0       0.0       5.4       6.0
 7 C  s               0.1       2.2       1.9       0.0       0.2       0.2
 7 C  pz              0.4       0.1       0.2       0.1       0.0       0.2
 7 C  px              3.1       4.4       6.4       9.7       2.6       0.0
 7 C  py              6.9       3.2       4.1       1.9       0.9       8.6
 7 C  dx2y2           0.0       0.1       0.2       0.0       0.0       0.1
 7 C  dxy             0.1       0.1       0.0       0.0       0.1       0.3
 8 C  s               5.1       0.6       1.0       0.5       0.4       0.5
 8 C  pz              1.2       1.1       2.4       2.2       0.3       3.6
 8 C  px              3.1       0.2       0.3       0.7       0.7       2.7
 8 C  py              0.6       2.8       0.3       5.5       3.3       2.2
 9 O  s               1.3       0.0       0.4       0.9       0.6       0.2
 9 O  pz              0.3       0.1       0.8       0.0       1.0       0.5
 9 O  px              0.8       0.0       0.1       1.9       0.2       2.5
 9 O  py              0.1       0.5       0.0       2.2       1.9       1.0
 9 O  dz2             0.0       0.0       0.1       0.1       0.0       0.2
 9 O  dxz             0.3       0.0       0.1       0.0       0.0       0.0
 9 O  dyz             0.1       0.0       0.0       0.1       0.1       0.0
 9 O  dx2y2           0.2       0.1       0.0       0.0       0.1       0.1
 9 O  dxy             0.1       0.2       0.0       0.3       0.1       0.1
10 O  s               1.1       0.4       0.3       0.1       0.0       0.2
10 O  pz              5.8       5.5       4.0       3.8       0.6       2.5
10 O  px              2.3       1.0       0.2       0.1       1.1       0.6
10 O  py             11.1       5.5       7.1       2.7       0.2       2.7
10 O  dz2             0.1       0.2       0.0       0.0       0.1       0.0
10 O  dxz             0.0       0.0       0.1       0.1       0.0       0.2
10 O  dyz             0.4       0.0       0.0       0.2       0.1       0.2
10 O  dx2y2           0.1       0.0       0.0       0.1       0.1       0.0
10 O  dxy             0.1       0.1       0.3       0.0       0.0       0.1
11 Cl s               0.7       0.5       3.7       1.8       1.3       0.1
11 Cl px              0.3       0.2       3.6       3.1       5.9       0.2
11 Cl py              0.0       1.0       0.3       0.5       0.3       1.2
11 Cl dz2             0.0       0.0       0.1       0.1       0.1       0.0
11 Cl dx2y2           0.0       0.0       0.2       0.0       0.4       0.0
11 Cl dxy             0.0       0.2       0.1       0.1       0.0       0.2
12 Cl s               0.1       0.1       4.3       2.2       0.4       0.9
12 Cl px              0.1       0.0       4.3       4.7       0.6       3.5
12 Cl py              0.0       0.4       0.0       0.0       2.9       0.3
12 Cl dz2             0.0       0.0       0.1       0.1       0.0       0.0
12 Cl dx2y2           0.0       0.0       0.3       0.2       0.0       0.1
12 Cl dxy             0.0       0.1       0.0       0.0       0.4       0.1
13 H  s               1.7       1.1       0.0       0.4       0.1       0.3
13 H  py              0.1       0.0       0.0       0.0       0.0       0.0
14 H  s               1.3       2.1       0.5       2.1       1.6       1.7
14 H  px              0.1       0.1       0.0       0.1       0.1       0.1
15 H  s               1.8       1.7       0.1       2.0       0.0       2.6
16 H  s               2.1       2.1       1.1       0.7       0.5       2.3
16 H  px              0.1       0.0       0.1       0.0       0.0       0.1
16 H  py              0.1       0.1       0.0       0.0       0.1       0.0
[...]
14 H  px              2.4       0.0       0.3       0.0       0.0       0.0
15 H  s               0.1       0.0       0.4       0.0       0.0       0.0
15 H  pz              0.3       0.0       0.3       0.0       0.0       0.0
15 H  px              0.0       0.0       0.4       0.0       0.0       0.0
15 H  py              0.1       0.0       0.2       0.0       0.1       0.0
16 H  s               0.1       5.2       0.1       0.0       0.1       0.0
16 H  px              0.1       5.2       0.1       0.0       0.1       0.0
16 H  py              0.2       7.3       0.0       0.0       0.1       0.0
17 H  s               0.0       5.6       0.1       0.0       0.1       0.0
17 H  px              0.0       1.1       0.0       0.0       0.0       0.0
17 H  py              0.2      12.5       0.1       0.0       0.1       0.0
18 H  s               0.0       0.0       0.0       1.6       0.2       1.1
18 H  pz              1.0       0.0       0.0       0.1       0.0       0.1
18 H  px              0.3       0.0       0.0       1.7       0.2       0.7
18 H  py              0.0       0.0       0.0       1.7       0.2       0.9

                    294       295       296       297       298       299   
                   4.59406  21.32961  21.84060  21.95669  22.05979  22.12162
                   0.00000   0.00000   0.00000   0.00000   0.00000   0.00000
                  --------  --------  --------  --------  --------  --------
 0 C  s               0.0       0.0       6.0       0.3      85.4       3.7
 2 C  s               0.0      10.2       1.6      19.9       0.1       6.1
 2 C  px              0.0       0.0       0.2       0.0       0.0       0.0
 3 C  s               0.0      19.3      39.8       3.8       1.0      24.1
 4 C  s               0.0      12.6      11.6      15.0       5.8      14.5
 5 C  s               0.0      12.5       0.3      35.1       0.7       6.8
 6 C  s               0.0      25.2      24.9       3.2       5.5      28.5
 6 C  py              0.0       0.0       0.0       0.1       0.0       0.0
 7 C  s               0.0      19.6      14.4      21.3       0.8      15.8
 8 C  s               0.4       0.3       0.7       0.6       0.2       0.0
 8 C  pz              2.8       0.0       0.0       0.0       0.0       0.0
 8 C  px              1.1       0.0       0.0       0.0       0.0       0.0
 8 C  py              0.2       0.0       0.0       0.0       0.0       0.0
 8 C  dz2             0.6       0.0       0.0       0.0       0.0       0.0
 8 C  dxz             0.5       0.0       0.0       0.0       0.0       0.0
 8 C  dyz             1.3       0.0       0.0       0.0       0.0       0.0
 8 C  dx2y2           0.9       0.0       0.0       0.0       0.0       0.0
 8 C  dxy             0.7       0.0       0.0       0.0       0.0       0.0
 9 O  s               3.0       0.0       0.0       0.0       0.0       0.0
 9 O  pz              1.5       0.0       0.0       0.0       0.0       0.0
 9 O  px              1.9       0.0       0.0       0.0       0.0       0.0
 9 O  dz2             0.4       0.0       0.0       0.0       0.0       0.0
 9 O  dxz             3.9       0.0       0.0       0.0       0.0       0.0
 9 O  dx2y2           1.0       0.0       0.0       0.0       0.0       0.0
10 O  s               4.1       0.0       0.0       0.0       0.0       0.0
10 O  pz              2.4       0.0       0.0       0.0       0.0       0.0
10 O  px              5.9       0.0       0.0       0.0       0.0       0.0
10 O  py             11.1       0.0       0.0       0.0       0.0       0.0
10 O  dz2            10.0       0.0       0.0       0.0       0.0       0.0
10 O  dxz             0.8       0.0       0.0       0.0       0.0       0.0
10 O  dyz             0.3       0.0       0.0       0.0       0.0       0.0
10 O  dx2y2           0.2       0.0       0.0       0.0       0.0       0.0
10 O  dxy            21.1       0.0       0.0       0.0       0.0       0.0
18 H  s              10.5       0.0       0.0       0.0       0.0       0.0
18 H  pz              0.2       0.0       0.0       0.0       0.0       0.0
18 H  px              6.0       0.0       0.0       0.0       0.0       0.0
18 H  py              6.5       0.0       0.0       0.0       0.0       0.0

                    300       301       302       303       304       305   
                  22.17156  22.30086  22.30324  25.42628  25.48256  43.66583
                   0.00000   0.00000   0.00000   0.00000   0.00000   0.00000
                  --------  --------  --------  --------  --------  --------
 0 C  s               3.9       0.1       0.1       0.0       0.0       0.0
 1 O  s               0.0       0.0       0.0       0.0       0.0       6.9
 2 C  s              35.2       2.6      23.8       0.0       0.0       0.0
 3 C  s               0.0       0.6      10.7       0.0       0.0       0.0
 3 C  px              0.0       0.0       0.0       0.2       0.3       0.0
 4 C  s              22.6       0.5      16.9       0.0       0.0       0.0
 5 C  s              25.8       0.0      18.4       0.0       0.0       0.0
 6 C  s               0.9       0.0      11.1       0.0       0.0       0.0
 6 C  px              0.0       0.0       0.0       0.2       0.2       0.0
 7 C  s               9.4       4.8      13.6       0.0       0.0       0.0
 8 C  s               1.7      90.6       4.9       0.1       0.0       0.1
 9 O  s               0.0       0.2       0.0       0.0       0.0       0.1
10 O  s               0.0       0.1       0.0       0.0       0.0      92.9
11 Cl s               0.0       0.0       0.0      57.3      41.8       0.0
12 Cl s               0.0       0.0       0.0      41.7      57.4       0.0

                    306       307   
                  43.70012  43.82549
                   0.00000   0.00000
                  --------  --------
 1 O  s               2.9      90.1
 9 O  s              96.4       3.4
10 O  s               0.5       6.4


                      *****************************
                      * MAYER POPULATION ANALYSIS *
                      *****************************

  NA   - Mulliken gross atomic population
  ZA   - Total nuclear charge
  QA   - Mulliken gross atomic charge
  VA   - Mayer's total valence
  BVA  - Mayer's bonded valence
  FA   - Mayer's free valence

  ATOM       NA         ZA         QA         VA         BVA        FA
  0 C      6.2741     6.0000    -0.2741     3.7089     3.7089    -0.0000
  1 O      8.2609     8.0000    -0.2609     1.9794     1.9794     0.0000
  2 C      5.7187     6.0000     0.2813     3.6999     3.6999     0.0000
  3 C      6.0028     6.0000    -0.0028     3.5758     3.5758    -0.0000
  4 C      6.1979     6.0000    -0.1979     3.7509     3.7509     0.0000
  5 C      6.2645     6.0000    -0.2645     3.7765     3.7765     0.0000
  6 C      5.9136     6.0000     0.0864     3.6282     3.6282    -0.0000
  7 C      5.9478     6.0000     0.0522     3.3392     3.3392    -0.0000
  8 C      5.7311     6.0000     0.2689     4.0364     4.0364     0.0000
  9 O      8.4310     8.0000    -0.4310     1.9306     1.9306    -0.0000
 10 O      8.3221     8.0000    -0.3221     1.9749     1.9749    -0.0000
 11 Cl    17.1212    17.0000    -0.1212     1.1688     1.1688     0.0000
 12 Cl    17.1302    17.0000    -0.1302     1.1535     1.1535     0.0000
 13 H      0.8190     1.0000     0.1810     0.9495     0.9495    -0.0000
 14 H      0.8336     1.0000     0.1664     0.9564     0.9564    -0.0000
 15 H      0.8271     1.0000     0.1729     0.9498     0.9498    -0.0000
 16 H      0.7964     1.0000     0.2036     0.9509     0.9509     0.0000
 17 H      0.7982     1.0000     0.2018     0.9514     0.9514     0.0000
 18 H      0.6098     1.0000     0.3902     0.8539     0.8539    -0.0000

  Mayer bond orders larger than 0.100000
B(  0-C ,  1-O ) :   0.8396 B(  0-C , 13-H ) :   0.9610 B(  0-C , 14-H ) :   0.9345 
B(  0-C , 15-H ) :   0.9564 B(  1-O ,  2-C ) :   1.1133 B(  2-C ,  3-C ) :   1.2816 
B(  2-C ,  7-C ) :   1.2945 B(  3-C ,  4-C ) :   1.2844 B(  3-C , 12-Cl) :   1.0304 
B(  4-C ,  5-C ) :   1.3480 B(  4-C , 16-H ) :   0.9405 B(  5-C ,  6-C ) :   1.3200 
B(  5-C , 17-H ) :   0.9374 B(  6-C ,  7-C ) :   1.2475 B(  6-C , 11-Cl) :   1.0206 
B(  7-C ,  8-C ) :   0.9381 B(  8-C ,  9-O ) :   1.8779 B(  8-C , 10-O ) :   1.1053 
B( 10-O , 18-H ) :   0.8288 

-------
TIMINGS
-------

Total SCF time: 0 days 0 hours 0 min 54 sec 

Total time                  ....      54.261 sec
Sum of individual times     ....      53.555 sec  ( 98.7%)

SCF preparation             ....       0.370 sec  (  0.7%)
Fock matrix formation       ....      51.142 sec  ( 94.3%)
  Startup                   ....       0.089 sec  (  0.2% of F)
  Split-RI-J                ....      10.785 sec  ( 21.1% of F)
  XC integration            ....      29.818 sec  ( 58.3% of F)
    XC Preparation          ....       0.000 sec  (  0.0% of XC)
    Basis function eval.    ....       4.602 sec  ( 15.4% of XC)
    Density eval.           ....       9.828 sec  ( 33.0% of XC)
    XC-Functional eval.     ....       2.624 sec  (  8.8% of XC)
    XC-Potential eval.      ....      10.488 sec  ( 35.2% of XC)
  CPCM terms                ....       9.709 sec  ( 19.0% of F)
Diagonalization             ....       0.000 sec  (  0.0%)
Density matrix formation    ....       0.381 sec  (  0.7%)
Total Energy calculation    ....       0.061 sec  (  0.1%)
Population analysis         ....       0.185 sec  (  0.3%)
Orbital Transformation      ....       0.099 sec  (  0.2%)
Orbital Orthonormalization  ....       0.000 sec  (  0.0%)
DIIS solution               ....       1.232 sec  (  2.3%)
  MO trafo                  ....       0.000 sec  (  0.0 % of DIIS)
  Orb grad                  ....       0.000 sec  (  0.0 % of DIIS)
  Energy W gradient         ....       0.000 sec  (  0.0 % of DIIS)
  DIIS error                ....       0.048 sec  (  3.9 % of DIIS)
  DIIS work                 ....       1.105 sec  ( 89.7 % of DIIS)
  Form Q                    ....       0.000 sec  (  0.0 % of DIIS)
  Form QpQm                 ....       0.000 sec  (  0.0 % of DIIS)
  Exp/Cayley                ....       0.000 sec  (  0.0 % of DIIS)
  Orb update                ....       0.000 sec  (  0.0 % of DIIS)
  Wake-sleep                ....       0.029 sec  (  2.3 % of DIIS)
SOSCF solution              ....       0.086 sec  (  0.2%)
  MO trafo                  ....       0.066 sec  ( 76.4 % of SOSCF)
  Orb grad                  ....       0.001 sec  (  0.7 % of SOSCF)
  Rot update                ....       0.000 sec  (  0.1 % of SOSCF)
  Step                      ....       0.019 sec  ( 22.6 % of SOSCF)
Finished LeanSCF after  54.4 sec

Maximum memory used throughout the entire LEANSCF-calculation: 41.8 MB


-------------------------------------------------------------------------------
                          DFT DISPERSION CORRECTION                            
                                                                               
                                DFTD4 V3.4.0                                   
-------------------------------------------------------------------------------
The R2SCAN3C composite method is recognized
Using three-body term ABC
Active option DFTDOPT                   ...         5   

-------------------------   ----------------
Dispersion correction           -0.008767099
-------------------------   ----------------

------------------   -----------------
gCP correction             0.012650129
------------------   -----------------

-------------------------   --------------------
FINAL SINGLE POINT ENERGY     -1454.398022608221
-------------------------   --------------------


------------------------------------------------------------------------------
                              ORCA PROPERTY CALCULATIONS
------------------------------------------------------------------------------

GBWName                                 ... sp_solv.gbw
Number of atoms                         ...     19
Number of basis functions               ...    308
Max core memory                         ...   1024 MB

Electric properties:
Dipole moment                           ... YES
Quadrupole moment                       ...  NO
Static polarizability (Dipole/Dipole)   ...  NO
Static polarizability (Dipole/Quad.)    ...  NO
Static polarizability (Quad./Quad.)     ...  NO
Static polarizability (Velocity)        ...  NO

Atomic electric properties:
Dipole moment                           ...  NO
Quadrupole moment                       ...  NO
Static polarizability                   ...  NO

Choice of electric origin               ... Center of mass
Position of electric origin             ...     0.000011     0.000013     0.000005

General magnetic properties:
Magnetizability                         ...  NO

EPR properties:
g-Tensor (aka g-matrix)                 ...  NO
Zero-Field splitting spin-orbit         ...  NO
Zero-field splitting spin-spin          ...  NO
Hyperfine couplings                     ...  NO (   0 nuclei)
Quadrupole couplings                    ...  NO (   0 nuclei)
Contact density                         ...  NO (   0 nuclei)

NMR properties:
Chemical shifts                         ...  NO (   0 nuclei)
Spin-rotation constants                 ...  NO (   0 nuclei)
Spin-spin couplings                     ...  NO (   0 nuclei,    0 pairs)

Choice of magnetic origin               ... GIAO
Position of magnetic origin             ...     0.000000     0.000000     0.000000

Properties with geometric perturbations:
SCF Hessian                             ...  NO
IR spectrum                             ...  NO
VCD spectrum                            ...  NO
X-ray spectroscopy properties:
SCF XES/XAS/RIXS spectra                ...  NO


-------------
DIPOLE MOMENT
-------------

Method             : SCF
Type of density    : Electron Density
Multiplicity       :   1
Irrep              :   0
Energy             : -1454.4019056378558616 Eh
Relativity type    : 
Basis              : AO
                                X                 Y                 Z
Electronic contribution:     -0.475060364       7.131072567      -2.257880172
Nuclear contribution   :      0.897297678      -7.423563035       2.090792088
                        -----------------------------------------
Total Dipole Moment    :      0.422237314      -0.292490468      -0.167088084
                        -----------------------------------------
Magnitude (a.u.)       :      0.540142066
Magnitude (Debye)      :      1.372932022



--------------------
Rotational spectrum 
--------------------
 
Rotational constants in cm-1:             0.030443             0.016824             0.011551 
Rotational constants in MHz :           912.661735           504.359508           346.294232 

Dipole components along the rotational axes: 
x,y,z [a.u.] :     0.442791    -0.263859    -0.161457 
x,y,z [Debye]:     1.125485    -0.670676    -0.410390 

 

Dipole moment calculation done in   0.0 sec 

Maximum memory used throughout the entire PROP-calculation: 23.0 MB

--------------------------------
SUGGESTED CITATIONS FOR THIS RUN
--------------------------------

Below you find a list of papers that are relevant to this ORCA run
We neither can nor want to force you to cite these papers, but we appreciate if you do
You receive ORCA, which is the product of decades of hard work by many enthusiastic individuals, for free
The only thing we kindly ask in return is that you cite our papers,
We deeply appreciate it, if you show your appreciation for ORCA by not just citing the generic ORCA reference.

Please note that relegating all ORCA citations to the supporting information does *not* help us.
SI sections are not indexed - citations you put there will not count into any citation statistics
But we need these citations in order to attract the funding resources that allow us to do what we are doing

Therefore, if you are a happy ORCA user, please consider citing a few of the papers listed below in the main body of your paper

In addition to the list printed below, the program has created the file sp_solv.bibtex that contains the list in bibtex format
You can import this file easily into all common literature databanks and citation aid programs


List of essential papers. We consider these as the minimum necessary citations

  1. Neese,F.
     Software update: the ORCA program system, version 5.0
     WIRES Comput. Molec. Sci., 2022 12(1)e1606
     doi.org/10.1002/wcms.1606
  2. Grimme,S.; Hansen,A.; Ehlert,S.; Mewes,J.
     r2SCAN-3c: A 'Swiss army knife' composite electronic-structure method
     J. Chem. Phys., 2021 154 064103
     doi.org/10.1063/5.0040021

List of papers to cite with high priority. The work reported in these papers was absolutely
necessary for this run to complete.
Our perspective: the developers of density functionals and basis sets usually get cited in chemistry papers
Good! But without the algorithms to do something with them, the functionals or basis sets would not do anything.
Hence, in our opinion, the algorithm design and method developments papers are equally worthy of getting cited

  1. Neese,F.
     An improvement of the resolution of the identity approximation for the formation of the Coulomb matrix
     J. Comp. Chem., 2003 24(14)1740-1747
     doi.org/10.1002/jcc.10318
  2. Garcia-Rates,M.; Neese,F.
     Effect of the Solute Cavity on the Solvation Energy and its Derivatives within the Framework of the Gaussian Charge Scheme
     J. Comput. Chem., 2020 41 922-939
     doi.org/10.1002/jcc.26139
  3. Neese,F.
     The SHARK Integral Generation and Digestion System
     J. Comp. Chem., 2022  1-16
     doi.org/10.1002/jcc.26942
  4. Lehtola,S.; Steigemann,C.; Oliveira,M.; Marques,M.
     Recent developments in Libxc - A comprehensive library of functionals for density functional theory
     Software X, 2018 7 
     doi.org/10.1016/j.softx.2017.11.002
  5. Caldeweyher,E.; Bannwarth,C.; Grimme,S.
     Extension of the D3 dispersion coefficient model
     J. Chem. Phys., 2017 147 034112-XXXX
     doi.org/10.1063/1.4993215
  6. Caldeweyher,E.; Ehlert,S.; Hansen,A.; Neugebauer,H.; Spicher,S.; Bannwarth,C.; Grimme,S.
     A generally applicable atomic-charge dependent London dispersion correction
     J. Chem. Phys., 2019 150 154122-XXXX
     doi.org/10.1063/1.5090222
  7. Caldeweyher,E.; Mewes,J.; Ehlert,S.; Grimme,S.
     Extension and evaluation of the D4 London-dispersion model for periodic systems
     Phys. Chem. Chem. Phys., 2020 22(16)8499-8512
     doi.org/10.1039/D0CP00502A

List of suggested additional citations. These are papers that are important in the 'surrounding' of 
of this run, or papers that preceded the highly important papers. If you like your results we are grateful for a citation.

  1. Neese,F.
     The ORCA program system
     WIRES Comput. Molec. Sci., 2012 2(1)73-78
     doi.org/10.1002/wcms.81
  2. Neese,F.
     Software update: the ORCA program system, version 4.0
     WIRES Comput. Molec. Sci., 2018 8(1)1-6
     doi.org/10.1002/wcms.1327
  3. Neese,F.; Wennmohs,F.; Becker,U.; Riplinger,C.
     The ORCA quantum chemistry program package
     J. Chem. Phys., 2020 152 Art. No. L224108
     doi.org/10.1063/5.0004608

List of optional additional citations

  1. Neese,F.
     Approximate second-order SCF convergence for spin unrestricted wavefunctions
     Chem. Phys. Lett., 2000 325(1-3)93-98
     doi.org/10.1016/s0009-2614(00)00662-x

Timings for individual modules:

Sum of individual times          ...       56.771 sec (=   0.946 min)
Startup calculation              ...        1.746 sec (=   0.029 min)   3.1 %
SCF iterations                   ...       54.888 sec (=   0.915 min)  96.7 %
Property calculations            ...        0.138 sec (=   0.002 min)   0.2 %
                             ****ORCA TERMINATED NORMALLY****
TOTAL RUN TIME: 0 days 0 hours 0 minutes 57 seconds 639 msec
