      -----------------------------------------------------------      
     |                   =====================                   |     
     |                           x T B                           |     
     |                   =====================                   |     
     |                         S. Grimme                         |     
     |          Mulliken Center for Theoretical Chemistry        |     
     |                    University of Bonn                     |     
      -----------------------------------------------------------      

   * xtb version 6.7.1 (edcfbbe) compiled by 'albert@albert-system' on 2024-07-22

   xtb is free software: you can redistribute it and/or modify it under
   the terms of the GNU Lesser General Public License as published by
   the Free Software Foundation, either version 3 of the License, or
   (at your option) any later version.
   
   xtb is distributed in the hope that it will be useful,
   but WITHOUT ANY WARRANTY; without even the implied warranty of
   MERCHANTABILITY or FITNESS FOR A PARTICULAR PURPOSE.  See the
   GNU Lesser General Public License for more details.
   
   Cite this work as:
   * C. Bannwarth, E. Caldeweyher, S. Ehlert, A. Hansen, P. Pracht,
     J. Seibert, S. Spicher, S. Grimme, WIREs Comput. Mol. Sci., 2020, 11,
     e01493. DOI: 10.1002/wcms.1493
   
   for GFN2-xTB:
   * C. Bannwarth, S. Ehlert and S. Grimme., J. Chem. Theory Comput., 2019,
     15, 1652-1671. DOI: 10.1021/acs.jctc.8b01176
   for GFN1-xTB:
   * S. Grimme, C. Bannwarth, P. Shushkov, J. Chem. Theory Comput., 2017,
     13, 1989-2009. DOI: 10.1021/acs.jctc.7b00118
   for GFN0-xTB:
   * P. Pracht, E. Caldeweyher, S. Ehlert, S. Grimme, ChemRxiv, 2019, preprint.
     DOI: 10.26434/chemrxiv.8326202.v1
   for GFN-FF:
   * S. Spicher and S. Grimme, Angew. Chem. Int. Ed., 2020, 59, 15665-15673.
     DOI: 10.1002/anie.202004239
   
   for ALPB and GBSA implicit solvation:
   * S. Ehlert, M. Stahn, S. Spicher, S. Grimme, J. Chem. Theory Comput.,
     2021, 17, 4250-4261. DOI: 10.1021/acs.jctc.1c00471
   
   for ddCOSMO and CPCM-X implicit solvation:
   * M. Stahn, S. Ehlert, S. Grimme, J. Phys. Chem. A,
     2023, XX, XXXX-XXXX. DOI: 10.1021/acs.jpca.3c04382
   
   for DFT-D4:
   * E. Caldeweyher, C. Bannwarth and S. Grimme, J. Chem. Phys., 2017,
     147, 034112. DOI: 10.1063/1.4993215
   * E. Caldeweyher, S. Ehlert, A. Hansen, H. Neugebauer, S. Spicher,
     C. Bannwarth and S. Grimme, J. Chem. Phys., 2019, 150, 154122.
     DOI: 10.1063/1.5090222
   * E. Caldeweyher, J.-M. Mewes, S. Ehlert and S. Grimme, Phys. Chem. Chem. Phys.
     2020, 22, 8499-8512. DOI: 10.1039/D0CP00502A
   
   for sTDA-xTB:
   * S. Grimme and C. Bannwarth, J. Chem. Phys., 2016, 145, 054103.
     DOI: 10.1063/1.4959605
   
   in the mass-spec context:
   * V. Asgeirsson, C. Bauer and S. Grimme, Chem. Sci., 2017, 8, 4879.
     DOI: 10.1039/c7sc00601b
   * J. Koopman and S. Grimme, ACS Omega 2019, 4, 12, 15120-15133.
     DOI: 10.1021/acsomega.9b02011
   
   for metadynamics refer to:
   * S. Grimme, J. Chem. Theory Comput., 2019, 155, 2847-2862
     DOI: 10.1021/acs.jctc.9b00143
   
   for SPH calculations refer to:
   * S. Spicher and S. Grimme, J. Chem. Theory Comput., 2021, 17, 1701-1714
     DOI: 10.1021/acs.jctc.0c01306
   
   for ONIOM refer to:
   * C. Plett, A. Katbashev, S. Ehlert, S. Grimme, M. Bursch,
     Phys. Chem. Chem. Phys., 2023, 25, 17860-17868. DOI: 10.1039/D3CP02178E
   
   for DIPRO refer to:
   * J. Kohn, N. Gildemeister, S. Grimme, D. Fazzi, A. Hansen,
     J. Chem. Phys., 2023, just accepted.
   
   for PTB refer to:
   * S. Grimme, M. Mueller, A. Hansen, J. Chem. Phys., 2023, 158, 124111.
     DOI: 10.1063/5.0137838
   
   with help from (in alphabetical order)
   P. Atkinson, C. Bannwarth, F. Bohle, G. Brandenburg, E. Caldeweyher
   M. Checinski, S. Dohm, S. Ehlert, S. Ehrlich, I. Gerasimov, C. Hölzer
   A. Katbashev, J. Kohn, J. Koopman, C. Lavigne, S. Lehtola, F. März, M. Müller,
   F. Musil, H. Neugebauer, J. Pisarek, C. Plett, P. Pracht, F. Pultar,
   J. Seibert, P. Shushkov, S. Spicher, M. Stahn, M. Steiner, T. Strunk,
   J. Stückrath, T. Rose, and J. Unsleber
   
 * started run on 2025/04/11 at 12:53:42.171     
   ID    Z sym.   atoms
    1    6 C      1-3, 6, 7
    2    8 O      4, 5
    3    1 H      8-17

           -------------------------------------------------
          |                Calculation Setup                |
           -------------------------------------------------

          program call               : /srv/scratch/z5358697/.xtb/bin/xtb xtb_opt.coord --opt normal --orca -I xtb_opt-xcontrol-inp
          hostname                   : k071
          coordinate file            : xtb_opt.coord
          omp threads                :                    16

           -------------------------------------------------
          |                   Orca driver                   |
           -------------------------------------------------
orca executable           : /apps/z_install_tree/linux-rocky8-ivybridge/gcc-12.2.0/orca-6.0.0-srtngmq3qlimg2qxbl6avaaiffipurdx/bin/orca
orca input file           : xtb_opt.inp
orca input line           : 
orca parallel             : true
orca number of threads    : 16
                         * ORCA takes the control...
  ------------------------------------------------------------------------

                                 *****************
                                 * O   R   C   A *
                                 *****************

                                            #,                                       
                                            ###                                      
                                            ####                                     
                                            #####                                    
                                            ######                                   
                                           ########,                                 
                                     ,,################,,,,,                         
                               ,,#################################,,                 
                          ,,##########################################,,             
                       ,#########################################, ''#####,          
                    ,#############################################,,   '####,        
                  ,##################################################,,,,####,       
                ,###########''''           ''''###############################       
              ,#####''   ,,,,##########,,,,          '''####'''          '####       
            ,##' ,,,,###########################,,,                        '##       
           ' ,,###''''                  '''############,,,                           
         ,,##''                                '''############,,,,        ,,,,,,###''
      ,#''                                            '''#######################'''  
     '                                                          ''''####''''         
             ,#######,   #######,   ,#######,      ##                                
            ,#'     '#,  ##    ##  ,#'     '#,    #''#        ,####,   ,####,        
            ##       ##  ##   ,#'  ##            #'  '#       #'       #'  '#        
            ##       ##  #######   ##           ,######,      #####,   #    #        
            '#,     ,#'  ##    ##  '#,     ,#' ,#      #,     #,   #   #,  ,#        
             '#######'   ##     ##  '#######'  #'      '#     '####' # '####'        



                #########################################################
                #                        -***-                          #
                #          Department of theory and spectroscopy        #
                #                                                       #
                #                      Frank Neese                      #
                #                                                       #
                #     Directorship, Architecture, Infrastructure        #
                #                    SHARK, DRIVERS                     #
                #        Core code/Algorithms in most modules           #
                #                                                       #
                #        Max Planck Institute fuer Kohlenforschung      #
                #                Kaiser Wilhelm Platz 1                 #
                #                 D-45470 Muelheim/Ruhr                 #
                #                      Germany                          #
                #                                                       #
                #                  All rights reserved                  #
                #                        -***-                          #
                #########################################################


                         Program Version 6.0.0  -   RELEASE  -


 With contributions from (in alphabetic order):
   Daniel Aravena         : Magnetic Suceptibility
   Michael Atanasov       : Ab Initio Ligand Field Theory (pilot matlab implementation)
   Alexander A. Auer      : GIAO ZORA, VPT2 properties, NMR spectrum
   Ute Becker             : All parallelization in ORCA, NUMFREQ, NUMCALC
   Giovanni Bistoni       : ED, misc. LED, open-shell LED, HFLD
   Martin Brehm           : Molecular dynamics
   Dmytro Bykov           : pre 5.0 version of the SCF Hessian
   Marcos Casanova-Páez   : Triplet and SCS-CIS(D). UHF-(DLPNO)-IP/EA/STEOM-CCSD. UHF-CVS-IP/STEOM-CCSD
   Vijay G. Chilkuri      : MRCI spin determinant printing, contributions to CSF-ICE
   Pauline Colinet        : FMM embedding
   Dipayan Datta          : RHF DLPNO-CCSD density
   Achintya Kumar Dutta   : EOM-CC, STEOM-CC
   Nicolas Foglia         : Exact transition moments, OPA infrastructure, MCD improvements
   Dmitry Ganyushin       : Spin-Orbit,Spin-Spin,Magnetic field MRCI
   Miquel Garcia          : C-PCM and meta-GGA Hessian, CCSD/C-PCM, Gaussian charge scheme
   Tiago L. C. Gouveia    : GS-ROHF, GS-ROCIS
   Yang Guo               : DLPNO-NEVPT2, F12-NEVPT2, CIM, IAO-localization
   Andreas Hansen         : Spin unrestricted coupled pair/coupled cluster methods
   Ingolf Harden          : AUTO-CI MPn and infrastructure 
   Benjamin Helmich-Paris : MC-RPA, TRAH-(SCF,CASSCF), AVAS, COSX integrals, SCF dyn. polar.
   Lee Huntington         : MR-EOM, pCC
   Robert Izsak           : Overlap fitted RIJCOSX, COSX-SCS-MP3, EOM
   Riya Kayal             : Wick's Theorem for AUTO-CI, AUTO-CI UHF-CCSDT
   Emily Kempfer          : AUTO-CI, RHF CISDT and CCSDT
   Christian Kollmar      : KDIIS, OOCD, Brueckner-CCSD(T), CCSD density, CASPT2, CASPT2-K, improved NEVPT2
   Axel Koslowski         : Symmetry handling
   Simone Kossmann        : Meta GGA functionals, TD-DFT gradient, OOMP2, (MP2 Hessian; deprecated post 5.0)
   Lucas Lang             : DCDCAS
   Marvin Lechner         : AUTO-CI (C++ implementation), FIC-MRCC
   Spencer Leger          : CASSCF response
   Dagmar Lenk            : GEPOL surface, SMD, ORCA-2-JSON
   Dimitrios Liakos       : Extrapolation schemes; Compound Job, initial MDCI parallelization
   Dimitrios Manganas     : Further ROCIS development; embedding schemes. LFT, Crystal Embedding
   Dimitrios Pantazis     : SARC Basis sets
   Anastasios Papadopoulos: AUTO-CI, single reference methods and gradients
   Taras Petrenko         : pre 6.0 DFT Hessian and TD-DFT gradient, (ASA, deprecated), ECA, 1-Electron XAS/XES, NRVS
   Peter Pinski           : DLPNO-MP2, DLPNO-MP2 Gradient
   Christoph Reimann      : Effective Core Potentials
   Marius Retegan         : Local ZFS, SOC
   Christoph Riplinger    : Optimizer, TS searches, QM/MM, DLPNO-CCSD(T), (RO)-DLPNO pert. Triples
   Michael Roemelt        : Original ROCIS implementation
   Masaaki Saitow         : Open-shell DLPNO-CCSD energy and density
   Barbara Sandhoefer     : DKH picture change effects
   Kantharuban Sivalingam : CASSCF convergence/infrastructure, NEVPT2 and variants, FIC-MRCI
   Bernardo de Souza      : ESD, SOC TD-DFT
   Georgi Stoychev        : AutoAux, RI-MP2 NMR, DLPNO-MP2 response, X2C
   Van Anh Tran           : RI-MP2 g-tensors
   Willem Van den Heuvel  : Paramagnetic NMR
   Zikuan Wang            : NOTCH, Electric field optimization 
   Frank Wennmohs         : Technical directorship and infrastructure
   Hang Xu                : AUTO-CI-Response properties 


 We gratefully acknowledge several colleagues who have allowed us to
 interface, adapt or use parts of their codes:
   Stefan Grimme, W. Hujo, H. Kruse, P. Pracht,  : VdW corrections, initial TS optimization,
                  C. Bannwarth, S. Ehlert,         DFT functionals, gCP, sTDA/sTD-DF
                  L. Wittmann, M. Mueller
   Ed Valeev, F. Pavosevic, A. Kumar             : LibInt (2-el integral package), F12 methods
   Garnet Chan, S. Sharma, J. Yang, R. Olivares  : DMRG
   Ulf Ekstrom                                   : XCFun DFT Library
   Mihaly Kallay                                 : mrcc  (arbitrary order and MRCC methods)
   Frank Weinhold                                : gennbo (NPA and NBO analysis)
   Simon Mueller                                 : openCOSMO-RS
   Christopher J. Cramer and Donald G. Truhlar   : smd solvation model
   Lars Goerigk                                  : TD-DFT with DH, B97 family of functionals
   V. Asgeirsson, H. Jonsson                     : NEB implementation
   FAccTs GmbH                                   : IRC, NEB, NEB-TS, DLPNO-Multilevel, CI-OPT
                                                   MM, QMMM, 2- and 3-layer-ONIOM, Crystal-QMMM,
                                                   LR-CPCM, SF, NACMEs, symmetry and pop. for TD-DFT,
                                                   nearIR, NL-DFT gradient (VV10), updates on ESD,
                                                   ML-optimized integration grids, MBIS, APM,
                                                   GOAT, DOCKER, SOLVATOR, interface openCOSMO-RS
   S Lehtola, MJT Oliveira, MAL Marques          : LibXC Library
   Liviu Ungur et al                             : ANISO software


 Your calculation uses the libint2 library for the computation of 2-el integrals
 For citations please refer to: http://libint.valeyev.net

 Your ORCA version has been built with support for libXC version: 6.2.2
 For citations please refer to: https://libxc.gitlab.io

 This ORCA versions uses:
   CBLAS   interface :  Fast vector & matrix operations
   LAPACKE interface :  Fast linear algebra routines
   SCALAPACK package :  Parallel linear algebra routines
   Shared memory     :  Shared parallel matrices
   BLAS/LAPACK       :  OpenBLAS 0.3.27  USE64BITINT DYNAMIC_ARCH NO_AFFINITY SkylakeX SINGLE_THREADED
        Core in use  :  SkylakeX
   Copyright (c) 2011-2014, The OpenBLAS Project




***************************************
The coordinates will be read from file: xtb_opt.xyz
***************************************


Your calculation utilizes the geometrical counterpoise correction gCP
Please cite in your paper:
H.Kruse, S. Grimme J.Chem.Phys., 136, (2012), 154101 
   

Your calculation utilizes the atom-pairwise dispersion correction
based on EEQ partial charges (D4)


Your calculation utilizes the SMD solvation module
Please cite in your paper:
A.V. Marenich, C.J. Cramer, D.G. Truhlar J. Phys. Chem. B, 113, (2009), 6378 

================================================================================

----- Orbital basis set information -----
Your calculation utilizes the basis: def2-mTZVPP
   Stefan Grimme, Andreas Hansen, Sebastian Ehlert, and Jan-Michael Mewes 
   J. Chem. Phys. 154, 064103 (2021). DOI: 10.1063/5.0040021

----- AuxJ basis set information -----
Your calculation utilizes the auxiliary basis: def2/J
   F. Weigend, Phys. Chem. Chem. Phys. 8, 1057 (2006).

================================================================================
                                        WARNINGS
                       Please study these warnings very carefully!
================================================================================

WARNING: Old DensityContainer found on disk!
         Will remove this file - 
         If you want to keep old densities, please start your calculation with a different basename. 

Using LibXC functional ID 497 : Re-regularized SCAN exchange by Furness et al
[ 1]  J. W. Furness, A. D. Kaplan, J. Ning, J. P. Perdew, and J. Sun.,  J. Phys. Chem. Lett. 11, 8208-8215 (2020)
[ 2]  J. W. Furness, A. D. Kaplan, J. Ning, J. P. Perdew, and J. Sun.,  J. Phys. Chem. Lett. 11, 9248-9248 (2020)
Using LibXC functional ID 498 : Re-regularized SCAN correlation by Furness et al
[ 1]  J. W. Furness, A. D. Kaplan, J. Ning, J. P. Perdew, and J. Sun.,  J. Phys. Chem. Lett. 11, 8208-8215 (2020)
[ 2]  J. W. Furness, A. D. Kaplan, J. Ning, J. P. Perdew, and J. Sun.,  J. Phys. Chem. Lett. 11, 9248-9248 (2020)
Using LibXC functional ID 497 : Re-regularized SCAN exchange by Furness et al
[ 1]  J. W. Furness, A. D. Kaplan, J. Ning, J. P. Perdew, and J. Sun.,  J. Phys. Chem. Lett. 11, 8208-8215 (2020)
[ 2]  J. W. Furness, A. D. Kaplan, J. Ning, J. P. Perdew, and J. Sun.,  J. Phys. Chem. Lett. 11, 9248-9248 (2020)
Using LibXC functional ID 498 : Re-regularized SCAN correlation by Furness et al
[ 1]  J. W. Furness, A. D. Kaplan, J. Ning, J. P. Perdew, and J. Sun.,  J. Phys. Chem. Lett. 11, 8208-8215 (2020)
[ 2]  J. W. Furness, A. D. Kaplan, J. Ning, J. P. Perdew, and J. Sun.,  J. Phys. Chem. Lett. 11, 9248-9248 (2020)

================================================================================
                                       INPUT FILE
================================================================================
NAME = xtb_opt.inp
|  1> ! r2scan-3c def2/J RI DEFGRID2 scfconv7 ENGRAD tightSCF miniprint
|  2> %cpcm
|  3>     smd true
|  4>     smdsolvent "water"
|  5> end
|  6> * xyzfile 0 1 xtb_opt.xyz
|  7> 
|  8>                          ****END OF INPUT****
================================================================================

                     *******************************
                     * Energy+Gradient Calculation *
                     *******************************

---------------------------------
CARTESIAN COORDINATES (ANGSTROEM)
---------------------------------
  C     -2.578211    0.403948    0.903741
  C     -1.773327    0.553266   -0.395375
  C     -0.540938   -0.302204   -0.326714
  O     -0.533682   -1.517451   -0.452141
  O      0.565963    0.414806   -0.057938
  C      1.807047   -0.344283    0.112850
  C      2.903902    0.652284    0.389169
  H     -3.477533    1.022637    0.853427
  H     -2.882615   -0.634812    1.057192
  H     -1.988291    0.725034    1.767168
  H     -1.495222    1.597216   -0.554754
  H     -2.370287    0.210324   -1.245594
  H      1.667366   -1.041379    0.944153
  H      1.991042   -0.914559   -0.802315
  H      3.844445    0.112881    0.534436
  H      3.028946    1.343418   -0.449208
  H      2.693677    1.225987    1.296089

----------------------------
CARTESIAN COORDINATES (A.U.)
----------------------------
  NO LB      ZA    FRAG     MASS         X           Y           Z
   0 C     6.0000    0    12.011   -4.872113    0.763351    1.707824
   1 C     6.0000    0    12.011   -3.351102    1.045521   -0.747150
   2 C     6.0000    0    12.011   -1.022225   -0.571083   -0.617400
   3 O     8.0000    0    15.999   -1.008512   -2.867566   -0.854423
   4 O     8.0000    0    15.999    1.069516    0.783869   -0.109487
   5 C     6.0000    0    12.011    3.414824   -0.650601    0.213256
   6 C     6.0000    0    12.011    5.487580    1.232638    0.735424
   7 H     1.0000    0     1.008   -6.571585    1.932504    1.612743
   8 H     1.0000    0     1.008   -5.447353   -1.199620    1.997803
   9 H     1.0000    0     1.008   -3.757325    1.370116    3.339463
  10 H     1.0000    0     1.008   -2.825560    3.018301   -1.048333
  11 H     1.0000    0     1.008   -4.479193    0.397455   -2.353832
  12 H     1.0000    0     1.008    3.150864   -1.967922    1.784190
  13 H     1.0000    0     1.008    3.762524   -1.728266   -1.516156
  14 H     1.0000    0     1.008    7.264947    0.213315    1.009937
  15 H     1.0000    0     1.008    5.723878    2.538692   -0.848881
  16 H     1.0000    0     1.008    5.090312    2.316780    2.449253

------------------------------------------------------------------------------
                   ___                                                        
                  /   \      - P O W E R E D   B Y -                         
                 /     \                                                     
                 |  |  |   _    _      __       _____    __    __             
                 |  |  |  | |  | |    /  \     |  _  \  |  |  /  |          
                  \  \/   | |  | |   /    \    | | | |  |  | /  /          
                 / \  \   | |__| |  /  /\  \   | |_| |  |  |/  /          
                |  |  |   |  __  | /  /__\  \  |    /   |      \           
                |  |  |   | |  | | |   __   |  |    \   |  |\   \          
                \     /   | |  | | |  |  |  |  | |\  \  |  | \   \       
                 \___/    |_|  |_| |__|  |__|  |_| \__\ |__|  \__/        
                                                                              
                      - O R C A' S   B I G   F R I E N D -                    
                                      &                                       
                       - I N T E G R A L  F E E D E R -                       
                                                                              
 v1 FN, 2020, v2 2021, v3 2022-2024                                           
------------------------------------------------------------------------------


----------------------
SHARK INTEGRAL PACKAGE
----------------------

Number of atoms                             ...     17
Number of basis functions                   ...    193
Number of shells                            ...     95
Maximum angular momentum                    ...      2
Integral batch strategy                     ... SHARK/LIBINT Hybrid
RI-J (if used) integral strategy            ... SPLIT-RIJ (Revised 2003 algorithm where possible)
Printlevel                                  ...      1
Contraction scheme used                     ... SEGMENTED contraction
Prescreening option                         ... SCHWARTZ
   Thresh                                   ... 3.000e-11
   Tcut                                     ... 1.000e-12
   Tpresel                                  ... 1.000e-12 
Coulomb Range Separation                    ... NOT USED
Exchange Range Separation                   ... NOT USED
Multipole approximations                    ... NOT USED
Finite Nucleus Model                        ... NOT USED
CABS basis                                  ... NOT available
Auxiliary Coulomb fitting basis             ... AVAILABLE
   # of basis functions in Aux-J            ...    453
   # of shells in Aux-J                     ...    155
   Maximum angular momentum in Aux-J        ...      4
Auxiliary J/K fitting basis                 ... NOT available
Auxiliary Correlation fitting basis         ... NOT available
Auxiliary 'external' fitting basis          ... NOT available

Checking pre-screening integrals            ... done (  0.0 sec) Dimension = 95
Check shell pair data                       ... done (  0.0 sec)
Shell pair information
Shell pair cut-off parameter TPreSel        ...   1.0e-12
Total number of shell pairs                 ...      4560
Shell pairs after pre-screening             ...      4085
Total number of primitive shell pairs       ...     16115
Primitive shell pairs kept                  ...     10437
          la=0 lb=0:   1359 shell pairs
          la=1 lb=0:   1522 shell pairs
          la=1 lb=1:    445 shell pairs
          la=2 lb=0:    457 shell pairs
          la=2 lb=1:    258 shell pairs
          la=2 lb=2:     44 shell pairs

Calculating one electron integrals          ... done (  0.0 sec)
Calculating RI/J V-Matrix + Cholesky decomp.... done (  0.1 sec)
Calculating Nuclear repulsion               ... done (  0.0 sec) ENN=    313.095413565698 Eh

Diagonalization of the overlap matrix:
Smallest eigenvalue                        ... 2.514e-04
Time for diagonalization                   ...    0.004 sec
Threshold for overlap eigenvalues          ... 1.000e-07
Number of eigenvalues below threshold      ... 0
Time for construction of square roots      ...    0.015 sec
Total time needed                          ...    0.029 sec

-------------------
DFT GRID GENERATION
-------------------

General Integration Accuracy     IntAcc      ... 4.388
Radial Grid Type                 RadialGrid  ... OptM3 with GC (2021)
Angular Grid (max. ang.)         AngularGrid ... 4 (Lebedev-302)
Angular grid pruning method      GridPruning ... 4 (adaptive)
Weight generation scheme         WeightScheme... mBecke (2022)
Basis function cutoff            BFCut       ... 1.0000e-11
Integration weight cutoff        WCut        ... 1.0000e-14
Partially contracted basis set               ... off
Rotationally invariant grid construction     ... off
Angular grids for H and He will be reduced by one unit
Diffuse basis detected: some atoms will have their outermost
                        angular grid increased by 1.

Total number of grid points                  ...    75181
Total number of batches                      ...     1183
Average number of points per batch           ...       63
Average number of grid points per atom       ...     4422
Initializing property integral containers    ... done (  0.0 sec)

SHARK setup successfully completed in   1.0 seconds

Maximum memory used throughout the entire STARTUP-calculation: 33.7 MB
Occupation numbers will be reassigned to an Aufbau configuration
             **** ENERGY FILE WAS UPDATED (xtb_opt.en.tmp) ****
Finished Guess after   0.3 sec
Maximum memory used throughout the entire GUESS-calculation: 13.0 MB
--------------------
CPCM SOLVATION MODEL
--------------------
CPCM parameters:
  Epsilon                                         ...      78.3550
  Refrac                                          ...       1.3328
  Rsolv                                           ...       1.3000
  Surface type                                    ... GAUSSIAN VDW
  Discretization scheme                           ... Constant charge density
    Threshold for H atoms                         ...       5.0000 (charges/Ang^2)
    Threshold for non-H atoms                     ...       5.0000 (charges/Ang^2)
  Epsilon function type                           ...         CPCM
Solvent:                                          ... WATER
SMD-CDS solvent descriptors:
  Soln                                            ...       1.3328
  Soln25                                          ...       1.3323
  Sola                                            ...       0.0000
  Solb                                            ...       0.0000
  Solg                                            ...       0.0000
  Solc                                            ...       0.0000
  Solh                                            ...       0.0000
Radii:
  Scheme                                          ... Element-dependent radii
  Radius for C  used is    3.4960 Bohr (=   1.8500 Ang.)
  Radius for O  used is    2.8724 Bohr (=   1.5200 Ang.)
  Radius for H  used is    2.2677 Bohr (=   1.2000 Ang.)
Calculating surface                               ...        done! (  0.0s)
Cavity surface points                             ...         1303
Cavity Volume                                     ...     766.3316
Cavity Surface-area                               ...     522.8746
Calculating surface distance matrix               ...        done! (  0.0s)
Performing Cholesky decomposition & store         ...        done! (  0.1s)
Overall time for CPCM initialization              ...                 0.1s

----------------------------------------D-I-I-S--------------------------------------------
Iteration    Energy (Eh)           Delta-E    RMSDP     MaxDP     DIISErr   Damp  Time(sec)
-------------------------------------------------------------------------------------------
               ***  Starting incremental Fock matrix formation  ***
                              *** Initializing SOSCF ***
---------------------------------------S-O-S-C-F--------------------------------------
Iteration    Energy (Eh)           Delta-E    RMSDP     MaxDP     MaxGrad    Time(sec)
--------------------------------------------------------------------------------------
    1    -346.9570410400146443     0.00e+00  2.49e-06  7.47e-05  1.05e-05     2.4
               *** Restarting incremental Fock matrix formation ***
    2    -346.9570410471673654    -7.15e-09  3.05e-06  8.71e-05  2.56e-05     2.4
    3    -346.9570410006453471     4.65e-08  2.03e-06  6.70e-05  5.21e-05     2.1
                 **** Energy Check signals convergence ****

               *****************************************************
               *                     SUCCESS                       *
               *           SCF CONVERGED AFTER   3 CYCLES          *
               *****************************************************


SMD CDS free energy correction energy :                 4.70757     Kcal/mol
Total Energy after SMD CDS correction =              -346.949539016 Eh
             **** ENERGY FILE WAS UPDATED (xtb_opt.en.tmp) ****

----------------
TOTAL SCF ENERGY
----------------

Total Energy       :       -346.94953901617760 Eh           -9440.97693 eV

Components:
Nuclear Repulsion  :        313.09541356569770 Eh            8519.75934 eV
Electronic Energy  :       -660.03606478856909 Eh          -17960.49442 eV
One Electron Energy:      -1091.76276573677092 Eh          -29708.37520 eV
Two Electron Energy:        431.72670094820177 Eh           11747.88078 eV
CPCM Dielectric    :         -0.01638977777388 Eh              -0.44599 eV
SMD CDS (Gcds)     :          0.00750198446772 Eh               0.20414 eV

Virial components:
Potential Energy   :       -692.30731049002270 Eh          -18838.63966 eV
Kinetic Energy     :        345.35777147384516 Eh            9397.66273 eV
Virial Ratio       :          2.00460903930304

DFT components:
N(Alpha)           :       27.999982233605 electrons
N(Beta)            :       27.999982233605 electrons
N(Total)           :       55.999964467209 electrons
E(X)               :      -46.119586427336 Eh       
E(C)               :       -1.784903456602 Eh       
E(XC)              :      -47.904489883938 Eh       

CPCM Solvation Model Properties:
Surface-charge          :         -0.04443925920659
Corrected charge        :          0.00000000000000
Outlying charge corr.   :          0.00015608406218 Eh               0.00425 eV
Free-energy (cav+disp)  :          0.00750198446772 Eh               0.20414 eV

---------------
SCF CONVERGENCE
---------------

  Last Energy change         ...   -4.6522e-08  Tolerance :   1.0000e-07
  Last MAX-Density change    ...    6.6973e-05  Tolerance :   1.0000e-07
  Last RMS-Density change    ...    2.0252e-06  Tolerance :   5.0000e-09
  Last DIIS Error            ...    6.8451e-05  Tolerance :   1.0000e-07
  Last Orbital Gradient      ...    5.2101e-05  Tolerance :   1.0000e-04
  Last Orbital Rotation      ...    5.3045e-05  Tolerance :   1.0000e-04


----------------
ORBITAL ENERGIES
----------------

  NO   OCC          E(Eh)            E(eV) 
   0   2.0000     -19.001802      -517.0653 
   1   2.0000     -18.945205      -515.5252 
   2   2.0000     -10.164405      -276.5875 
   3   2.0000     -10.084976      -274.4261 
   4   2.0000     -10.040014      -273.2027 
   5   2.0000     -10.025151      -272.7982 
   6   2.0000     -10.021039      -272.6863 
   7   2.0000      -1.068971       -29.0882 
   8   2.0000      -0.983399       -26.7597 
   9   2.0000      -0.759497       -20.6670 
  10   2.0000      -0.725174       -19.7330 
  11   2.0000      -0.630006       -17.1433 
  12   2.0000      -0.583293       -15.8722 
  13   2.0000      -0.530795       -14.4437 
  14   2.0000      -0.469601       -12.7785 
  15   2.0000      -0.457659       -12.4535 
  16   2.0000      -0.442623       -12.0444 
  17   2.0000      -0.409817       -11.1517 
  18   2.0000      -0.400238       -10.8910 
  19   2.0000      -0.373631       -10.1670 
  20   2.0000      -0.356980        -9.7139 
  21   2.0000      -0.343857        -9.3568 
  22   2.0000      -0.336003        -9.1431 
  23   2.0000      -0.324085        -8.8188 
  24   2.0000      -0.317997        -8.6531 
  25   2.0000      -0.312493        -8.5034 
  26   2.0000      -0.278580        -7.5805 
  27   2.0000      -0.251131        -6.8336 
  28   0.0000      -0.027861        -0.7581 
  29   0.0000       0.072430         1.9709 
  30   0.0000       0.099993         2.7209 
  31   0.0000       0.123900         3.3715 
  32   0.0000       0.132900         3.6164 
  33   0.0000       0.139336         3.7915 
  34   0.0000       0.153346         4.1728 
  35   0.0000       0.160371         4.3639 
  36   0.0000       0.166701         4.5362 
  37   0.0000       0.175416         4.7733 
  38   0.0000       0.179559         4.8860 
*Only the first 10 virtual orbitals were printed.
Total SCF time: 0 days 0 hours 0 min 7 sec 
Finished LeanSCF after   7.7 sec

Maximum memory used throughout the entire LEANSCF-calculation: 24.1 MB


-------------------------------------------------------------------------------
                          DFT DISPERSION CORRECTION                            
                                                                               
                                DFTD4 V3.4.0                                   
-------------------------------------------------------------------------------
-------------------------   ----------------
Dispersion correction           -0.003852711
-------------------------   ----------------

------------------   -----------------
gCP correction             0.010120977
------------------   -----------------

-------------------------   --------------------
FINAL SINGLE POINT ENERGY      -346.943270750774
-------------------------   --------------------

------------------------------------------------------------------------------
                         ORCA SCF GRADIENT CALCULATION
------------------------------------------------------------------------------

Nuc. rep. gradient        (SHARK) ... done (  0.0 sec)
HCore & Overlap gradient  (SHARK) ... done (  0.2 sec)
Split-RIJ-J gradient      (SHARK) ... done (  1.1 sec)
XC gradient                       ... done (  4.9 sec)
CPCM gradient                     ... done (  0.7 sec)
SMD gradient                      ... done (  0.0 sec)
Dispersion correction             ... done (  0.0 sec)

-------------------
DISPERSION GRADIENT
-------------------

   1   C   :   -0.000067442    0.000014317    0.000026971
   2   C   :   -0.000063797    0.000020588   -0.000018091
   3   C   :   -0.000026918   -0.000019610   -0.000020252
   4   O   :   -0.000011595   -0.000064741   -0.000026874
   5   O   :    0.000031375    0.000000353   -0.000011181
   6   C   :    0.000061846   -0.000019564   -0.000000327
   7   C   :    0.000077551    0.000019485    0.000012576
   8   H   :   -0.000023804    0.000009087    0.000010480
   9   H   :   -0.000025741   -0.000001661    0.000011605
  10   H   :   -0.000030614    0.000009981    0.000020524
  11   H   :   -0.000023499    0.000019247   -0.000008916
  12   H   :   -0.000020331    0.000002303   -0.000012284
  13   H   :    0.000024058   -0.000010747    0.000005378
  14   H   :    0.000019685   -0.000007898   -0.000004538
  15   H   :    0.000022587    0.000004489    0.000004609
  16   H   :    0.000027640    0.000012340   -0.000000245
  17   H   :    0.000028999    0.000012032    0.000010564

Difference to translation invariance:
           :   -0.0000000000    0.0000000000   -0.0000000000

Difference to rotation invariance:
           :    0.0000000000    0.0000000000    0.0000000000

Norm of the Dispersion gradient    ...    0.0001925780
RMS gradient                       ...    0.0000269663
MAX gradient                       ...    0.0000775514
gCP correction                   ... done

------------------
CARTESIAN GRADIENT
------------------

   1   C   :   -0.000063949   -0.000192298    0.000258276
   2   C   :   -0.000155823    0.000517364   -0.000104307
   3   C   :   -0.000598590   -0.000810186   -0.000404937
   4   O   :    0.000389701    0.000034867    0.000060222
   5   O   :    0.000207188    0.000457528    0.000196045
   6   C   :    0.000102535   -0.000377805    0.000144935
   7   C   :    0.000312842    0.000345653    0.000067941
   8   H   :    0.000207811   -0.000014896   -0.000061644
   9   H   :   -0.000007809    0.000189021    0.000034905
  10   H   :   -0.000002224   -0.000092276   -0.000107887
  11   H   :   -0.000041217    0.000026976    0.000057873
  12   H   :   -0.000083113   -0.000028640   -0.000004505
  13   H   :   -0.000090451    0.000196475   -0.000117015
  14   H   :    0.000015171   -0.000050573    0.000022510
  15   H   :   -0.000099015   -0.000097888    0.000080139
  16   H   :   -0.000019310    0.000008361   -0.000014986
  17   H   :   -0.000073748   -0.000111682   -0.000107565

Difference to translation invariance:
           :    0.0000000000    0.0000000000   -0.0000000000

Difference to rotation invariance:
           :    0.0000637624   -0.0002882905    0.0001009858

Norm of the Cartesian gradient     ...    0.0016341767
RMS gradient                       ...    0.0002288305
MAX gradient                       ...    0.0008101863

-------
TIMINGS
-------

Total SCF gradient time     ....        7.659 sec

Densities                   ....       0.001 sec  (  0.0%)
One electron gradient       ....       0.235 sec  (  3.1%)
RI-J Coulomb gradient       ....       1.139 sec  ( 14.9%)
XC gradient                 ....       4.897 sec  ( 63.9%)
CPCM gradient               ....       0.717 sec  (  9.4%)
   A-Matrix (El+Nuc)        ....       0.062 sec  (  0.8%)
   Potential                ....       0.656 sec  (  8.6%)
SMD gradient                ....       0.015 sec  (  0.2%)

Maximum memory used throughout the entire SCFGRAD-calculation: 33.1 MB

------------------------------------------------------------------------------
                              ORCA PROPERTY CALCULATIONS
------------------------------------------------------------------------------

GBWName                                 ... xtb_opt.gbw
Number of atoms                         ...     17
Number of basis functions               ...    193
Max core memory                         ...   1024 MB

Electric properties:
Dipole moment                           ... YES
Quadrupole moment                       ...  NO
Static polarizability (Dipole/Dipole)   ...  NO
Static polarizability (Dipole/Quad.)    ...  NO
Static polarizability (Quad./Quad.)     ...  NO
Static polarizability (Velocity)        ...  NO

Atomic electric properties:
Dipole moment                           ...  NO
Quadrupole moment                       ...  NO
Static polarizability                   ...  NO

Choice of electric origin               ... Center of mass
Position of electric origin             ...    -0.011920    -0.044380     0.064364

General magnetic properties:
Magnetizability                         ...  NO

EPR properties:
g-Tensor (aka g-matrix)                 ...  NO
Zero-Field splitting spin-orbit         ...  NO
Zero-field splitting spin-spin          ...  NO
Hyperfine couplings                     ...  NO (   0 nuclei)
Quadrupole couplings                    ...  NO (   0 nuclei)
Contact density                         ...  NO (   0 nuclei)

NMR properties:
Chemical shifts                         ...  NO (   0 nuclei)
Spin-rotation constants                 ...  NO (   0 nuclei)
Spin-spin couplings                     ...  NO (   0 nuclei,    0 pairs)

Choice of magnetic origin               ... GIAO
Position of magnetic origin             ...     0.000000     0.000000     0.000000

Properties with geometric perturbations:
SCF Hessian                             ...  NO
IR spectrum                             ...  NO
VCD spectrum                            ...  NO
X-ray spectroscopy properties:
SCF XES/XAS/RIXS spectra                ...  NO


-------------
DIPOLE MOMENT
-------------

Method             : SCF
Type of density    : Electron Density
Multiplicity       :   1
Irrep              :   0
Energy             :  -346.9495390161775958 Eh
Relativity type    : 
Basis              : AO
                                X                 Y                 Z
Electronic contribution:     -0.615248038      -2.587185158      -2.570784974
Nuclear contribution   :      1.008832380       3.626008675       2.862262494
                        -----------------------------------------
Total Dipole Moment    :      0.393584342       1.038823516       0.291477521
                        -----------------------------------------
Magnitude (a.u.)       :      1.148486864
Magnitude (Debye)      :      2.919221614



--------------------
Rotational spectrum 
--------------------
 
Rotational constants in cm-1:             0.184772             0.046350             0.040912 
Rotational constants in MHz :          5539.312796          1389.549543          1226.518452 

Dipole components along the rotational axes: 
x,y,z [a.u.] :     0.423434     1.059373    -0.132116 
x,y,z [Debye]:     1.076285     2.692712    -0.335812 

 

Dipole moment calculation done in   0.0 sec 

Maximum memory used throughout the entire PROP-calculation: 11.5 MB

--------------------------------
SUGGESTED CITATIONS FOR THIS RUN
--------------------------------

Below you find a list of papers that are relevant to this ORCA run
We neither can nor want to force you to cite these papers, but we appreciate if you do
You receive ORCA, which is the product of decades of hard work by many enthusiastic individuals, for free
The only thing we kindly ask in return is that you cite our papers,
We deeply appreciate it, if you show your appreciation for ORCA by not just citing the generic ORCA reference.

Please note that relegating all ORCA citations to the supporting information does *not* help us.
SI sections are not indexed - citations you put there will not count into any citation statistics
But we need these citations in order to attract the funding resources that allow us to do what we are doing

Therefore, if you are a happy ORCA user, please consider citing a few of the papers listed below in the main body of your paper

In addition to the list printed below, the program has created the file xtb_opt.bibtex that contains the list in bibtex format
You can import this file easily into all common literature databanks and citation aid programs


List of essential papers. We consider these as the minimum necessary citations

  1. Neese,F.
     Software update: the ORCA program system, version 5.0
     WIRES Comput. Molec. Sci., 2022 12(1)e1606
     doi.org/10.1002/wcms.1606
  2. Grimme,S.; Hansen,A.; Ehlert,S.; Mewes,J.
     r2SCAN-3c: A 'Swiss army knife' composite electronic-structure method
     J. Chem. Phys., 2021 154 064103
     doi.org/10.1063/5.0040021

List of papers to cite with high priority. The work reported in these papers was absolutely
necessary for this run to complete.
Our perspective: the developers of density functionals and basis sets usually get cited in chemistry papers
Good! But without the algorithms to do something with them, the functionals or basis sets would not do anything.
Hence, in our opinion, the algorithm design and method developments papers are equally worthy of getting cited

  1. Neese,F.
     An improvement of the resolution of the identity approximation for the formation of the Coulomb matrix
     J. Comp. Chem., 2003 24(14)1740-1747
     doi.org/10.1002/jcc.10318
  2. Garcia-Rates,M.; Neese,F.
     Effect of the Solute Cavity on the Solvation Energy and its Derivatives within the Framework of the Gaussian Charge Scheme
     J. Comput. Chem., 2020 41 922-939
     doi.org/10.1002/jcc.26139
  3. Neese,F.
     The SHARK Integral Generation and Digestion System
     J. Comp. Chem., 2022  1-16
     doi.org/10.1002/jcc.26942
  4. Lehtola,S.; Steigemann,C.; Oliveira,M.; Marques,M.
     Recent developments in Libxc - A comprehensive library of functionals for density functional theory
     Software X, 2018 7 
     doi.org/10.1016/j.softx.2017.11.002
  5. Caldeweyher,E.; Bannwarth,C.; Grimme,S.
     Extension of the D3 dispersion coefficient model
     J. Chem. Phys., 2017 147 034112-XXXX
     doi.org/10.1063/1.4993215
  6. Caldeweyher,E.; Ehlert,S.; Hansen,A.; Neugebauer,H.; Spicher,S.; Bannwarth,C.; Grimme,S.
     A generally applicable atomic-charge dependent London dispersion correction
     J. Chem. Phys., 2019 150 154122-XXXX
     doi.org/10.1063/1.5090222
  7. Caldeweyher,E.; Mewes,J.; Ehlert,S.; Grimme,S.
     Extension and evaluation of the D4 London-dispersion model for periodic systems
     Phys. Chem. Chem. Phys., 2020 22(16)8499-8512
     doi.org/10.1039/D0CP00502A

List of suggested additional citations. These are papers that are important in the 'surrounding' of 
of this run, or papers that preceded the highly important papers. If you like your results we are grateful for a citation.

  1. Neese,F.
     The ORCA program system
     WIRES Comput. Molec. Sci., 2012 2(1)73-78
     doi.org/10.1002/wcms.81
  2. Neese,F.
     Software update: the ORCA program system, version 4.0
     WIRES Comput. Molec. Sci., 2018 8(1)1-6
     doi.org/10.1002/wcms.1327
  3. Neese,F.; Wennmohs,F.; Becker,U.; Riplinger,C.
     The ORCA quantum chemistry program package
     J. Chem. Phys., 2020 152 Art. No. L224108
     doi.org/10.1063/5.0004608

List of optional additional citations

  1. Neese,F.
     Approximate second-order SCF convergence for spin unrestricted wavefunctions
     Chem. Phys. Lett., 2000 325(1-3)93-98
     doi.org/10.1016/s0009-2614(00)00662-x

Timings for individual modules:

Sum of individual times          ...       16.998 sec (=   0.283 min)
Startup calculation              ...        1.063 sec (=   0.018 min)   6.3 %
SCF iterations                   ...        8.061 sec (=   0.134 min)  47.4 %
Property calculations            ...        0.109 sec (=   0.002 min)   0.6 %
SCF Gradient evaluation          ...        7.766 sec (=   0.129 min)  45.7 %
                             ****ORCA TERMINATED NORMALLY****
TOTAL RUN TIME: 0 days 0 hours 0 minutes 17 seconds 906 msec
  ------------------------------------------------------------------------
          * successful ORCA run, taking over control again...

         :::::::::::::::::::::::::::::::::::::::::::::::::::::
         ::                  ORCA SUMMARY                   ::
         :::::::::::::::::::::::::::::::::::::::::::::::::::::
         :: total energy            -346.943270750774 Eh    ::
         :: gradient norm              0.001634176693 Eh/a0 ::
         :: HOMO-LUMO gap              0.000000000000 eV    ::
         :::::::::::::::::::::::::::::::::::::::::::::::::::::

      ----------------------------------------------------------- 
     |                       L-ANC optimizer                     |
      ----------------------------------------------------------- 
          low memory version by Sebastian Ehlert

          ...................................................
          :                      SETUP                      :
          :.................................................:
          :   energy convergence        0.5000000E-05 Eh    :
          :   grad. convergence         0.1000000E-02 Eh/a0 :
          :   optimization log               true           :
          :   writing optlog all                1     steps :
          :   Hessian reset                     8     steps :
          :   maximium step len.        1.0000000     a0    :
          :   LBFGS images                      8           :
          ...................................................
 * calculating model hessian...
Using Lindh-Hessian (1995)
 Shifting diagonal of input Hessian by   1.000000000000000E-002
 Lowest  eigenvalues of input Hessian
    0.000000    0.000000    0.000000    0.000000    0.000000    0.000000
    0.012068    0.012682    0.015896    0.019850    0.021350    0.025788
    0.033712    0.039633    0.045124    0.054975    0.057480    0.061468
 Highest eigenvalues
    1.178036    1.194436    1.241568    1.293585    1.733420    2.265620
 

........................................................................
.............................. CYCLE    1 ..............................
........................................................................
                         * ORCA takes the control...
  ------------------------------------------------------------------------

                                 *****************
                                 * O   R   C   A *
                                 *****************

                                            #,                                       
                                            ###                                      
                                            ####                                     
                                            #####                                    
                                            ######                                   
                                           ########,                                 
                                     ,,################,,,,,                         
                               ,,#################################,,                 
                          ,,##########################################,,             
                       ,#########################################, ''#####,          
                    ,#############################################,,   '####,        
                  ,##################################################,,,,####,       
                ,###########''''           ''''###############################       
              ,#####''   ,,,,##########,,,,          '''####'''          '####       
            ,##' ,,,,###########################,,,                        '##       
           ' ,,###''''                  '''############,,,                           
         ,,##''                                '''############,,,,        ,,,,,,###''
      ,#''                                            '''#######################'''  
     '                                                          ''''####''''         
             ,#######,   #######,   ,#######,      ##                                
            ,#'     '#,  ##    ##  ,#'     '#,    #''#        ,####,   ,####,        
            ##       ##  ##   ,#'  ##            #'  '#       #'       #'  '#        
            ##       ##  #######   ##           ,######,      #####,   #    #        
            '#,     ,#'  ##    ##  '#,     ,#' ,#      #,     #,   #   #,  ,#        
             '#######'   ##     ##  '#######'  #'      '#     '####' # '####'        



                #########################################################
                #                        -***-                          #
                #          Department of theory and spectroscopy        #
                #                                                       #
                #                      Frank Neese                      #
                #                                                       #
                #     Directorship, Architecture, Infrastructure        #
                #                    SHARK, DRIVERS                     #
                #        Core code/Algorithms in most modules           #
                #                                                       #
                #        Max Planck Institute fuer Kohlenforschung      #
                #                Kaiser Wilhelm Platz 1                 #
                #                 D-45470 Muelheim/Ruhr                 #
                #                      Germany                          #
                #                                                       #
                #                  All rights reserved                  #
                #                        -***-                          #
                #########################################################


                         Program Version 6.0.0  -   RELEASE  -


 With contributions from (in alphabetic order):
   Daniel Aravena         : Magnetic Suceptibility
   Michael Atanasov       : Ab Initio Ligand Field Theory (pilot matlab implementation)
   Alexander A. Auer      : GIAO ZORA, VPT2 properties, NMR spectrum
   Ute Becker             : All parallelization in ORCA, NUMFREQ, NUMCALC
   Giovanni Bistoni       : ED, misc. LED, open-shell LED, HFLD
   Martin Brehm           : Molecular dynamics
   Dmytro Bykov           : pre 5.0 version of the SCF Hessian
   Marcos Casanova-Páez   : Triplet and SCS-CIS(D). UHF-(DLPNO)-IP/EA/STEOM-CCSD. UHF-CVS-IP/STEOM-CCSD
   Vijay G. Chilkuri      : MRCI spin determinant printing, contributions to CSF-ICE
   Pauline Colinet        : FMM embedding
   Dipayan Datta          : RHF DLPNO-CCSD density
   Achintya Kumar Dutta   : EOM-CC, STEOM-CC
   Nicolas Foglia         : Exact transition moments, OPA infrastructure, MCD improvements
   Dmitry Ganyushin       : Spin-Orbit,Spin-Spin,Magnetic field MRCI
   Miquel Garcia          : C-PCM and meta-GGA Hessian, CCSD/C-PCM, Gaussian charge scheme
   Tiago L. C. Gouveia    : GS-ROHF, GS-ROCIS
   Yang Guo               : DLPNO-NEVPT2, F12-NEVPT2, CIM, IAO-localization
   Andreas Hansen         : Spin unrestricted coupled pair/coupled cluster methods
   Ingolf Harden          : AUTO-CI MPn and infrastructure 
   Benjamin Helmich-Paris : MC-RPA, TRAH-(SCF,CASSCF), AVAS, COSX integrals, SCF dyn. polar.
   Lee Huntington         : MR-EOM, pCC
   Robert Izsak           : Overlap fitted RIJCOSX, COSX-SCS-MP3, EOM
   Riya Kayal             : Wick's Theorem for AUTO-CI, AUTO-CI UHF-CCSDT
   Emily Kempfer          : AUTO-CI, RHF CISDT and CCSDT
   Christian Kollmar      : KDIIS, OOCD, Brueckner-CCSD(T), CCSD density, CASPT2, CASPT2-K, improved NEVPT2
   Axel Koslowski         : Symmetry handling
   Simone Kossmann        : Meta GGA functionals, TD-DFT gradient, OOMP2, (MP2 Hessian; deprecated post 5.0)
   Lucas Lang             : DCDCAS
   Marvin Lechner         : AUTO-CI (C++ implementation), FIC-MRCC
   Spencer Leger          : CASSCF response
   Dagmar Lenk            : GEPOL surface, SMD, ORCA-2-JSON
   Dimitrios Liakos       : Extrapolation schemes; Compound Job, initial MDCI parallelization
   Dimitrios Manganas     : Further ROCIS development; embedding schemes. LFT, Crystal Embedding
   Dimitrios Pantazis     : SARC Basis sets
   Anastasios Papadopoulos: AUTO-CI, single reference methods and gradients
   Taras Petrenko         : pre 6.0 DFT Hessian and TD-DFT gradient, (ASA, deprecated), ECA, 1-Electron XAS/XES, NRVS
   Peter Pinski           : DLPNO-MP2, DLPNO-MP2 Gradient
   Christoph Reimann      : Effective Core Potentials
   Marius Retegan         : Local ZFS, SOC
   Christoph Riplinger    : Optimizer, TS searches, QM/MM, DLPNO-CCSD(T), (RO)-DLPNO pert. Triples
   Michael Roemelt        : Original ROCIS implementation
   Masaaki Saitow         : Open-shell DLPNO-CCSD energy and density
   Barbara Sandhoefer     : DKH picture change effects
   Kantharuban Sivalingam : CASSCF convergence/infrastructure, NEVPT2 and variants, FIC-MRCI
   Bernardo de Souza      : ESD, SOC TD-DFT
   Georgi Stoychev        : AutoAux, RI-MP2 NMR, DLPNO-MP2 response, X2C
   Van Anh Tran           : RI-MP2 g-tensors
   Willem Van den Heuvel  : Paramagnetic NMR
   Zikuan Wang            : NOTCH, Electric field optimization 
   Frank Wennmohs         : Technical directorship and infrastructure
   Hang Xu                : AUTO-CI-Response properties 


 We gratefully acknowledge several colleagues who have allowed us to
 interface, adapt or use parts of their codes:
   Stefan Grimme, W. Hujo, H. Kruse, P. Pracht,  : VdW corrections, initial TS optimization,
                  C. Bannwarth, S. Ehlert,         DFT functionals, gCP, sTDA/sTD-DF
                  L. Wittmann, M. Mueller
   Ed Valeev, F. Pavosevic, A. Kumar             : LibInt (2-el integral package), F12 methods
   Garnet Chan, S. Sharma, J. Yang, R. Olivares  : DMRG
   Ulf Ekstrom                                   : XCFun DFT Library
   Mihaly Kallay                                 : mrcc  (arbitrary order and MRCC methods)
   Frank Weinhold                                : gennbo (NPA and NBO analysis)
   Simon Mueller                                 : openCOSMO-RS
   Christopher J. Cramer and Donald G. Truhlar   : smd solvation model
   Lars Goerigk                                  : TD-DFT with DH, B97 family of functionals
   V. Asgeirsson, H. Jonsson                     : NEB implementation
   FAccTs GmbH                                   : IRC, NEB, NEB-TS, DLPNO-Multilevel, CI-OPT
                                                   MM, QMMM, 2- and 3-layer-ONIOM, Crystal-QMMM,
                                                   LR-CPCM, SF, NACMEs, symmetry and pop. for TD-DFT,
                                                   nearIR, NL-DFT gradient (VV10), updates on ESD,
                                                   ML-optimized integration grids, MBIS, APM,
                                                   GOAT, DOCKER, SOLVATOR, interface openCOSMO-RS
   S Lehtola, MJT Oliveira, MAL Marques          : LibXC Library
   Liviu Ungur et al                             : ANISO software


 Your calculation uses the libint2 library for the computation of 2-el integrals
 For citations please refer to: http://libint.valeyev.net

 Your ORCA version has been built with support for libXC version: 6.2.2
 For citations please refer to: https://libxc.gitlab.io

 This ORCA versions uses:
   CBLAS   interface :  Fast vector & matrix operations
   LAPACKE interface :  Fast linear algebra routines
   SCALAPACK package :  Parallel linear algebra routines
   Shared memory     :  Shared parallel matrices
   BLAS/LAPACK       :  OpenBLAS 0.3.27  USE64BITINT DYNAMIC_ARCH NO_AFFINITY SkylakeX SINGLE_THREADED
        Core in use  :  SkylakeX
   Copyright (c) 2011-2014, The OpenBLAS Project




***************************************
The coordinates will be read from file: xtb_opt.xyz
***************************************


Your calculation utilizes the geometrical counterpoise correction gCP
Please cite in your paper:
H.Kruse, S. Grimme J.Chem.Phys., 136, (2012), 154101 
   

Your calculation utilizes the atom-pairwise dispersion correction
based on EEQ partial charges (D4)


Your calculation utilizes the SMD solvation module
Please cite in your paper:
A.V. Marenich, C.J. Cramer, D.G. Truhlar J. Phys. Chem. B, 113, (2009), 6378 

================================================================================

----- Orbital basis set information -----
Your calculation utilizes the basis: def2-mTZVPP
   Stefan Grimme, Andreas Hansen, Sebastian Ehlert, and Jan-Michael Mewes 
   J. Chem. Phys. 154, 064103 (2021). DOI: 10.1063/5.0040021

----- AuxJ basis set information -----
Your calculation utilizes the auxiliary basis: def2/J
   F. Weigend, Phys. Chem. Chem. Phys. 8, 1057 (2006).

================================================================================
                                        WARNINGS
                       Please study these warnings very carefully!
================================================================================

WARNING: Old DensityContainer found on disk!
         Will remove this file - 
         If you want to keep old densities, please start your calculation with a different basename. 

Using LibXC functional ID 497 : Re-regularized SCAN exchange by Furness et al
[ 1]  J. W. Furness, A. D. Kaplan, J. Ning, J. P. Perdew, and J. Sun.,  J. Phys. Chem. Lett. 11, 8208-8215 (2020)
[ 2]  J. W. Furness, A. D. Kaplan, J. Ning, J. P. Perdew, and J. Sun.,  J. Phys. Chem. Lett. 11, 9248-9248 (2020)
Using LibXC functional ID 498 : Re-regularized SCAN correlation by Furness et al
[ 1]  J. W. Furness, A. D. Kaplan, J. Ning, J. P. Perdew, and J. Sun.,  J. Phys. Chem. Lett. 11, 8208-8215 (2020)
[ 2]  J. W. Furness, A. D. Kaplan, J. Ning, J. P. Perdew, and J. Sun.,  J. Phys. Chem. Lett. 11, 9248-9248 (2020)
Using LibXC functional ID 497 : Re-regularized SCAN exchange by Furness et al
[ 1]  J. W. Furness, A. D. Kaplan, J. Ning, J. P. Perdew, and J. Sun.,  J. Phys. Chem. Lett. 11, 8208-8215 (2020)
[ 2]  J. W. Furness, A. D. Kaplan, J. Ning, J. P. Perdew, and J. Sun.,  J. Phys. Chem. Lett. 11, 9248-9248 (2020)
Using LibXC functional ID 498 : Re-regularized SCAN correlation by Furness et al
[ 1]  J. W. Furness, A. D. Kaplan, J. Ning, J. P. Perdew, and J. Sun.,  J. Phys. Chem. Lett. 11, 8208-8215 (2020)
[ 2]  J. W. Furness, A. D. Kaplan, J. Ning, J. P. Perdew, and J. Sun.,  J. Phys. Chem. Lett. 11, 9248-9248 (2020)

================================================================================
                                       INPUT FILE
================================================================================
NAME = xtb_opt.inp
|  1> ! r2scan-3c def2/J RI DEFGRID2 scfconv7 ENGRAD tightSCF miniprint
|  2> %cpcm
|  3>     smd true
|  4>     smdsolvent "water"
|  5> end
|  6> * xyzfile 0 1 xtb_opt.xyz
|  7> 
|  8>                          ****END OF INPUT****
================================================================================

                     *******************************
                     * Energy+Gradient Calculation *
                     *******************************

---------------------------------
CARTESIAN COORDINATES (ANGSTROEM)
---------------------------------
  C     -2.580263    0.404876    0.902875
  C     -1.772464    0.553377   -0.394349
  C     -0.540739   -0.301584   -0.322525
  O     -0.535693   -1.516795   -0.449107
  O      0.566713    0.414106   -0.055947
  C      1.807761   -0.344871    0.112265
  C      2.904068    0.651692    0.388841
  H     -3.481423    1.021273    0.851385
  H     -2.882329   -0.634980    1.055979
  H     -1.992500    0.727620    1.767460
  H     -1.493878    1.597032   -0.554708
  H     -2.367257    0.209792   -1.245739
  H      1.670289   -1.044107    0.942631
  H      1.990794   -0.913068   -0.804345
  H      3.846015    0.113914    0.531235
  H      3.027480    1.344094   -0.448689
  H      2.695709    1.224744    1.296922

----------------------------
CARTESIAN COORDINATES (A.U.)
----------------------------
  NO LB      ZA    FRAG     MASS         X           Y           Z
   0 C     6.0000    0    12.011   -4.875990    0.765104    1.706186
   1 C     6.0000    0    12.011   -3.349471    1.045731   -0.745212
   2 C     6.0000    0    12.011   -1.021849   -0.569912   -0.609484
   3 O     8.0000    0    15.999   -1.012313   -2.866328   -0.848690
   4 O     8.0000    0    15.999    1.070933    0.782548   -0.105725
   5 C     6.0000    0    12.011    3.416173   -0.651712    0.212151
   6 C     6.0000    0    12.011    5.487893    1.231519    0.734803
   7 H     1.0000    0     1.008   -6.578937    1.929926    1.608885
   8 H     1.0000    0     1.008   -5.446812   -1.199939    1.995512
   9 H     1.0000    0     1.008   -3.765280    1.375003    3.340016
  10 H     1.0000    0     1.008   -2.823021    3.017952   -1.048245
  11 H     1.0000    0     1.008   -4.473468    0.396449   -2.354105
  12 H     1.0000    0     1.008    3.156389   -1.973076    1.781315
  13 H     1.0000    0     1.008    3.762056   -1.725449   -1.519992
  14 H     1.0000    0     1.008    7.267916    0.215266    1.003888
  15 H     1.0000    0     1.008    5.721108    2.539970   -0.847900
  16 H     1.0000    0     1.008    5.094152    2.314430    2.450828

------------------------------------------------------------------------------
                   ___                                                        
                  /   \      - P O W E R E D   B Y -                         
                 /     \                                                     
                 |  |  |   _    _      __       _____    __    __             
                 |  |  |  | |  | |    /  \     |  _  \  |  |  /  |          
                  \  \/   | |  | |   /    \    | | | |  |  | /  /          
                 / \  \   | |__| |  /  /\  \   | |_| |  |  |/  /          
                |  |  |   |  __  | /  /__\  \  |    /   |      \           
                |  |  |   | |  | | |   __   |  |    \   |  |\   \          
                \     /   | |  | | |  |  |  |  | |\  \  |  | \   \       
                 \___/    |_|  |_| |__|  |__|  |_| \__\ |__|  \__/        
                                                                              
                      - O R C A' S   B I G   F R I E N D -                    
                                      &                                       
                       - I N T E G R A L  F E E D E R -                       
                                                                              
 v1 FN, 2020, v2 2021, v3 2022-2024                                           
------------------------------------------------------------------------------


----------------------
SHARK INTEGRAL PACKAGE
----------------------

Number of atoms                             ...     17
Number of basis functions                   ...    193
Number of shells                            ...     95
Maximum angular momentum                    ...      2
Integral batch strategy                     ... SHARK/LIBINT Hybrid
RI-J (if used) integral strategy            ... SPLIT-RIJ (Revised 2003 algorithm where possible)
Printlevel                                  ...      1
Contraction scheme used                     ... SEGMENTED contraction
Prescreening option                         ... SCHWARTZ
   Thresh                                   ... 3.000e-11
   Tcut                                     ... 1.000e-12
   Tpresel                                  ... 1.000e-12 
Coulomb Range Separation                    ... NOT USED
Exchange Range Separation                   ... NOT USED
Multipole approximations                    ... NOT USED
Finite Nucleus Model                        ... NOT USED
CABS basis                                  ... NOT available
Auxiliary Coulomb fitting basis             ... AVAILABLE
   # of basis functions in Aux-J            ...    453
   # of shells in Aux-J                     ...    155
   Maximum angular momentum in Aux-J        ...      4
Auxiliary J/K fitting basis                 ... NOT available
Auxiliary Correlation fitting basis         ... NOT available
Auxiliary 'external' fitting basis          ... NOT available

Checking pre-screening integrals            ... done (  0.0 sec) Dimension = 95
Check shell pair data                       ... done (  0.0 sec)
Shell pair information
Shell pair cut-off parameter TPreSel        ...   1.0e-12
Total number of shell pairs                 ...      4560
Shell pairs after pre-screening             ...      4086
Total number of primitive shell pairs       ...     16115
Primitive shell pairs kept                  ...     10435
          la=0 lb=0:   1359 shell pairs
          la=1 lb=0:   1522 shell pairs
          la=1 lb=1:    445 shell pairs
          la=2 lb=0:    457 shell pairs
          la=2 lb=1:    259 shell pairs
          la=2 lb=2:     44 shell pairs

Calculating one electron integrals          ... done (  0.0 sec)
Calculating RI/J V-Matrix + Cholesky decomp.... done (  0.1 sec)
Calculating Nuclear repulsion               ... done (  0.0 sec) ENN=    313.121930740778 Eh

Diagonalization of the overlap matrix:
Smallest eigenvalue                        ... 2.507e-04
Time for diagonalization                   ...    0.004 sec
Threshold for overlap eigenvalues          ... 1.000e-07
Number of eigenvalues below threshold      ... 0
Time for construction of square roots      ...    0.015 sec
Total time needed                          ...    0.030 sec

-------------------
DFT GRID GENERATION
-------------------

General Integration Accuracy     IntAcc      ... 4.388
Radial Grid Type                 RadialGrid  ... OptM3 with GC (2021)
Angular Grid (max. ang.)         AngularGrid ... 4 (Lebedev-302)
Angular grid pruning method      GridPruning ... 4 (adaptive)
Weight generation scheme         WeightScheme... mBecke (2022)
Basis function cutoff            BFCut       ... 1.0000e-11
Integration weight cutoff        WCut        ... 1.0000e-14
Partially contracted basis set               ... off
Rotationally invariant grid construction     ... off
Angular grids for H and He will be reduced by one unit
Diffuse basis detected: some atoms will have their outermost
                        angular grid increased by 1.

Total number of grid points                  ...    75184
Total number of batches                      ...     1183
Average number of points per batch           ...       63
Average number of grid points per atom       ...     4423
Initializing property integral containers    ... done (  0.0 sec)

SHARK setup successfully completed in   1.0 seconds

Maximum memory used throughout the entire STARTUP-calculation: 33.7 MB
Occupation numbers will be reassigned to an Aufbau configuration
             **** ENERGY FILE WAS UPDATED (xtb_opt.en.tmp) ****
Finished Guess after   0.3 sec
Maximum memory used throughout the entire GUESS-calculation: 13.0 MB
--------------------
CPCM SOLVATION MODEL
--------------------
CPCM parameters:
  Epsilon                                         ...      78.3550
  Refrac                                          ...       1.3328
  Rsolv                                           ...       1.3000
  Surface type                                    ... GAUSSIAN VDW
  Discretization scheme                           ... Constant charge density
    Threshold for H atoms                         ...       5.0000 (charges/Ang^2)
    Threshold for non-H atoms                     ...       5.0000 (charges/Ang^2)
  Epsilon function type                           ...         CPCM
Solvent:                                          ... WATER
SMD-CDS solvent descriptors:
  Soln                                            ...       1.3328
  Soln25                                          ...       1.3323
  Sola                                            ...       0.0000
  Solb                                            ...       0.0000
  Solg                                            ...       0.0000
  Solc                                            ...       0.0000
  Solh                                            ...       0.0000
Radii:
  Scheme                                          ... Element-dependent radii
  Radius for C  used is    3.4960 Bohr (=   1.8500 Ang.)
  Radius for O  used is    2.8724 Bohr (=   1.5200 Ang.)
  Radius for H  used is    2.2677 Bohr (=   1.2000 Ang.)
Calculating surface                               ...        done! (  0.0s)
Cavity surface points                             ...         1302
Cavity Volume                                     ...     766.2868
Cavity Surface-area                               ...     522.9077
Calculating surface distance matrix               ...        done! (  0.0s)
Performing Cholesky decomposition & store         ...        done! (  0.1s)
Overall time for CPCM initialization              ...                 0.2s

----------------------------------------D-I-I-S--------------------------------------------
Iteration    Energy (Eh)           Delta-E    RMSDP     MaxDP     DIISErr   Damp  Time(sec)
-------------------------------------------------------------------------------------------
               ***  Starting incremental Fock matrix formation  ***
                              *** Initializing SOSCF ***
---------------------------------------S-O-S-C-F--------------------------------------
Iteration    Energy (Eh)           Delta-E    RMSDP     MaxDP     MaxGrad    Time(sec)
--------------------------------------------------------------------------------------
    1    -346.9570359806857596     0.00e+00  4.07e-05  7.95e-04  5.67e-05     2.6
               *** Restarting incremental Fock matrix formation ***
    2    -346.9570474584098747    -1.15e-05  1.73e-05  2.22e-04  8.53e-05     2.5
    3    -346.9570477124137824    -2.54e-07  1.06e-05  2.51e-04  2.10e-04     2.2
    4    -346.9570480216642636    -3.09e-07  8.10e-06  1.18e-04  9.50e-05     2.3
    5    -346.9570482066309296    -1.85e-07  2.11e-06  4.82e-05  2.08e-05     2.2
                  *** Gradient check signals convergence ***

               *****************************************************
               *                     SUCCESS                       *
               *           SCF CONVERGED AFTER   5 CYCLES          *
               *****************************************************


SMD CDS free energy correction energy :                 4.70754     Kcal/mol
Total Energy after SMD CDS correction =              -346.949546264 Eh
             **** ENERGY FILE WAS UPDATED (xtb_opt.en.tmp) ****

----------------
TOTAL SCF ENERGY
----------------

Total Energy       :       -346.94954626354871 Eh           -9440.97712 eV

Components:
Nuclear Repulsion  :        313.12193074077766 Eh            8520.48091 eV
Electronic Energy  :       -660.06257839042860 Eh          -17961.21589 eV
One Electron Energy:      -1091.81335989244235 Eh          -29709.75194 eV
Two Electron Energy:        431.75078150201369 Eh           11748.53605 eV
CPCM Dielectric    :         -0.01640055697983 Eh              -0.44628 eV
SMD CDS (Gcds)     :          0.00750194308220 Eh               0.20414 eV

Virial components:
Potential Energy   :       -692.30899559653199 Eh          -18838.68551 eV
Kinetic Energy     :        345.35944933298333 Eh            9397.70839 eV
Virial Ratio       :          2.00460417959791

DFT components:
N(Alpha)           :       27.999982207258 electrons
N(Beta)            :       27.999982207258 electrons
N(Total)           :       55.999964414515 electrons
E(X)               :      -46.119877883468 Eh       
E(C)               :       -1.784951308436 Eh       
E(XC)              :      -47.904829191904 Eh       

CPCM Solvation Model Properties:
Surface-charge          :         -0.04445303918080
Corrected charge        :         -0.00000000000000
Outlying charge corr.   :          0.00015617950062 Eh               0.00425 eV
Free-energy (cav+disp)  :          0.00750194308220 Eh               0.20414 eV

---------------
SCF CONVERGENCE
---------------

  Last Energy change         ...    1.8497e-07  Tolerance :   1.0000e-07
  Last MAX-Density change    ...    4.8186e-05  Tolerance :   1.0000e-07
  Last RMS-Density change    ...    2.1064e-06  Tolerance :   5.0000e-09
  Last DIIS Error            ...    1.0297e-03  Tolerance :   1.0000e-07
  Last Orbital Gradient      ...    2.0818e-05  Tolerance :   1.0000e-04
  Last Orbital Rotation      ...    3.0954e-05  Tolerance :   1.0000e-04


----------------
ORBITAL ENERGIES
----------------

  NO   OCC          E(Eh)            E(eV) 
   0   2.0000     -19.002211      -517.0765 
   1   2.0000     -18.945062      -515.5213 
   2   2.0000     -10.164096      -276.5791 
   3   2.0000     -10.085014      -274.4272 
   4   2.0000     -10.039855      -273.1984 
   5   2.0000     -10.025422      -272.8056 
   6   2.0000     -10.020960      -272.6842 
   7   2.0000      -1.069214       -29.0948 
   8   2.0000      -0.983471       -26.7616 
   9   2.0000      -0.759588       -20.6694 
  10   2.0000      -0.725267       -19.7355 
  11   2.0000      -0.630064       -17.1449 
  12   2.0000      -0.583375       -15.8744 
  13   2.0000      -0.530917       -14.4470 
  14   2.0000      -0.469630       -12.7793 
  15   2.0000      -0.457721       -12.4552 
  16   2.0000      -0.442726       -12.0472 
  17   2.0000      -0.409828       -11.1520 
  18   2.0000      -0.400215       -10.8904 
  19   2.0000      -0.373705       -10.1690 
  20   2.0000      -0.356939        -9.7128 
  21   2.0000      -0.343878        -9.3574 
  22   2.0000      -0.335958        -9.1419 
  23   2.0000      -0.324129        -8.8200 
  24   2.0000      -0.317943        -8.6517 
  25   2.0000      -0.312487        -8.5032 
  26   2.0000      -0.278657        -7.5827 
  27   2.0000      -0.251047        -6.8313 
  28   0.0000      -0.027751        -0.7551 
  29   0.0000       0.072470         1.9720 
  30   0.0000       0.100031         2.7220 
  31   0.0000       0.123928         3.3722 
  32   0.0000       0.132896         3.6163 
  33   0.0000       0.139320         3.7911 
  34   0.0000       0.153396         4.1741 
  35   0.0000       0.160373         4.3640 
  36   0.0000       0.166670         4.5353 
  37   0.0000       0.175433         4.7738 
  38   0.0000       0.179521         4.8850 
*Only the first 10 virtual orbitals were printed.
Total SCF time: 0 days 0 hours 0 min 12 sec 
Finished LeanSCF after  12.6 sec

Maximum memory used throughout the entire LEANSCF-calculation: 24.1 MB


-------------------------------------------------------------------------------
                          DFT DISPERSION CORRECTION                            
                                                                               
                                DFTD4 V3.4.0                                   
-------------------------------------------------------------------------------
-------------------------   ----------------
Dispersion correction           -0.003852447
-------------------------   ----------------

------------------   -----------------
gCP correction             0.010121221
------------------   -----------------

-------------------------   --------------------
FINAL SINGLE POINT ENERGY      -346.943277488624
-------------------------   --------------------

------------------------------------------------------------------------------
                         ORCA SCF GRADIENT CALCULATION
------------------------------------------------------------------------------

Nuc. rep. gradient        (SHARK) ... done (  0.0 sec)
HCore & Overlap gradient  (SHARK) ... done (  0.2 sec)
Split-RIJ-J gradient      (SHARK) ... done (  1.3 sec)
XC gradient                       ... done (  5.1 sec)
CPCM gradient                     ... done (  0.7 sec)
SMD gradient                      ... done (  0.0 sec)
Dispersion correction             ... done (  0.0 sec)

-------------------
DISPERSION GRADIENT
-------------------

   1   C   :   -0.000067388    0.000014293    0.000026912
   2   C   :   -0.000063776    0.000020581   -0.000018083
   3   C   :   -0.000026923   -0.000019597   -0.000020119
   4   O   :   -0.000011704   -0.000064690   -0.000026761
   5   O   :    0.000031383    0.000000361   -0.000011154
   6   C   :    0.000061830   -0.000019607   -0.000000319
   7   C   :    0.000077550    0.000019487    0.000012534
   8   H   :   -0.000023795    0.000009077    0.000010453
   9   H   :   -0.000025703   -0.000001644    0.000011556
[...]
N(Beta)            :       27.999981774074 electrons
N(Total)           :       55.999963548147 electrons
E(X)               :      -46.120209989726 Eh       
E(C)               :       -1.784992180309 Eh       
E(XC)              :      -47.905202170034 Eh       

CPCM Solvation Model Properties:
Surface-charge          :         -0.04446190824108
Corrected charge        :          0.00000000000000
Outlying charge corr.   :          0.00015623760076 Eh               0.00425 eV
Free-energy (cav+disp)  :          0.00750475420653 Eh               0.20421 eV

---------------
SCF CONVERGENCE
---------------

  Last Energy change         ...    7.5930e-09  Tolerance :   1.0000e-07
  Last MAX-Density change    ...    5.2653e-05  Tolerance :   1.0000e-07
  Last RMS-Density change    ...    2.1896e-06  Tolerance :   5.0000e-09
  Last DIIS Error            ...    6.7242e-05  Tolerance :   1.0000e-07
  Last Orbital Gradient      ...    1.4849e-05  Tolerance :   1.0000e-04
  Last Orbital Rotation      ...    3.0780e-05  Tolerance :   1.0000e-04


----------------
ORBITAL ENERGIES
----------------

  NO   OCC          E(Eh)            E(eV) 
   0   2.0000     -19.002517      -517.0848 
   1   2.0000     -18.945058      -515.5212 
   2   2.0000     -10.164113      -276.5796 
   3   2.0000     -10.085043      -274.4280 
   4   2.0000     -10.039863      -273.1986 
   5   2.0000     -10.025222      -272.8002 
   6   2.0000     -10.020935      -272.6835 
   7   2.0000      -1.069536       -29.1036 
   8   2.0000      -0.983564       -26.7641 
   9   2.0000      -0.759645       -20.6710 
  10   2.0000      -0.725349       -19.7378 
  11   2.0000      -0.630167       -17.1477 
  12   2.0000      -0.583475       -15.8772 
  13   2.0000      -0.531030       -14.4501 
  14   2.0000      -0.469623       -12.7791 
  15   2.0000      -0.457865       -12.4591 
  16   2.0000      -0.442831       -12.0500 
  17   2.0000      -0.409826       -11.1519 
  18   2.0000      -0.400151       -10.8887 
  19   2.0000      -0.373792       -10.1714 
  20   2.0000      -0.356939        -9.7128 
  21   2.0000      -0.343921        -9.3586 
  22   2.0000      -0.335855        -9.1391 
  23   2.0000      -0.324090        -8.8189 
  24   2.0000      -0.317978        -8.6526 
  25   2.0000      -0.312373        -8.5001 
  26   2.0000      -0.278752        -7.5852 
  27   2.0000      -0.251053        -6.8315 
  28   0.0000      -0.027779        -0.7559 
  29   0.0000       0.072505         1.9730 
  30   0.0000       0.100050         2.7225 
  31   0.0000       0.123921         3.3721 
  32   0.0000       0.133037         3.6201 
  33   0.0000       0.139308         3.7908 
  34   0.0000       0.153451         4.1756 
  35   0.0000       0.160354         4.3634 
  36   0.0000       0.166708         4.5363 
  37   0.0000       0.175460         4.7745 
  38   0.0000       0.179559         4.8861 
*Only the first 10 virtual orbitals were printed.
Total SCF time: 0 days 0 hours 0 min 5 sec 
Finished LeanSCF after   6.1 sec

Maximum memory used throughout the entire LEANSCF-calculation: 24.1 MB


-------------------------------------------------------------------------------
                          DFT DISPERSION CORRECTION                            
                                                                               
                                DFTD4 V3.4.0                                   
-------------------------------------------------------------------------------
-------------------------   ----------------
Dispersion correction           -0.003851915
-------------------------   ----------------

------------------   -----------------
gCP correction             0.010122767
------------------   -----------------

-------------------------   --------------------
FINAL SINGLE POINT ENERGY      -346.943281616200
-------------------------   --------------------

------------------------------------------------------------------------------
                         ORCA SCF GRADIENT CALCULATION
------------------------------------------------------------------------------

Nuc. rep. gradient        (SHARK) ... done (  0.0 sec)
HCore & Overlap gradient  (SHARK) ... done (  0.2 sec)
Split-RIJ-J gradient      (SHARK) ... done (  1.1 sec)
XC gradient                       ... done (  4.8 sec)
CPCM gradient                     ... done (  0.7 sec)
SMD gradient                      ... done (  0.0 sec)
Dispersion correction             ... done (  0.0 sec)

-------------------
DISPERSION GRADIENT
-------------------

   1   C   :   -0.000067358    0.000014281    0.000026824
   2   C   :   -0.000063759    0.000020589   -0.000018081
   3   C   :   -0.000026869   -0.000019591   -0.000020045
   4   O   :   -0.000011804   -0.000064671   -0.000026511
   5   O   :    0.000031416    0.000000356   -0.000011124
   6   C   :    0.000061792   -0.000019635   -0.000000347
   7   C   :    0.000077526    0.000019484    0.000012471
   8   H   :   -0.000023790    0.000009063    0.000010401
   9   H   :   -0.000025661   -0.000001640    0.000011510
  10   H   :   -0.000030512    0.000010017    0.000020453
  11   H   :   -0.000023475    0.000019273   -0.000008904
  12   H   :   -0.000020323    0.000002272   -0.000012285
  13   H   :    0.000023925   -0.000010732    0.000005342
  14   H   :    0.000019732   -0.000007881   -0.000004559
  15   H   :    0.000022568    0.000004487    0.000004552
  16   H   :    0.000027654    0.000012346   -0.000000254
  17   H   :    0.000028938    0.000011982    0.000010556

Difference to translation invariance:
           :   -0.0000000000   -0.0000000000   -0.0000000000

Difference to rotation invariance:
           :    0.0000000000   -0.0000000000   -0.0000000000

Norm of the Dispersion gradient    ...    0.0001923213
RMS gradient                       ...    0.0000269304
MAX gradient                       ...    0.0000775265
gCP correction                   ... done

------------------
CARTESIAN GRADIENT
------------------

   1   C   :   -0.000007112    0.000178317   -0.000133607
   2   C   :    0.000185047   -0.000366739    0.000175482
   3   C   :    0.000196885    0.000285590   -0.000462548
   4   O   :   -0.000198616    0.000112567    0.000059781
   5   O   :   -0.000018337   -0.000153336    0.000081846
   6   C   :   -0.000118140    0.000232018   -0.000023039
   7   C   :   -0.000211066   -0.000212546   -0.000063197
   8   H   :   -0.000100671    0.000048093    0.000144894
   9   H   :   -0.000019041   -0.000110232   -0.000043901
  10   H   :    0.000078560   -0.000014139    0.000058168
  11   H   :    0.000025906   -0.000024399   -0.000066347
  12   H   :    0.000035128   -0.000038045    0.000057398
  13   H   :    0.000035930   -0.000123630    0.000111677
  14   H   :    0.000004870    0.000040276    0.000020132
  15   H   :    0.000058086    0.000056874    0.000023299
  16   H   :    0.000058994   -0.000022425   -0.000000262
  17   H   :   -0.000006423    0.000111755    0.000060224

Difference to translation invariance:
           :   -0.0000000000   -0.0000000000   -0.0000000000

Difference to rotation invariance:
           :    0.0000847568   -0.0003158232    0.0000579582

Norm of the Cartesian gradient     ...    0.0009795199
RMS gradient                       ...    0.0001371602
MAX gradient                       ...    0.0004625478

-------
TIMINGS
-------

Total SCF gradient time     ....        7.458 sec

Densities                   ....       0.001 sec  (  0.0%)
One electron gradient       ....       0.203 sec  (  2.7%)
RI-J Coulomb gradient       ....       1.139 sec  ( 15.3%)
XC gradient                 ....       4.756 sec  ( 63.8%)
CPCM gradient               ....       0.708 sec  (  9.5%)
   A-Matrix (El+Nuc)        ....       0.058 sec  (  0.8%)
   Potential                ....       0.650 sec  (  8.7%)
SMD gradient                ....       0.016 sec  (  0.2%)

Maximum memory used throughout the entire SCFGRAD-calculation: 33.1 MB

------------------------------------------------------------------------------
                              ORCA PROPERTY CALCULATIONS
------------------------------------------------------------------------------

GBWName                                 ... xtb_opt.gbw
Number of atoms                         ...     17
Number of basis functions               ...    193
Max core memory                         ...   1024 MB

Electric properties:
Dipole moment                           ... YES
Quadrupole moment                       ...  NO
Static polarizability (Dipole/Dipole)   ...  NO
Static polarizability (Dipole/Quad.)    ...  NO
Static polarizability (Quad./Quad.)     ...  NO
Static polarizability (Velocity)        ...  NO

Atomic electric properties:
Dipole moment                           ...  NO
Quadrupole moment                       ...  NO
Static polarizability                   ...  NO

Choice of electric origin               ... Center of mass
Position of electric origin             ...    -0.012263    -0.044288     0.069466

General magnetic properties:
Magnetizability                         ...  NO

EPR properties:
g-Tensor (aka g-matrix)                 ...  NO
Zero-Field splitting spin-orbit         ...  NO
Zero-field splitting spin-spin          ...  NO
Hyperfine couplings                     ...  NO (   0 nuclei)
Quadrupole couplings                    ...  NO (   0 nuclei)
Contact density                         ...  NO (   0 nuclei)

NMR properties:
Chemical shifts                         ...  NO (   0 nuclei)
Spin-rotation constants                 ...  NO (   0 nuclei)
Spin-spin couplings                     ...  NO (   0 nuclei,    0 pairs)

Choice of magnetic origin               ... GIAO
Position of magnetic origin             ...     0.000000     0.000000     0.000000

Properties with geometric perturbations:
SCF Hessian                             ...  NO
IR spectrum                             ...  NO
VCD spectrum                            ...  NO
X-ray spectroscopy properties:
SCF XES/XAS/RIXS spectra                ...  NO


-------------
DIPOLE MOMENT
-------------

Method             : SCF
Type of density    : Electron Density
Multiplicity       :   1
Irrep              :   0
Energy             :  -346.9495524682663472 Eh
Relativity type    : 
Basis              : AO
                                X                 Y                 Z
Electronic contribution:     -0.607436783      -2.582758008      -2.536780993
Nuclear contribution   :      1.011310570       3.624872870       2.818502528
                        -----------------------------------------
Total Dipole Moment    :      0.403873787       1.042114863       0.281721535
                        -----------------------------------------
Magnitude (a.u.)       :      1.152598996
Magnitude (Debye)      :      2.929673823



--------------------
Rotational spectrum 
--------------------
 
Rotational constants in cm-1:             0.185510             0.046296             0.040882 
Rotational constants in MHz :          5561.439785          1387.928747          1225.597270 

Dipole components along the rotational axes: 
x,y,z [a.u.] :     0.433146     1.059338    -0.136649 
x,y,z [Debye]:     1.100970     2.692622    -0.347335 

 

Dipole moment calculation done in   0.0 sec 

Maximum memory used throughout the entire PROP-calculation: 11.5 MB

--------------------------------
SUGGESTED CITATIONS FOR THIS RUN
--------------------------------

Below you find a list of papers that are relevant to this ORCA run
We neither can nor want to force you to cite these papers, but we appreciate if you do
You receive ORCA, which is the product of decades of hard work by many enthusiastic individuals, for free
The only thing we kindly ask in return is that you cite our papers,
We deeply appreciate it, if you show your appreciation for ORCA by not just citing the generic ORCA reference.

Please note that relegating all ORCA citations to the supporting information does *not* help us.
SI sections are not indexed - citations you put there will not count into any citation statistics
But we need these citations in order to attract the funding resources that allow us to do what we are doing

Therefore, if you are a happy ORCA user, please consider citing a few of the papers listed below in the main body of your paper

In addition to the list printed below, the program has created the file xtb_opt.bibtex that contains the list in bibtex format
You can import this file easily into all common literature databanks and citation aid programs


List of essential papers. We consider these as the minimum necessary citations

  1. Neese,F.
     Software update: the ORCA program system, version 5.0
     WIRES Comput. Molec. Sci., 2022 12(1)e1606
     doi.org/10.1002/wcms.1606
  2. Grimme,S.; Hansen,A.; Ehlert,S.; Mewes,J.
     r2SCAN-3c: A 'Swiss army knife' composite electronic-structure method
     J. Chem. Phys., 2021 154 064103
     doi.org/10.1063/5.0040021

List of papers to cite with high priority. The work reported in these papers was absolutely
necessary for this run to complete.
Our perspective: the developers of density functionals and basis sets usually get cited in chemistry papers
Good! But without the algorithms to do something with them, the functionals or basis sets would not do anything.
Hence, in our opinion, the algorithm design and method developments papers are equally worthy of getting cited

  1. Neese,F.
     An improvement of the resolution of the identity approximation for the formation of the Coulomb matrix
     J. Comp. Chem., 2003 24(14)1740-1747
     doi.org/10.1002/jcc.10318
  2. Garcia-Rates,M.; Neese,F.
     Effect of the Solute Cavity on the Solvation Energy and its Derivatives within the Framework of the Gaussian Charge Scheme
     J. Comput. Chem., 2020 41 922-939
     doi.org/10.1002/jcc.26139
  3. Neese,F.
     The SHARK Integral Generation and Digestion System
     J. Comp. Chem., 2022  1-16
     doi.org/10.1002/jcc.26942
  4. Lehtola,S.; Steigemann,C.; Oliveira,M.; Marques,M.
     Recent developments in Libxc - A comprehensive library of functionals for density functional theory
     Software X, 2018 7 
     doi.org/10.1016/j.softx.2017.11.002
  5. Caldeweyher,E.; Bannwarth,C.; Grimme,S.
     Extension of the D3 dispersion coefficient model
     J. Chem. Phys., 2017 147 034112-XXXX
     doi.org/10.1063/1.4993215
  6. Caldeweyher,E.; Ehlert,S.; Hansen,A.; Neugebauer,H.; Spicher,S.; Bannwarth,C.; Grimme,S.
     A generally applicable atomic-charge dependent London dispersion correction
     J. Chem. Phys., 2019 150 154122-XXXX
     doi.org/10.1063/1.5090222
  7. Caldeweyher,E.; Mewes,J.; Ehlert,S.; Grimme,S.
     Extension and evaluation of the D4 London-dispersion model for periodic systems
     Phys. Chem. Chem. Phys., 2020 22(16)8499-8512
     doi.org/10.1039/D0CP00502A

List of suggested additional citations. These are papers that are important in the 'surrounding' of 
of this run, or papers that preceded the highly important papers. If you like your results we are grateful for a citation.

  1. Neese,F.
     The ORCA program system
     WIRES Comput. Molec. Sci., 2012 2(1)73-78
     doi.org/10.1002/wcms.81
  2. Neese,F.
     Software update: the ORCA program system, version 4.0
     WIRES Comput. Molec. Sci., 2018 8(1)1-6
     doi.org/10.1002/wcms.1327
  3. Neese,F.; Wennmohs,F.; Becker,U.; Riplinger,C.
     The ORCA quantum chemistry program package
     J. Chem. Phys., 2020 152 Art. No. L224108
     doi.org/10.1063/5.0004608

List of optional additional citations

  1. Neese,F.
     Approximate second-order SCF convergence for spin unrestricted wavefunctions
     Chem. Phys. Lett., 2000 325(1-3)93-98
     doi.org/10.1016/s0009-2614(00)00662-x

Timings for individual modules:

Sum of individual times          ...       15.230 sec (=   0.254 min)
Startup calculation              ...        1.063 sec (=   0.018 min)   7.0 %
SCF iterations                   ...        6.484 sec (=   0.108 min)  42.6 %
Property calculations            ...        0.121 sec (=   0.002 min)   0.8 %
SCF Gradient evaluation          ...        7.562 sec (=   0.126 min)  49.6 %
                             ****ORCA TERMINATED NORMALLY****
TOTAL RUN TIME: 0 days 0 hours 0 minutes 16 seconds 154 msec
  ------------------------------------------------------------------------
          * successful ORCA run, taking over control again...

         :::::::::::::::::::::::::::::::::::::::::::::::::::::
         ::                  ORCA SUMMARY                   ::
         :::::::::::::::::::::::::::::::::::::::::::::::::::::
         :: total energy            -346.943281616200 Eh    ::
         :: gradient norm              0.000979519934 Eh/a0 ::
         :: HOMO-LUMO gap              0.000000000000 eV    ::
         :::::::::::::::::::::::::::::::::::::::::::::::::::::

           -------------------------------------------------
          |                Property Printout                |
           -------------------------------------------------
           -------------------------------------------------
          |                Geometry Summary                 |
           -------------------------------------------------

      molecular mass/u    :      102.1318968
   center of mass at/Å    :       -0.0064894      -0.0234453       0.0367544
  moments of inertia/u·Å² :        0.9087129E+02   0.3641146E+03   0.4123440E+03
rotational constants/cm⁻¹ :        0.1855111E+00   0.4629760E-01   0.4088244E-01

 * 14 selected distances

     #   Z          #   Z                                           value/Å
     1   6 C        2   6 C                                       1.5351943 (max)
     3   6 C        4   8 O                                       1.2219846
     3   6 C        5   8 O                                       1.3443743
     6   6 C        7   6 C                                       1.5068359
     1   6 C        8   1 H                                       1.0931452
     1   6 C        9   1 H                                       1.0937732
     1   6 C       10   1 H                                       1.0942320
     2   6 C       11   1 H                                       1.0921223 (min)
     2   6 C       12   1 H                                       1.0939056
     6   6 C       13   1 H                                       1.0944106
     6   6 C       14   1 H                                       1.0938830
     7   6 C       15   1 H                                       1.0940102
     7   6 C       16   1 H                                       1.0937488
     7   6 C       17   1 H                                       1.0939329

 * 3 distinct bonds (by element types)

   Z      Z             #   av. dist./Å        max./Å        min./Å
   1 H    6 C          10     1.0937164     1.0944106     1.0921223
   6 C    6 C           2     1.5210151     1.5351943     1.5068359
   6 C    8 O           2     1.2831794     1.3443743     1.2219846


optimized geometry written to: xtbopt.coord


           -------------------------------------------------
          | TOTAL ENERGY             -346.943281616200 Eh   |
          | GRADIENT NORM               0.000979519934 Eh/α |
           -------------------------------------------------

------------------------------------------------------------------------
 * finished run on 2025/04/11 at 12:55:00.011     
------------------------------------------------------------------------
 total:
 * wall-time:     0 d,  0 h,  1 min, 17.839 sec
 *  cpu-time:     0 d,  0 h,  0 min,  1.525 sec
 * ratio c/w:     0.020 speedup
 SCF:
 * wall-time:     0 d,  0 h,  0 min, 18.001 sec
 *  cpu-time:     0 d,  0 h,  0 min,  0.606 sec
 * ratio c/w:     0.034 speedup
 ANC optimizer:
 * wall-time:     0 d,  0 h,  0 min, 59.682 sec
 *  cpu-time:     0 d,  0 h,  0 min,  0.622 sec
 * ratio c/w:     0.010 speedup

