18
 energy: -272.904445002364 gnorm: 0.032411746232 xtb: 6.7.1 (edcfbbe)
C           -2.52764788822007        0.59539686656384        0.12733784755643
C           -1.16281327191527        0.74671407923089       -0.53528370353720
C           -0.04589365742034        0.01656117130734        0.21666770639601
H           -0.03306974661465        0.37511895496623        1.25312585525529
C           -0.24595287110899       -1.49748371516357        0.22459962329953
C            1.31137579968111        0.35360675435669       -0.41831671048537
O            2.40904913806751       -0.17292484507663        0.29556002513097
H           -3.26656304734750        1.19418862562918       -0.39924720417692
H           -2.85584490076550       -0.43988796989493        0.11105675434921
H           -2.48831413800264        0.93025999581222        1.16138607951464
H           -0.91216393930420        1.80905598660164       -0.58896296126099
H           -1.21008673513622        0.36785867096301       -1.55842790479058
H            0.65324267928947       -1.98387264337911        0.59644385126430
H           -0.43519210419285       -1.85706206092291       -0.78448715644763
H           -1.07963720347842       -1.78017859228884        0.86046940768130
H            1.41684988232784        1.44277636783933       -0.52062413783070
H            1.37527864890942       -0.09065945134017       -1.41482234162695
H            2.42337850907386        0.21772719149648        1.18030438512302
18
 energy: -272.905457960966 gnorm: 0.012085424552 xtb: 6.7.1 (edcfbbe)
C           -2.52885664191202        0.59500641427290        0.12352434723525
C           -1.15709717938135        0.74835708892097       -0.53141040326484
C           -0.03594346124810        0.01277300078702        0.21077703883525
H           -0.01641856266970        0.38118582019298        1.24718279290176
C           -0.24981964572045       -1.50169941774929        0.23014480739849
C            1.31568297405043        0.35964857374452       -0.42066821380969
O            2.43045189675877       -0.16791061359290        0.29758457530001
H           -3.27872390180119        1.19409133001559       -0.39944835476014
H           -2.86555659605524       -0.44421729157098        0.11084943594895
H           -2.49685101660079        0.92831686847733        1.16495734016584
H           -0.90535820650508        1.81402102669345       -0.58924629063043
H           -1.19998273415042        0.37485244501492       -1.56196472163331
H            0.64004593975578       -2.00811178504850        0.61263693805704
H           -0.43940889136609       -1.86712487557332       -0.78440636687114
H           -1.09392182378131       -1.78729598075283        0.86119179176093
H            1.40788018735614        1.45163152063896       -0.52224498870252
H            1.36997046933690       -0.07747686898935       -1.42434243348872
H            2.42990210039010        0.22114809285446        1.18166145048456
18
 energy: -272.905656793698 gnorm: 0.004318314623 xtb: 6.7.1 (edcfbbe)
C           -2.52627931803695        0.59259119295202        0.12148962279922
C           -1.15218695010077        0.74837177814766       -0.52850878617791
C           -0.03137931766383        0.01095695908934        0.21476296388460
H           -0.00653513593468        0.38367629729139        1.25147520026544
C           -0.25129685771813       -1.50269988238820        0.23458100608043
C            1.31160702448741        0.36138063257075       -0.42648051465987
O            2.43981952443245       -0.16366857463507        0.29064892986420
H           -3.27822253506946        1.19339004464266       -0.40156636900826
H           -2.86815020613943       -0.44765798273442        0.10686449528506
H           -2.50258954425945        0.92298600993153        1.16712455741277
H           -0.90018474665077        1.81575241381014       -0.58350726232052
H           -1.19063202869901        0.38228650280665       -1.56476014163962
H            0.62805155984952       -2.02308769748201        0.62953875757688
H           -0.43697171526779       -1.87366407939654       -0.78218930996223
H           -1.10601253450411       -1.78374047469871        0.85788190058652
H            1.40130920847004        1.45419038388567       -0.52107384767856
H            1.36895592393803       -0.06923543974548       -1.43428569910051
H            2.42669236021675        0.22536703938762        1.17478236524104
18
 energy: -272.905702644369 gnorm: 0.002126442283 xtb: 6.7.1 (edcfbbe)
C           -2.52668920718963        0.59046024118077        0.12000693183355
C           -1.15170397308133        0.74851168459530       -0.52528454089425
C           -0.02902422770884        0.00996058786592        0.21520794689672
H           -0.00107065196729        0.38352114826646        1.25146993702557
C           -0.25206618337858       -1.50238129876075        0.23784039542716
C            1.30986148636946        0.36231894490890       -0.42986070040247
O            2.44499661283605       -0.16303058412668        0.28416830699255
H           -3.27686865633452        1.19320217352565       -0.40334514846107
H           -2.86892783289556       -0.44955018810822        0.10090583446799
H           -2.50618811333268        0.91732000873805        1.16686828452373
H           -0.89973045498365        1.81619188083592       -0.57536491515696
H           -1.18686869401190        0.38720906233105       -1.56342909313307
H            0.62068281862039       -2.02601317318366        0.64272731221129
H           -0.43096556037593       -1.87630980978998       -0.77911663481532
H           -1.11382825205770       -1.77791682559312        0.85432856791816
H            1.40079858556788        1.45488718882359       -0.52089268476697
H            1.36720104546471       -0.06659530576411       -1.43803557897684
H            2.42638593201934        0.22540922023880        1.16858290167915
18
 energy: -272.905731115971 gnorm: 0.002119273540 xtb: 6.7.1 (edcfbbe)
C           -2.52713501200826        0.58705562627504        0.11840597390849
C           -1.15145459974430        0.75022993169046       -0.52197699176509
C           -0.02752309109435        0.01037763452257        0.21654700384021
H            0.00383016182761        0.38444295871103        1.25215962591661
C           -0.25222150100266       -1.50082725919987        0.24185731161949
C            1.30758721304529        0.36248918723561       -0.43396667667344
O            2.44747073059602       -0.16535012430893        0.27613830522002
H           -3.27443382079403        1.19260621439992       -0.40476468826689
H           -2.86878757094969       -0.45238711979565        0.09168926631953
H           -2.51024701943994        0.90817323666670        1.16652533605521
H           -0.90050173680034        1.81812368099402       -0.56506317274274
H           -1.18312100368792        0.39433076097624       -1.56157504480009
H            0.61357029209821       -2.02422053618489        0.65999638142872
H           -0.41984095789115       -1.87864127476427       -0.77502046061646
H           -1.12212181092513       -1.77004269995312        0.84900651443116
H            1.40141770626312        1.45450791879854       -0.52222157364545
H            1.36240084601761       -0.06581122950489       -1.44188596025177
H            2.42710590496780        0.22213780514959        1.16092497477524
18
 energy: -272.905751196365 gnorm: 0.002443082944 xtb: 6.7.1 (edcfbbe)
C           -2.52830178053965        0.58337700887239        0.11656356526158
C           -1.15151032841563        0.75291539875318       -0.51898928757475
C           -0.02654637364504        0.01230638428644        0.21791165220110
H            0.00787199358711        0.38727819061148        1.25280928470871
C           -0.25212351252856       -1.49827497945453        0.24642548495524
C            1.30649867206199        0.36177473461870       -0.43751352820530
O            2.44866402625959       -0.16979473900830        0.26776660054115
H           -3.27358819082793        1.19229236593063       -0.40475739675252
H           -2.86868416910189       -0.45573585952034        0.08019902054906
H           -2.51486415887917        0.89651651627194        1.16668297564837
H           -0.90253221371411        1.82126691198562       -0.55469210758353
H           -1.17974291363521        0.40255586099621       -1.56011552505376
H            0.60734007163831       -2.01924247654057        0.67926234171020
H           -0.40578143381247       -1.88043587774356       -0.77062631606531
H           -1.13039060175675       -1.76258618137331        0.84292149789908
H            1.40334929718548        1.45334118794905       -0.52491550006367
H            1.35600014643995       -0.06649388361903       -1.44533104525199
H            2.43033632769099        0.21613389080068        1.15317329403338
18
 energy: -272.905768883488 gnorm: 0.002070073235 xtb: 6.7.1 (edcfbbe)
C           -2.52985059679812        0.57919023728043        0.11410131734674
C           -1.15123905444508        0.75651040677842       -0.51606298554282
C           -0.02583764456823        0.01532281341287        0.21989877258036
H            0.01160635459929        0.39216839783672        1.25388662632638
C           -0.25214314352416       -1.49503415827880        0.25237037391981
C            1.30571573586928        0.36105881513017       -0.44100744670950
O            2.44861867925517       -0.17557037932468        0.25800039190374
H           -3.27386793668945        1.19269337309810       -0.40343345507624
H           -2.86897171598300       -0.45970848006791        0.06542769163210
H           -2.52004207619346        0.88135266645508        1.16735220977785
H           -0.90533175195481        1.82565253627949       -0.54448079730730
H           -1.17590417578326        0.41231570328181       -1.55912713538441
H            0.60083679416698       -2.01270442353888        0.70127974988071
H           -0.38943921772148       -1.88227760793797       -0.76499180145004
H           -1.13920636748722       -1.75609801768874        0.83657875950400
H            1.40661107510909        1.45224586379899       -0.52879671691016
H            1.34813753977862       -0.06743899058976       -1.44901622294147
H            2.43630255933128        0.20751539470937        1.14479436179795
18
 energy: -272.905778288281 gnorm: 0.000876854180 xtb: 6.7.1 (edcfbbe)
C           -2.53140000981214        0.57566099076858        0.11156686553328
C           -1.15106883736865        0.75963647327481       -0.51416583554609
C           -0.02563080219376        0.01863880648504        0.22162078203681
H            0.01402925089178        0.39785852901672        1.25478308615283
C           -0.25199809214511       -1.49181871457815        0.25795637141176
C            1.30573532670043        0.36009274584731       -0.44310067146378
O            2.44850070635714       -0.18093695207993        0.24957520743678
H           -3.27492365394594        1.19437730035990       -0.40088835530593
H           -2.87017426466332       -0.46294395083603        0.05100992652230
H           -2.52409223272319        0.86633573479909        1.16831772885243
H           -0.90805236075366        1.82962037099536       -0.53740813600896
H           -1.17264515614760        0.42029749647219       -1.55903358687073
H            0.59596411871736       -2.00674728359605        0.71937597613682
H           -0.37620890822349       -1.88363585122441       -0.75941662560887
H           -1.14573151958261       -1.75144144792135        0.83231702970162
H            1.40909276443091        1.45124374414635       -0.53181147392988
H            1.34123320316280       -0.06785920229322       -1.45189892660982
H            2.44336573761546        0.19881509283132        1.13797317167024
18
 energy: -272.905780676929 gnorm: 0.000465926236 xtb: 6.7.1 (edcfbbe)
C           -2.53149152624497        0.57495398535046        0.11051431692535
C           -1.15080003427806        0.75983815696206       -0.51457659430732
C           -0.02583866571542        0.01953508398720        0.22204696516006
H            0.01362849730491        0.40008725385337        1.25492039726369
C           -0.25212505026134       -1.49106505168044        0.25982181312959
C            1.30618713212507        0.36033434173430       -0.44276592107556
O            2.44788882759778       -0.18204465369998        0.24780694385284
H           -3.27509549634507        1.19669425742081       -0.39864177858439
H           -2.87164069953980       -0.46307691623371        0.04581138808389
H           -2.52367067899584        0.86078214650052        1.16873191398690
H           -0.90847390167167        1.83010142361674       -0.53826981472254
H           -1.17177027185944        0.42066518010232       -1.55974492965986
H            0.59578361803916       -2.00554633051571        0.72140306192183
H           -0.37590971313709       -1.88376628926719       -0.75712414854087
H           -1.14567661916743       -1.75161790324608        0.83389284454174
H            1.40930184425566        1.45180325695673       -0.53160107838108
H            1.33985400182493       -0.06645488868553       -1.45234802258162
H            2.44584410000410        0.19597075118131        1.13689492721672
18
 energy: -272.905780676929 gnorm: 0.000465926236 xtb: 6.7.1 (edcfbbe)
C           -2.53149152624497        0.57495398535046        0.11051431692535
C           -1.15080003427806        0.75983815696206       -0.51457659430732
C           -0.02583866571542        0.01953508398720        0.22204696516006
H            0.01362849730491        0.40008725385337        1.25492039726369
C           -0.25212505026134       -1.49106505168044        0.25982181312959
C            1.30618713212507        0.36033434173430       -0.44276592107556
O            2.44788882759778       -0.18204465369998        0.24780694385284
H           -3.27509549634507        1.19669425742081       -0.39864177858439
H           -2.87164069953980       -0.46307691623371        0.04581138808389
H           -2.52367067899584        0.86078214650052        1.16873191398690
H           -0.90847390167167        1.83010142361674       -0.53826981472254
H           -1.17177027185944        0.42066518010232       -1.55974492965986
H            0.59578361803916       -2.00554633051571        0.72140306192183
H           -0.37590971313709       -1.88376628926719       -0.75712414854087
H           -1.14567661916743       -1.75161790324608        0.83389284454174
H            1.40930184425566        1.45180325695673       -0.53160107838108
H            1.33985400182493       -0.06645488868553       -1.45234802258162
H            2.44584410000410        0.19597075118131        1.13689492721672
