
                                 *****************
                                 * O   R   C   A *
                                 *****************

                                            #,                                       
                                            ###                                      
                                            ####                                     
                                            #####                                    
                                            ######                                   
                                           ########,                                 
                                     ,,################,,,,,                         
                               ,,#################################,,                 
                          ,,##########################################,,             
                       ,#########################################, ''#####,          
                    ,#############################################,,   '####,        
                  ,##################################################,,,,####,       
                ,###########''''           ''''###############################       
              ,#####''   ,,,,##########,,,,          '''####'''          '####       
            ,##' ,,,,###########################,,,                        '##       
           ' ,,###''''                  '''############,,,                           
         ,,##''                                '''############,,,,        ,,,,,,###''
      ,#''                                            '''#######################'''  
     '                                                          ''''####''''         
             ,#######,   #######,   ,#######,      ##                                
            ,#'     '#,  ##    ##  ,#'     '#,    #''#        ,####,   ,####,        
            ##       ##  ##   ,#'  ##            #'  '#       #'       #'  '#        
            ##       ##  #######   ##           ,######,      #####,   #    #        
            '#,     ,#'  ##    ##  '#,     ,#' ,#      #,     #,   #   #,  ,#        
             '#######'   ##     ##  '#######'  #'      '#     '####' # '####'        



                #########################################################
                #                        -***-                          #
                #          Department of theory and spectroscopy        #
                #                                                       #
                #                      Frank Neese                      #
                #                                                       #
                #     Directorship, Architecture, Infrastructure        #
                #                    SHARK, DRIVERS                     #
                #        Core code/Algorithms in most modules           #
                #                                                       #
                #        Max Planck Institute fuer Kohlenforschung      #
                #                Kaiser Wilhelm Platz 1                 #
                #                 D-45470 Muelheim/Ruhr                 #
                #                      Germany                          #
                #                                                       #
                #                  All rights reserved                  #
                #                        -***-                          #
                #########################################################


                         Program Version 6.0.0  -   RELEASE  -


 With contributions from (in alphabetic order):
   Daniel Aravena         : Magnetic Suceptibility
   Michael Atanasov       : Ab Initio Ligand Field Theory (pilot matlab implementation)
   Alexander A. Auer      : GIAO ZORA, VPT2 properties, NMR spectrum
   Ute Becker             : All parallelization in ORCA, NUMFREQ, NUMCALC
   Giovanni Bistoni       : ED, misc. LED, open-shell LED, HFLD
   Martin Brehm           : Molecular dynamics
   Dmytro Bykov           : pre 5.0 version of the SCF Hessian
   Marcos Casanova-Páez   : Triplet and SCS-CIS(D). UHF-(DLPNO)-IP/EA/STEOM-CCSD. UHF-CVS-IP/STEOM-CCSD
   Vijay G. Chilkuri      : MRCI spin determinant printing, contributions to CSF-ICE
   Pauline Colinet        : FMM embedding
   Dipayan Datta          : RHF DLPNO-CCSD density
   Achintya Kumar Dutta   : EOM-CC, STEOM-CC
   Nicolas Foglia         : Exact transition moments, OPA infrastructure, MCD improvements
   Dmitry Ganyushin       : Spin-Orbit,Spin-Spin,Magnetic field MRCI
   Miquel Garcia          : C-PCM and meta-GGA Hessian, CCSD/C-PCM, Gaussian charge scheme
   Tiago L. C. Gouveia    : GS-ROHF, GS-ROCIS
   Yang Guo               : DLPNO-NEVPT2, F12-NEVPT2, CIM, IAO-localization
   Andreas Hansen         : Spin unrestricted coupled pair/coupled cluster methods
   Ingolf Harden          : AUTO-CI MPn and infrastructure 
   Benjamin Helmich-Paris : MC-RPA, TRAH-(SCF,CASSCF), AVAS, COSX integrals, SCF dyn. polar.
   Lee Huntington         : MR-EOM, pCC
   Robert Izsak           : Overlap fitted RIJCOSX, COSX-SCS-MP3, EOM
   Riya Kayal             : Wick's Theorem for AUTO-CI, AUTO-CI UHF-CCSDT
   Emily Kempfer          : AUTO-CI, RHF CISDT and CCSDT
   Christian Kollmar      : KDIIS, OOCD, Brueckner-CCSD(T), CCSD density, CASPT2, CASPT2-K, improved NEVPT2
   Axel Koslowski         : Symmetry handling
   Simone Kossmann        : Meta GGA functionals, TD-DFT gradient, OOMP2, (MP2 Hessian; deprecated post 5.0)
   Lucas Lang             : DCDCAS
   Marvin Lechner         : AUTO-CI (C++ implementation), FIC-MRCC
   Spencer Leger          : CASSCF response
   Dagmar Lenk            : GEPOL surface, SMD, ORCA-2-JSON
   Dimitrios Liakos       : Extrapolation schemes; Compound Job, initial MDCI parallelization
   Dimitrios Manganas     : Further ROCIS development; embedding schemes. LFT, Crystal Embedding
   Dimitrios Pantazis     : SARC Basis sets
   Anastasios Papadopoulos: AUTO-CI, single reference methods and gradients
   Taras Petrenko         : pre 6.0 DFT Hessian and TD-DFT gradient, (ASA, deprecated), ECA, 1-Electron XAS/XES, NRVS
   Peter Pinski           : DLPNO-MP2, DLPNO-MP2 Gradient
   Christoph Reimann      : Effective Core Potentials
   Marius Retegan         : Local ZFS, SOC
   Christoph Riplinger    : Optimizer, TS searches, QM/MM, DLPNO-CCSD(T), (RO)-DLPNO pert. Triples
   Michael Roemelt        : Original ROCIS implementation
   Masaaki Saitow         : Open-shell DLPNO-CCSD energy and density
   Barbara Sandhoefer     : DKH picture change effects
   Kantharuban Sivalingam : CASSCF convergence/infrastructure, NEVPT2 and variants, FIC-MRCI
   Bernardo de Souza      : ESD, SOC TD-DFT
   Georgi Stoychev        : AutoAux, RI-MP2 NMR, DLPNO-MP2 response, X2C
   Van Anh Tran           : RI-MP2 g-tensors
   Willem Van den Heuvel  : Paramagnetic NMR
   Zikuan Wang            : NOTCH, Electric field optimization 
   Frank Wennmohs         : Technical directorship and infrastructure
   Hang Xu                : AUTO-CI-Response properties 


 We gratefully acknowledge several colleagues who have allowed us to
 interface, adapt or use parts of their codes:
   Stefan Grimme, W. Hujo, H. Kruse, P. Pracht,  : VdW corrections, initial TS optimization,
                  C. Bannwarth, S. Ehlert,         DFT functionals, gCP, sTDA/sTD-DF
                  L. Wittmann, M. Mueller
   Ed Valeev, F. Pavosevic, A. Kumar             : LibInt (2-el integral package), F12 methods
   Garnet Chan, S. Sharma, J. Yang, R. Olivares  : DMRG
   Ulf Ekstrom                                   : XCFun DFT Library
   Mihaly Kallay                                 : mrcc  (arbitrary order and MRCC methods)
   Frank Weinhold                                : gennbo (NPA and NBO analysis)
   Simon Mueller                                 : openCOSMO-RS
   Christopher J. Cramer and Donald G. Truhlar   : smd solvation model
   Lars Goerigk                                  : TD-DFT with DH, B97 family of functionals
   V. Asgeirsson, H. Jonsson                     : NEB implementation
   FAccTs GmbH                                   : IRC, NEB, NEB-TS, DLPNO-Multilevel, CI-OPT
                                                   MM, QMMM, 2- and 3-layer-ONIOM, Crystal-QMMM,
                                                   LR-CPCM, SF, NACMEs, symmetry and pop. for TD-DFT,
                                                   nearIR, NL-DFT gradient (VV10), updates on ESD,
                                                   ML-optimized integration grids, MBIS, APM,
                                                   GOAT, DOCKER, SOLVATOR, interface openCOSMO-RS
   S Lehtola, MJT Oliveira, MAL Marques          : LibXC Library
   Liviu Ungur et al                             : ANISO software


 Your calculation uses the libint2 library for the computation of 2-el integrals
 For citations please refer to: http://libint.valeyev.net

 Your ORCA version has been built with support for libXC version: 6.2.2
 For citations please refer to: https://libxc.gitlab.io

 This ORCA versions uses:
   CBLAS   interface :  Fast vector & matrix operations
   LAPACKE interface :  Fast linear algebra routines
   SCALAPACK package :  Parallel linear algebra routines
   Shared memory     :  Shared parallel matrices
   BLAS/LAPACK       :  OpenBLAS 0.3.27  USE64BITINT DYNAMIC_ARCH NO_AFFINITY SkylakeX SINGLE_THREADED
        Core in use  :  SkylakeX
   Copyright (c) 2011-2014, The OpenBLAS Project


Your calculation utilizes the geometrical counterpoise correction gCP
Please cite in your paper:
H.Kruse, S. Grimme J.Chem.Phys., 136, (2012), 154101 
   

Your calculation utilizes the atom-pairwise dispersion correction
based on EEQ partial charges (D4)


================================================================================

----- Orbital basis set information -----
Your calculation utilizes the basis: def2-SV(P)
   F. Weigend and R. Ahlrichs, Phys. Chem. Chem. Phys. 7, 3297 (2005).

----- AuxJ basis set information -----
Your calculation utilizes the auxiliary basis: def2/J
   F. Weigend, Phys. Chem. Chem. Phys. 8, 1057 (2006).

================================================================================
                                        WARNINGS
                       Please study these warnings very carefully!
================================================================================


================================================================================
                                       INPUT FILE
================================================================================
NAME = sp.inp
|  1> ! pbe def2-sv(p) def2/J RI DEFGRID1 loosescf d4 GCP(DFT/SV(P)) printgap
|  2> %output
|  3>     printlevel normal
|  4> end
|  5> * xyz 0 1
|  6> C 2.0364116961 1.4004574884 -0.5632119984
|  7> C 1.6190311363 0.2458115739 0.3413204138
|  8> C 0.4115435419 -0.5549168936 -0.1687637379
|  9> H 0.6635905601 -0.9193826206 -1.1729371871
| 10> C 0.2098791274 -1.773442429 0.7329384386
| 11> C -0.8632692773 0.3008051414 -0.3202920882
| 12> C -1.9618549092 -0.4630810695 -1.0619307821
| 13> C -1.4099733217 0.8280070417 1.0049712501
| 14> H 1.2974263203 2.1972675861 -0.5566638918
| 15> H 2.9812234237 1.8171838437 -0.2217417384
| 16> H 2.1642576496 1.0555382438 -1.5870656415
| 17> H 1.4119239883 0.6256047662 1.3432827104
| 18> H 2.4609439049 -0.4457876254 0.4276778824
| 19> H 1.1019445127 -2.3960535529 0.7171798076
| 20> H 0.0314006697 -1.4683387017 1.7606935094
| 21> H -0.6270229425 -2.3780278518 0.3962941642
| 22> H -0.5968186769 1.1617700972 -0.9422254859
| 23> H -2.3596888089 -1.2692885683 -0.4509994729
| 24> H -1.5798311035 -0.8861951771 -1.9883429274
| 25> H -2.7824717182 0.208070227 -1.3057003137
| 26> H -2.261171097 1.4790681214 0.8172118326
| 27> H -0.6591401601 1.4021715009 1.5407755249
| 28> H -1.744309721 0.0113493206 1.6392758852
| 29> *
| 30> 
| 31>                          ****END OF INPUT****
================================================================================

                       ****************************
                       * Single Point Calculation *
                       ****************************

---------------------------------
CARTESIAN COORDINATES (ANGSTROEM)
---------------------------------
  C      2.036412    1.400457   -0.563212
  C      1.619031    0.245812    0.341320
  C      0.411544   -0.554917   -0.168764
  H      0.663591   -0.919383   -1.172937
  C      0.209879   -1.773442    0.732938
  C     -0.863269    0.300805   -0.320292
  C     -1.961855   -0.463081   -1.061931
  C     -1.409973    0.828007    1.004971
  H      1.297426    2.197268   -0.556664
  H      2.981223    1.817184   -0.221742
  H      2.164258    1.055538   -1.587066
  H      1.411924    0.625605    1.343283
  H      2.460944   -0.445788    0.427678
  H      1.101945   -2.396054    0.717180
  H      0.031401   -1.468339    1.760694
  H     -0.627023   -2.378028    0.396294
  H     -0.596819    1.161770   -0.942225
  H     -2.359689   -1.269289   -0.450999
  H     -1.579831   -0.886195   -1.988343
  H     -2.782472    0.208070   -1.305700
  H     -2.261171    1.479068    0.817212
  H     -0.659140    1.402172    1.540776
  H     -1.744310    0.011349    1.639276

----------------------------
CARTESIAN COORDINATES (A.U.)
----------------------------
  NO LB      ZA    FRAG     MASS         X           Y           Z
   0 C     6.0000    0    12.011    3.848260    2.646481   -1.064316
   1 C     6.0000    0    12.011    3.059525    0.464517    0.645002
   2 C     6.0000    0    12.011    0.777705   -1.048641   -0.318917
   3 H     1.0000    0     1.008    1.254004   -1.737381   -2.216530
   4 C     6.0000    0    12.011    0.396614   -3.351321    1.385053
   5 C     6.0000    0    12.011   -1.631343    0.568439   -0.605264
   6 C     6.0000    0    12.011   -3.707368   -0.875096   -2.006758
   7 C     6.0000    0    12.011   -2.664463    1.564707    1.899120
   8 H     1.0000    0     1.008    2.451780    4.152234   -1.051942
   9 H     1.0000    0     1.008    5.633696    3.433980   -0.419031
  10 H     1.0000    0     1.008    4.089854    1.994678   -2.999119
  11 H     1.0000    0     1.008    2.668150    1.182222    2.538436
  12 H     1.0000    0     1.008    4.650510   -0.842417    0.808194
  13 H     1.0000    0     1.008    2.082373   -4.527885    1.355273
  14 H     1.0000    0     1.008    0.059339   -2.774758    3.327229
  15 H     1.0000    0     1.008   -1.184902   -4.493821    0.748887
  16 H     1.0000    0     1.008   -1.127824    2.195427   -1.780548
  17 H     1.0000    0     1.008   -4.459166   -2.398608   -0.852265
  18 H     1.0000    0     1.008   -2.985448   -1.674666   -3.757424
  19 H     1.0000    0     1.008   -5.258110    0.393196   -2.467416
  20 H     1.0000    0     1.008   -4.272994    2.795034    1.544307
  21 H     1.0000    0     1.008   -1.245594    2.649720    2.911644
  22 H     1.0000    0     1.008   -3.296268    0.021447    3.097782

--------------------------------
INTERNAL COORDINATES (ANGSTROEM)
--------------------------------
 C      0   0   0     0.000000000000     0.00000000     0.00000000
 C      1   0   0     1.524989378419     0.00000000     0.00000000
 C      2   1   0     1.536026761196   114.38619840     0.00000000
 H      3   2   1     1.097600693157   107.24127822    56.78733439
 C      3   2   1     1.529228508629   108.85901422   173.12332874
 C      3   2   1     1.542844375213   113.14289426   299.65164166
 C      6   3   2     1.529849824692   111.34708394   169.72997851
 C      6   3   2     1.527465244019   113.70058321   294.16413445
 H      1   2   3     1.086760596978   111.43575194    69.18771752
 H      1   2   3     1.087626771589   109.97666979   188.83485986
 H      1   2   3     1.087929297156   110.50690745   308.41528986
 H      2   1   3     1.091359099233   109.45124365   236.45205198
 H      2   1   3     1.092970344880   108.36933726   119.98819601
 H      5   3   2     1.087967645523   109.83603893   300.44909322
 H      5   3   2     1.086840986451   110.82755919    59.70291948
 H      5   3   2     1.085936450973   111.25156808   180.94202180
 H      6   3   2     1.095014944530   106.90671176    53.21343616
 H      7   6   3     1.086958788286   111.14366984    70.11541359
 H      7   6   3     1.087753280451   110.78729615   309.29605114
 H      7   6   3     1.087786557438   110.01651354   189.57075754
 H      8   6   3     1.087966810632   109.68417019   175.87718781
 H      8   6   3     1.086508851165   111.27945264    56.39682303
 H      8   6   3     1.086762638039   110.92505027   295.14932500

---------------------------
INTERNAL COORDINATES (A.U.)
---------------------------
 C      0   0   0     0.000000000000     0.00000000     0.00000000
 C      1   0   0     2.881812282351     0.00000000     0.00000000
 C      2   1   0     2.902669913035   114.38619840     0.00000000
 H      3   2   1     2.074164714469   107.24127822    56.78733439
 C      3   2   1     2.889823077493   108.85901422   173.12332874
 C      3   2   1     2.915553336413   113.14289426   299.65164166
 C      6   3   2     2.890997194695   111.34708394   169.72997851
 C      6   3   2     2.886490990279   113.70058321   294.16413445
 H      1   2   3     2.053679901424   111.43575194    69.18771752
 H      1   2   3     2.055316734224   109.97666979   188.83485986
 H      1   2   3     2.055888424695   110.50690745   308.41528986
 H      2   1   3     2.062369811313   109.45124365   236.45205198
 H      2   1   3     2.065414624321   108.36933726   119.98819601
 H      5   3   2     2.055960892606   109.83603893   300.44909322
 H      5   3   2     2.053831815514   110.82755919    59.70291948
 H      5   3   2     2.052122491181   111.25156808   180.94202180
 H      6   3   2     2.069278357713   106.90671176    53.21343616
 H      7   6   3     2.054054428720   111.14366984    70.11541359
 H      7   6   3     2.055555801326   110.78729615   309.29605114
 H      7   6   3     2.055618685719   110.01651354   189.57075754
 H      8   6   3     2.055959314889   109.68417019   175.87718781
 H      8   6   3     2.053204170784   111.27945264    56.39682303
 H      8   6   3     2.053683758472   110.92505027   295.14932500

---------------------
BASIS SET INFORMATION
---------------------
There are 2 groups of distinct atoms

 Group   1 Type C   : 7s4p1d contracted to 3s2p1d pattern {511/31/1}
 Group   2 Type H   : 4s contracted to 2s pattern {31}

Atom   0C    basis set group =>   1
Atom   1C    basis set group =>   1
Atom   2C    basis set group =>   1
Atom   3H    basis set group =>   2
Atom   4C    basis set group =>   1
Atom   5C    basis set group =>   1
Atom   6C    basis set group =>   1
Atom   7C    basis set group =>   1
Atom   8H    basis set group =>   2
Atom   9H    basis set group =>   2
Atom  10H    basis set group =>   2
Atom  11H    basis set group =>   2
Atom  12H    basis set group =>   2
Atom  13H    basis set group =>   2
Atom  14H    basis set group =>   2
Atom  15H    basis set group =>   2
Atom  16H    basis set group =>   2
Atom  17H    basis set group =>   2
Atom  18H    basis set group =>   2
Atom  19H    basis set group =>   2
Atom  20H    basis set group =>   2
Atom  21H    basis set group =>   2
Atom  22H    basis set group =>   2
---------------------------------
AUXILIARY/J BASIS SET INFORMATION
---------------------------------
There are 2 groups of distinct atoms

 Group   1 Type C   : 12s5p4d2f1g contracted to 6s4p3d1f1g pattern {711111/2111/211/2/1}
 Group   2 Type H   : 5s2p1d contracted to 3s1p1d pattern {311/2/1}

Atom   0C    basis set group =>   1
Atom   1C    basis set group =>   1
Atom   2C    basis set group =>   1
Atom   3H    basis set group =>   2
Atom   4C    basis set group =>   1
Atom   5C    basis set group =>   1
Atom   6C    basis set group =>   1
Atom   7C    basis set group =>   1
Atom   8H    basis set group =>   2
Atom   9H    basis set group =>   2
Atom  10H    basis set group =>   2
Atom  11H    basis set group =>   2
Atom  12H    basis set group =>   2
Atom  13H    basis set group =>   2
Atom  14H    basis set group =>   2
Atom  15H    basis set group =>   2
Atom  16H    basis set group =>   2
Atom  17H    basis set group =>   2
Atom  18H    basis set group =>   2
Atom  19H    basis set group =>   2
Atom  20H    basis set group =>   2
Atom  21H    basis set group =>   2
Atom  22H    basis set group =>   2
------------------------------------------------------------------------------
                             ORCA STARTUP CALCULATIONS
                           -- RI-GTO INTEGRALS CHOSEN --
------------------------------------------------------------------------------
------------------------------------------------------------------------------
                   ___                                                        
                  /   \      - P O W E R E D   B Y -                         
                 /     \                                                     
                 |  |  |   _    _      __       _____    __    __             
                 |  |  |  | |  | |    /  \     |  _  \  |  |  /  |          
                  \  \/   | |  | |   /    \    | | | |  |  | /  /          
                 / \  \   | |__| |  /  /\  \   | |_| |  |  |/  /          
                |  |  |   |  __  | /  /__\  \  |    /   |      \           
                |  |  |   | |  | | |   __   |  |    \   |  |\   \          
                \     /   | |  | | |  |  |  |  | |\  \  |  | \   \       
                 \___/    |_|  |_| |__|  |__|  |_| \__\ |__|  \__/        
                                                                              
                      - O R C A' S   B I G   F R I E N D -                    
                                      &                                       
                       - I N T E G R A L  F E E D E R -                       
                                                                              
 v1 FN, 2020, v2 2021, v3 2022-2024                                           
------------------------------------------------------------------------------


----------------------
SHARK INTEGRAL PACKAGE
----------------------

Number of atoms                             ...     23
Number of basis functions                   ...    130
Number of shells                            ...     74
Maximum angular momentum                    ...      2
Integral batch strategy                     ... SHARK/LIBINT Hybrid
RI-J (if used) integral strategy            ... SPLIT-RIJ (Revised 2003 algorithm where possible)
Printlevel                                  ...      1
Contraction scheme used                     ... SEGMENTED contraction
Prescreening option                         ... SCHWARTZ
   Thresh                                   ... 1.000e-09
   Tcut                                     ... 1.000e-10
   Tpresel                                  ... 1.000e-10 
Coulomb Range Separation                    ... NOT USED
Exchange Range Separation                   ... NOT USED
Multipole approximations                    ... NOT USED
Finite Nucleus Model                        ... NOT USED
CABS basis                                  ... NOT available
Auxiliary Coulomb fitting basis             ... AVAILABLE
   # of basis functions in Aux-J            ...    519
   # of shells in Aux-J                     ...    185
   Maximum angular momentum in Aux-J        ...      4
Auxiliary J/K fitting basis                 ... NOT available
Auxiliary Correlation fitting basis         ... NOT available
Auxiliary 'external' fitting basis          ... NOT available

Checking pre-screening integrals            ... done (  0.0 sec) Dimension = 74
Check shell pair data                       ... done (  0.0 sec)
Shell pair information
Shell pair cut-off parameter TPreSel        ...   1.0e-10
Total number of shell pairs                 ...      2775
Shell pairs after pre-screening             ...      2702
Total number of primitive shell pairs       ...     11165
Primitive shell pairs kept                  ...      7787
          la=0 lb=0:   1378 shell pairs
          la=1 lb=0:    733 shell pairs
          la=1 lb=1:    105 shell pairs
          la=2 lb=0:    360 shell pairs
          la=2 lb=1:     98 shell pairs
          la=2 lb=2:     28 shell pairs

Calculating one electron integrals          ... done (  0.0 sec)
Calculating RI/J V-Matrix + Cholesky decomp.... done (  0.1 sec)
Calculating Nuclear repulsion               ... done (  0.0 sec) ENN=    338.432355955972 Eh

Diagonalization of the overlap matrix:
Smallest eigenvalue                        ... 1.537e-03
Time for diagonalization                   ...    0.002 sec
Threshold for overlap eigenvalues          ... 1.000e-07
Number of eigenvalues below threshold      ... 0
Time for construction of square roots      ...    0.019 sec
Total time needed                          ...    0.031 sec

-------------------
DFT GRID GENERATION
-------------------

General Integration Accuracy     IntAcc      ... 4.159
Radial Grid Type                 RadialGrid  ... OptM3 with GC (2021)
Angular Grid (max. ang.)         AngularGrid ... 3 (Lebedev-194)
Angular grid pruning method      GridPruning ... 4 (adaptive)
Weight generation scheme         WeightScheme... mBecke (2022)
Basis function cutoff            BFCut       ... 1.0000e-10
Integration weight cutoff        WCut        ... 1.0000e-14
Partially contracted basis set               ... off
Rotationally invariant grid construction     ... off
Angular grids for H and He will be reduced by one unit

Total number of grid points                  ...    44797
Total number of batches                      ...      712
Average number of points per batch           ...       62
Average number of grid points per atom       ...     1948
Initializing property integral containers    ... done (  0.0 sec)

SHARK setup successfully completed in   0.8 seconds

Maximum memory used throughout the entire STARTUP-calculation: 20.9 MB
-------------------------------------------------------------------------------
                                 ORCA GUESS
                   Start orbitals & Density for SCF / CASSCF
-------------------------------------------------------------------------------

------------
SCF SETTINGS
------------
Hamiltonian:
 Density Functional     Method          .... DFT(GTOs)
 Exchange Functional    Exchange        .... PBE
   PBE kappa parameter   XKappa         ....  0.804000
   PBE mue parameter    XMuePBE         ....  0.219520
 Correlation Functional Correlation     .... PBE
   PBE beta parameter  CBetaPBE         ....  0.066725
 LDA part of GGA corr.  LDAOpt          .... PW91-LDA
 Gradients option       PostSCFGGA      .... off
   NL short-range parameter             ....  6.400000
 RI-approximation to the Coulomb term is turned on
   Number of AuxJ basis functions       .... 519


General Settings:
 Integral files         IntName         .... sp
 Hartree-Fock type      HFTyp           .... RHF
 Total Charge           Charge          ....    0
 Multiplicity           Mult            ....    1
 Number of Electrons    NEL             ....   58
 Basis Dimension        Dim             ....  130
 Nuclear Repulsion      ENuc            ....    338.4323559560 Eh

Convergence Acceleration:
 AO-DIIS                CNVDIIS         .... on
   Start iteration      DIISMaxIt       ....    12
   Startup error        DIISStart       ....  0.200000
   # of expansion vecs  DIISMaxEq       ....     5
   Bias factor          DIISBfac        ....   1.050
   Max. coefficient     DIISMaxC        ....  10.000
 MO-DIIS                CNVKDIIS        .... off
 Trust-Rad. Augm. Hess. CNVTRAH         .... auto
   Auto Start mean grad. ratio tolernc. ....  1.125000
   Auto Start start iteration           ....    50
   Auto Start num. interpolation iter.  ....    10
   Max. Number of Micro iterations      ....    24
   Max. Number of Macro iterations      .... Maxiter - #DIIS iter
   Number of Davidson start vectors     ....     2
   Converg. threshold    (grad. norm)   ....   1.000e-04
   Grad. Scal. Fac. for Micro threshold ....   0.100
   Minimum threshold for Micro iter.    ....   1.000e-02
   NR start threshold (gradient norm)   ....   1.000e-04
   Initial trust radius                 ....   0.400
   Minimum AH scaling param. (alpha)    ....   1.000
   Maximum AH scaling param. (alpha)    .... 1000.000
   Quad. conv. algorithm                .... NR
   White noise on init. David. guess    .... on
   Maximum white noise                  ....   0.010
   Pseudo random numbers                .... off
   Inactive MOs                         .... canonical
   Orbital update algorithm             .... Taylor
   Preconditioner                       .... Diag
   Full preconditioner red. dimension   ....   250
 SOSCF                  CNVSOSCF        .... on
   Start iteration      SOSCFMaxIt      ....   150
   Startup grad/error   SOSCFStart      ....  0.003300
   Hessian update       SOSCFHessUp     .... L-BFGS
 Level Shifting         CNVShift        .... on
   Level shift para.    LevelShift      ....    0.2500
   Turn off err/grad.   ShiftErr        ....    0.0010
 Zerner damping         CNVZerner       .... off
 Static damping         CNVDamp         .... on
   Fraction old density DampFac         ....    0.7000
   Max. Damping (<1)    DampMax         ....    0.9800
   Min. Damping (>=0)   DampMin         ....    0.0000
   Turn off err/grad.   DampErr         ....    0.1000

SCF Procedure:
 Maximum # iterations   MaxIter         ....   125
 SCF integral mode      SCFMode         .... Direct
   Integral package                     .... SHARK and LIBINT hybrid scheme
 Reset frequency        DirectResetFreq ....    20
 Integral Threshold     Thresh          ....  1.000e-09 Eh
 Primitive CutOff       TCut            ....  1.000e-10 Eh

Convergence Tolerance:
 Convergence Check Mode ConvCheckMode   .... Total+1el-Energy
 Convergence forced     ConvForced      .... 0
 Energy Change          TolE            ....  1.000e-05 Eh
 1-El. energy change                    ....  1.000e-02 Eh
 Orbital Gradient       TolG            ....  1.000e-04
 Orbital Rotation angle TolX            ....  1.000e-04
 DIIS Error             TolErr          ....  5.000e-04

------------------------------
INITIAL GUESS: MODEL POTENTIAL
------------------------------
Loading Hartree-Fock densities                     ... done
Calculating cut-offs                               ... done
Initializing the effective Hamiltonian             ... done
Setting up the integral package (SHARK)            ... done
Starting the Coulomb interaction                   ... done (   0.2 sec)
Making the grid                                    ... done (   0.2 sec)
Mapping shells                                     ... done
Starting the XC term evaluation                    ... done (   0.2 sec)
  promolecular density results
     # of electrons  =     57.984646418
     EX              =    -40.544209088
     EC              =     -1.882609156
     EX+EC           =    -42.426818243
Transforming the Hamiltonian                       ... done (   0.0 sec)
Diagonalizing the Hamiltonian                      ... done (   0.0 sec)
Back transforming the eigenvectors                 ... done (   0.0 sec)
Now organizing SCF variables                       ... done
                      ------------------
                      INITIAL GUESS DONE (   0.6 sec)
                      ------------------
             **** ENERGY FILE WAS UPDATED (sp.en.tmp) ****
Finished Guess after   0.8 sec
Maximum memory used throughout the entire GUESS-calculation: 16.0 MB

-------------------------------------------------------------------------------------------
                                      ORCA LEAN-SCF
                              memory conserving SCF solver
-------------------------------------------------------------------------------------------

----------------------------------------D-I-I-S--------------------------------------------
Iteration    Energy (Eh)           Delta-E    RMSDP     MaxDP     DIISErr   Damp  Time(sec)
-------------------------------------------------------------------------------------------
               ***  Starting incremental Fock matrix formation  ***
    1    -275.4918451418747054     0.00e+00  4.86e-03  8.21e-02  1.59e-01  0.700   0.9
    2    -275.6152263818299843    -1.23e-01  3.50e-03  4.73e-02  7.47e-02  0.700   0.9
                               ***Turning on AO-DIIS***
    3    -275.6572669899634320    -4.20e-02  1.36e-03  1.34e-02  2.09e-02  0.700   0.9
    4    -275.6815596236004922    -2.43e-02  1.93e-03  2.16e-02  8.56e-03  0.000   0.9
    5    -275.7374343677004163    -5.59e-02  6.07e-04  6.13e-03  8.11e-03  0.000   0.9
                              *** Initializing SOSCF ***
---------------------------------------S-O-S-C-F--------------------------------------
Iteration    Energy (Eh)           Delta-E    RMSDP     MaxDP     MaxGrad    Time(sec)
--------------------------------------------------------------------------------------
    6    -275.7381948110482881    -7.60e-04  2.22e-04  2.08e-03  1.90e-03     0.9
               *** Restarting incremental Fock matrix formation ***
    7    -275.7382532022251098    -5.84e-05  1.52e-04  1.36e-03  2.65e-04     0.9
    8    -275.7382522420776922     9.60e-07  4.52e-05  9.05e-04  2.68e-04     0.8
                 **** Energy Check signals convergence ****

               *****************************************************
               *                     SUCCESS                       *
               *           SCF CONVERGED AFTER   8 CYCLES          *
               *****************************************************

             **** ENERGY FILE WAS UPDATED (sp.en.tmp) ****

----------------
TOTAL SCF ENERGY
----------------

Total Energy       :       -275.73825224207769 Eh           -7503.21930 eV

Components:
Nuclear Repulsion  :        338.43235595597241 Eh            9209.21259 eV
Electronic Energy  :       -614.17060819805010 Eh          -16712.43189 eV
One Electron Energy:      -1040.50828220241442 Eh          -28313.66980 eV
Two Electron Energy:        426.33767400436432 Eh           11601.23791 eV

Virial components:
Potential Energy   :       -548.76470244375059 Eh          -14932.64671 eV
Kinetic Energy     :        273.02645020167284 Eh            7429.42741 eV
Virial Ratio       :          2.00993237848715

DFT components:
N(Alpha)           :       29.000198714588 electrons
N(Beta)            :       29.000198714588 electrons
N(Total)           :       58.000397429175 electrons
E(X)               :      -41.681044737509 Eh       
E(C)               :       -1.890074276610 Eh       
E(XC)              :      -43.571119014119 Eh       

---------------
SCF CONVERGENCE
---------------

  Last Energy change         ...   -9.6015e-07  Tolerance :   1.0000e-05
  Last MAX-Density change    ...    9.0521e-04  Tolerance :   1.0000e-03
  Last RMS-Density change    ...    4.5219e-05  Tolerance :   1.0000e-04
  Last DIIS Error            ...    1.8981e-03  Tolerance :   5.0000e-04
  Last Orbital Gradient      ...    2.6814e-04  Tolerance :   1.0000e-04
  Last Orbital Rotation      ...    1.7596e-04  Tolerance :   1.0000e-04


----------------
ORBITAL ENERGIES
----------------

  NO   OCC          E(Eh)            E(eV) 
   0   2.0000      -9.888042      -269.0673 
   1   2.0000      -9.886889      -269.0359 
   2   2.0000      -9.877403      -268.7778 
   3   2.0000      -9.869488      -268.5624 
   4   2.0000      -9.868350      -268.5315 
   5   2.0000      -9.867683      -268.5133 
   6   2.0000      -9.866829      -268.4901 
   7   2.0000      -0.740920       -20.1615 
   8   2.0000      -0.681845       -18.5539 
   9   2.0000      -0.642337       -17.4789 
  10   2.0000      -0.606452       -16.5024 
  11   2.0000      -0.563312       -15.3285 
  12   2.0000      -0.531971       -14.4757 
  13   2.0000      -0.469208       -12.7678 
  14   2.0000      -0.425723       -11.5845 
  15   2.0000      -0.406514       -11.0618 
  16   2.0000      -0.387359       -10.5406 
  17   2.0000      -0.371496       -10.1089 
  18   2.0000      -0.366404        -9.9704 
  19   2.0000      -0.350677        -9.5424 
  20   2.0000      -0.337674        -9.1886 
  21   2.0000      -0.329702        -8.9717 
  22   2.0000      -0.319379        -8.6908 
  23   2.0000      -0.303657        -8.2629 
  24   2.0000      -0.298252        -8.1158 
  25   2.0000      -0.295420        -8.0388 
  26   2.0000      -0.269425        -7.3314 
  27   2.0000      -0.263176        -7.1614 
  28   2.0000      -0.259692        -7.0666 
  29   0.0000       0.031105         0.8464 
  30   0.0000       0.056289         1.5317 
  31   0.0000       0.062104         1.6899 
  32   0.0000       0.067460         1.8357 
  33   0.0000       0.094324         2.5667 
  34   0.0000       0.100308         2.7295 
  35   0.0000       0.101185         2.7534 
  36   0.0000       0.110204         2.9988 
  37   0.0000       0.118469         3.2237 
  38   0.0000       0.122721         3.3394 
  39   0.0000       0.134992         3.6733 
*Only the first 10 virtual orbitals were printed.

                    ********************************
                    * MULLIKEN POPULATION ANALYSIS *
                    ********************************

-----------------------
MULLIKEN ATOMIC CHARGES
-----------------------
   0 C :   -0.268559
   1 C :   -0.160277
   2 C :   -0.141773
   3 H :    0.059982
   4 C :   -0.245756
   5 C :   -0.158743
   6 C :   -0.240893
   7 C :   -0.261643
   8 H :    0.109321
   9 H :    0.099538
  10 H :    0.095297
  11 H :    0.083055
  12 H :    0.077761
  13 H :    0.094377
  14 H :    0.098412
  15 H :    0.100169
  16 H :    0.072424
  17 H :    0.099130
  18 H :    0.093977
  19 H :    0.094783
  20 H :    0.096274
  21 H :    0.103111
  22 H :    0.100033
Sum of atomic charges:    0.0000000

--------------------------------
MULLIKEN REDUCED ORBITAL CHARGES
--------------------------------
  0 C s       :     3.079060  s :     3.079060
      pz      :     1.048721  p :     3.160136
      px      :     1.059091
      py      :     1.052324
      dz2     :     0.009342  d :     0.029363
      dxz     :     0.002646
      dyz     :     0.004596
      dx2y2   :     0.003613
      dxy     :     0.009165

  1 C s       :     3.055954  s :     3.055954
      pz      :     1.052258  p :     3.067731
      px      :     1.010482
      py      :     1.004990
      dz2     :     0.009964  d :     0.036591
      dxz     :     0.003860
      dyz     :     0.006885
      dx2y2   :     0.004792
      dxy     :     0.011091

  2 C s       :     3.093882  s :     3.093882
      pz      :     0.998972  p :     3.005356
      px      :     0.993461
      py      :     1.012922
      dz2     :     0.009546  d :     0.042535
      dxz     :     0.006105
      dyz     :     0.008677
      dx2y2   :     0.008451
      dxy     :     0.009755

  3 H s       :     0.940018  s :     0.940018

  4 C s       :     3.077726  s :     3.077726
      pz      :     1.054253  p :     3.138985
      px      :     1.051792
      py      :     1.032940
      dz2     :     0.009676  d :     0.029044
      dxz     :     0.002245
      dyz     :     0.004565
      dx2y2   :     0.002504
      dxy     :     0.010054

  5 C s       :     3.088456  s :     3.088456
      pz      :     1.011545  p :     3.027216
      px      :     0.990985
      py      :     1.024686
      dz2     :     0.006868  d :     0.043070
      dxz     :     0.008783
      dyz     :     0.011048
      dx2y2   :     0.007504
      dxy     :     0.008867

  6 C s       :     3.078130  s :     3.078130
      pz      :     1.046129  p :     3.133590
      px      :     1.037484
      py      :     1.049977
      dz2     :     0.005143  d :     0.029174
      dxz     :     0.005047
      dyz     :     0.007148
      dx2y2   :     0.003262
      dxy     :     0.008573

  7 C s       :     3.090017  s :     3.090017
      pz      :     1.036199  p :     3.142597
      px      :     1.053762
      py      :     1.052637
      dz2     :     0.004726  d :     0.029029
      dxz     :     0.005950
      dyz     :     0.008212
      dx2y2   :     0.001738
      dxy     :     0.008402

  8 H s       :     0.890679  s :     0.890679

  9 H s       :     0.900462  s :     0.900462

 10 H s       :     0.904703  s :     0.904703

 11 H s       :     0.916945  s :     0.916945

 12 H s       :     0.922239  s :     0.922239

 13 H s       :     0.905623  s :     0.905623

 14 H s       :     0.901588  s :     0.901588

 15 H s       :     0.899831  s :     0.899831

 16 H s       :     0.927576  s :     0.927576

 17 H s       :     0.900870  s :     0.900870

 18 H s       :     0.906023  s :     0.906023

 19 H s       :     0.905217  s :     0.905217

 20 H s       :     0.903726  s :     0.903726

 21 H s       :     0.896889  s :     0.896889

 22 H s       :     0.899967  s :     0.899967


------------------------
MULLIKEN OVERLAP CHARGES
------------------------
B(  0-C ,  1-C ) :   0.8789 B(  0-C ,  2-C ) :  -0.1072 B(  0-C ,  8-H ) :   0.7503 
B(  0-C ,  9-H ) :   0.7254 B(  0-C , 10-H ) :   0.7508 B(  0-C , 11-H ) :  -0.0563 
B(  1-C ,  2-C ) :   0.8225 B(  1-C ,  3-H ) :  -0.0559 B(  1-C ,  4-C ) :  -0.1251 
B(  1-C ,  5-C ) :  -0.1108 B(  1-C , 11-H ) :   0.7042 B(  1-C , 12-H ) :   0.6962 
B(  2-C ,  3-H ) :   0.6829 B(  2-C ,  4-C ) :   0.8425 B(  2-C ,  5-C ) :   0.7470 
B(  2-C ,  6-C ) :  -0.1102 B(  2-C ,  7-C ) :  -0.1160 B(  2-C , 16-H ) :  -0.0617 
B(  3-H ,  4-C ) :  -0.0668 B(  3-H ,  5-C ) :  -0.0777 B(  4-C ,  5-C ) :  -0.1123 
B(  4-C , 13-H ) :   0.7257 B(  4-C , 14-H ) :   0.7454 B(  4-C , 15-H ) :   0.7358 
B(  5-C ,  6-C ) :   0.8767 B(  5-C ,  7-C ) :   0.8430 B(  5-C , 16-H ) :   0.6906 
B(  6-C ,  7-C ) :  -0.1393 B(  6-C , 16-H ) :  -0.0572 B(  6-C , 17-H ) :   0.7476 
B(  6-C , 18-H ) :   0.7282 B(  6-C , 19-H ) :   0.7260 B(  7-C , 16-H ) :  -0.0751 
B(  7-C , 20-H ) :   0.7298 B(  7-C , 21-H ) :   0.7337 B(  7-C , 22-H ) :   0.7458 
B(  8-H , 10-H ) :  -0.0567 B( 11-H , 12-H ) :  -0.0635 B( 14-H , 15-H ) :  -0.0517 
B( 17-H , 18-H ) :  -0.0522 B( 21-H , 22-H ) :  -0.0501 


                     *******************************
                     * LOEWDIN POPULATION ANALYSIS *
                     *******************************

----------------------
LOEWDIN ATOMIC CHARGES
----------------------
   0 C :   -0.342298
   1 C :   -0.226831
   2 C :   -0.144134
   3 H :    0.110915
   4 C :   -0.330995
   5 C :   -0.152223
   6 C :   -0.328720
   7 C :   -0.331173
   8 H :    0.116340
   9 H :    0.119542
  10 H :    0.116773
  11 H :    0.112712
  12 H :    0.114507
  13 H :    0.118095
  14 H :    0.117039
  15 H :    0.116392
  16 H :    0.114148
  17 H :    0.114742
  18 H :    0.115662
  19 H :    0.117195
  20 H :    0.118887
  21 H :    0.116250
  22 H :    0.117175

-------------------------------
LOEWDIN REDUCED ORBITAL CHARGES
-------------------------------
  0 C s       :     2.943230  s :     2.943230
      pz      :     1.110693  p :     3.328040
      px      :     1.116526
      py      :     1.100821
      dz2     :     0.021561  d :     0.071028
      dxz     :     0.006103
      dyz     :     0.012830
      dx2y2   :     0.008473
      dxy     :     0.022060

  1 C s       :     2.907935  s :     2.907935
      pz      :     1.090957  p :     3.230302
      px      :     1.069437
      py      :     1.069908
      dz2     :     0.022550  d :     0.088594
      dxz     :     0.009221
      dyz     :     0.018291
      dx2y2   :     0.010949
      dxy     :     0.027582

  2 C s       :     2.880383  s :     2.880383
      pz      :     1.068362  p :     3.159841
      px      :     1.042391
      py      :     1.049089
      dz2     :     0.022723  d :     0.103910
      dxz     :     0.013437
      dyz     :     0.022275
      dx2y2   :     0.019251
      dxy     :     0.026223

  3 H s       :     0.889085  s :     0.889085

  4 C s       :     2.943285  s :     2.943285
      pz      :     1.111038  p :     3.316746
      px      :     1.118173
      py      :     1.087536
      dz2     :     0.021996  d :     0.070963
      dxz     :     0.005274
      dyz     :     0.013027
      dx2y2   :     0.006781
      dxy     :     0.023887

  5 C s       :     2.875450  s :     2.875450
      pz      :     1.059507  p :     3.172033
      px      :     1.045713
      py      :     1.066813
      dz2     :     0.017101  d :     0.104740
      dxz     :     0.021203
      dyz     :     0.025957
      dx2y2   :     0.016381
      dxy     :     0.024098

  6 C s       :     2.947111  s :     2.947111
      pz      :     1.104146  p :     3.310588
      px      :     1.094923
      py      :     1.111519
      dz2     :     0.011490  d :     0.071021
      dxz     :     0.013221
      dyz     :     0.017792
      dx2y2   :     0.007294
      dxy     :     0.021225

  7 C s       :     2.943188  s :     2.943188
      pz      :     1.090652  p :     3.316970
      px      :     1.111932
      py      :     1.114386
      dz2     :     0.011779  d :     0.071015
      dxz     :     0.014741
      dyz     :     0.019956
      dx2y2   :     0.004045
      dxy     :     0.020494

  8 H s       :     0.883660  s :     0.883660

  9 H s       :     0.880458  s :     0.880458

 10 H s       :     0.883227  s :     0.883227

 11 H s       :     0.887288  s :     0.887288

 12 H s       :     0.885493  s :     0.885493

 13 H s       :     0.881905  s :     0.881905

 14 H s       :     0.882961  s :     0.882961

 15 H s       :     0.883608  s :     0.883608

 16 H s       :     0.885852  s :     0.885852

 17 H s       :     0.885258  s :     0.885258

 18 H s       :     0.884338  s :     0.884338

 19 H s       :     0.882805  s :     0.882805

 20 H s       :     0.881113  s :     0.881113

 21 H s       :     0.883750  s :     0.883750

 22 H s       :     0.882825  s :     0.882825


---------------------------------
LOEWDIN BOND ORDERS (THRESH 0.050000)
---------------------------------
B(  0-C ,  1-C ) :   1.1284 B(  0-C ,  2-C ) :   0.0507 B(  0-C ,  8-H ) :   0.9374 
B(  0-C ,  9-H ) :   0.9375 B(  0-C , 10-H ) :   0.9399 B(  1-C ,  2-C ) :   1.0591 
B(  1-C ,  4-C ) :   0.0594 B(  1-C , 11-H ) :   0.9009 B(  1-C , 12-H ) :   0.9008 
B(  2-C ,  3-H ) :   0.8680 B(  2-C ,  4-C ) :   1.0898 B(  2-C ,  5-C ) :   1.0291 
B(  2-C ,  6-C ) :   0.0527 B(  4-C , 13-H ) :   0.9343 B(  4-C , 14-H ) :   0.9338 
B(  4-C , 15-H ) :   0.9319 B(  5-C ,  6-C ) :   1.0918 B(  5-C ,  7-C ) :   1.0932 
B(  5-C , 16-H ) :   0.8667 B(  6-C ,  7-C ) :   0.0562 B(  6-C , 17-H ) :   0.9338 
B(  6-C , 18-H ) :   0.9357 B(  6-C , 19-H ) :   0.9356 B(  7-C , 20-H ) :   0.9350 
B(  7-C , 21-H ) :   0.9326 B(  7-C , 22-H ) :   0.9339 

------------------------------------------
LOEWDIN REDUCED ORBITAL POPULATIONS PER MO
-------------------------------------------
THRESHOLD FOR PRINTING IS 0.1%%
                      0         1         2         3         4         5   
                  -9.88804  -9.88689  -9.87740  -9.86949  -9.86835  -9.86768
                   2.00000   2.00000   2.00000   2.00000   2.00000   2.00000
                  --------  --------  --------  --------  --------  --------
 0 C  s               0.0       0.0       0.0      99.7       0.0       0.0
 1 C  s               0.0       0.0      99.6       0.0       0.0       0.0
 2 C  s               0.0      99.6       0.0       0.0       0.0       0.0
 5 C  s              99.6       0.0       0.0       0.0       0.0       0.0
 6 C  s               0.0       0.0       0.0       0.0       0.0      99.7
 7 C  s               0.0       0.0       0.0       0.0      99.7       0.0

                      6         7         8         9        10        11   
                  -9.86683  -0.74092  -0.68184  -0.64234  -0.60645  -0.56331
                   2.00000   2.00000   2.00000   2.00000   2.00000   2.00000
                  --------  --------  --------  --------  --------  --------
 0 C  s               0.0       3.0      12.5      14.5       0.4       9.9
 0 C  pz              0.0       0.3       0.5       0.1       0.0       0.4
 0 C  px              0.0       0.2       0.1       0.0       0.0       0.6
 0 C  py              0.0       0.6       0.9       0.0       0.0       1.4
 1 C  s               0.0       9.4      15.6       2.6       0.0       2.2
 1 C  pz              0.0       0.4       0.5       0.5       0.1       0.1
 1 C  px              0.0       1.2       0.1       1.6       0.1       2.3
 1 C  py              0.0       0.2       0.2       4.7       0.0       2.5
 1 C  dyz             0.0       0.0       0.0       0.1       0.0       0.1
 2 C  s               0.0      19.3       1.8       5.6       0.0       6.3
 2 C  pz              0.0       0.2       0.5       0.9       0.8       1.6
 2 C  px              0.0       0.2       5.9       0.2       0.0       0.3
 2 C  py              0.1       0.4       0.0       6.6       0.1       5.4
 2 C  dyz             0.0       0.0       0.0       0.1       0.0       0.1
 2 C  dxy             0.0       0.0       0.1       0.0       0.0       0.0
 3 H  s               0.0       3.5       0.4       1.2       0.2       2.1
 4 C  s              99.6       6.4       1.1      22.2       0.1      14.2
 4 C  pz              0.0       0.6       0.0       0.2       0.1       1.2
 4 C  px              0.0       0.0       0.3       0.0       0.0       0.2
 4 C  py              0.0       1.6       0.1       0.1       0.0       2.6
 5 C  s               0.0      17.3       9.2       1.0       0.0       2.1
 5 C  pz              0.0       0.2       0.0       0.0      10.5       0.4
 5 C  px              0.0       0.3       3.7       1.5       0.5       5.0
 5 C  py              0.0       0.6       0.0       1.3       3.9       0.0
 5 C  dz2             0.0       0.0       0.0       0.0       0.1       0.0
 5 C  dxz             0.0       0.0       0.0       0.0       0.2       0.0
 6 C  s               0.1       5.5       9.6       1.4      21.6       1.9
 6 C  pz              0.0       0.5       0.4       0.0       0.5       0.0
 6 C  px              0.0       1.1       0.3       0.0       0.0       0.9
 6 C  py              0.0       0.3       0.4       0.2       0.2       0.2
 7 C  s               0.0       5.9       7.9       3.1      22.9       1.9
 7 C  pz              0.0       1.3       0.9       0.1       0.6       0.5
 7 C  px              0.0       0.3       0.0       0.0       0.0       0.6
 7 C  py              0.0       0.3       0.1       0.0       0.2       0.0
 8 H  s               0.0       0.6       2.3       3.5       0.1       3.0
 9 H  s               0.0       0.5       2.5       3.5       0.1       4.0
10 H  s               0.0       0.6       2.5       3.2       0.1       3.0
11 H  s               0.0       1.8       2.9       0.6       0.1       0.5
12 H  s               0.0       1.6       3.4       0.4       0.0       0.4
13 H  s               0.1       1.1       0.4       5.3       0.0       4.8
14 H  s               0.1       1.3       0.2       4.8       0.1       5.1
15 H  s               0.1       1.2       0.1       5.1       0.0       5.8
16 H  s               0.0       3.2       1.5       0.6       0.0       0.9
17 H  s               0.0       1.1       2.0       0.2       5.4       1.2
18 H  s               0.0       1.0       1.7       0.2       6.7       0.4
19 H  s               0.0       0.9       2.1       0.5       5.4       0.9
20 H  s               0.0       1.0       1.8       0.9       5.8       0.9
21 H  s               0.0       1.1       1.2       0.7       7.1       0.4
22 H  s               0.0       1.2       1.6       0.5       5.9       1.2

                     12        13        14        15        16        17   
                  -0.53197  -0.46921  -0.42572  -0.40651  -0.38736  -0.37150
                   2.00000   2.00000   2.00000   2.00000   2.00000   2.00000
                  --------  --------  --------  --------  --------  --------
 0 C  s               5.8       0.4       0.1       0.0       0.1       0.1
 0 C  pz              3.0       2.3       1.3       0.1       7.3       5.6
 0 C  px              0.0       0.1       0.1       9.4       0.2       3.6
 0 C  py              3.1       0.0       1.9       2.5       0.4      19.7
 0 C  dyz             0.1       0.0       0.0       0.0       0.1       0.0
 0 C  dx2y2           0.0       0.0       0.0       0.0       0.0       0.1
 1 C  s              11.9       1.5       0.0       0.2       0.3       0.5
 1 C  pz              4.3       5.0       4.0       0.1       0.9      11.7
 1 C  px              0.7       0.6       2.0      13.7       4.1       0.0
 1 C  py              1.6       1.3       3.6       1.4       5.0       0.0
 2 C  s               1.3       6.4       0.1       0.1       0.5       1.0
 2 C  pz              2.9       4.3       5.1       0.6       8.5       0.8
 2 C  px              6.6       1.2       7.7       1.0       3.3       0.1
 2 C  py              0.0       2.7       1.3       2.7       0.2       7.8
 2 C  dxy             0.2       0.0       0.0       0.0       0.0       0.0
 3 H  s               1.0       8.5       2.7       0.1       1.6       0.3
 4 C  s               0.0       1.7       0.3       0.1       0.0       0.0
 4 C  pz              0.4       5.2       0.4       1.9       2.3       5.7
 4 C  px              0.5       0.1       5.4       0.8       4.2       5.0
 4 C  py              0.0       1.7       4.6       0.0       7.5       3.4
 4 C  dyz             0.0       0.1       0.0       0.0       0.0       0.2
 5 C  s               4.9       7.1       0.1       1.3       0.0       0.0
 5 C  pz              0.4       0.6       5.9       0.7       3.8       0.1
 5 C  px              4.1       0.2       1.5       5.2       2.3       0.9
 5 C  py              0.0       5.2       9.8       4.7       0.4       0.0
 6 C  s               5.0       0.7       0.0       0.6       0.0       0.0
 6 C  pz              0.3       0.4       1.3      10.7       3.7       0.1
 6 C  px              3.0       1.1       0.0       2.5       7.9       0.0
 6 C  py              0.5       3.7       5.8       0.2       2.8       2.3
 6 C  dxy             0.0       0.1       0.0       0.1       0.0       0.0
 7 C  s               1.6       2.6       0.2       0.0       0.2       0.0
 7 C  pz              1.3       7.1       1.3       2.1       4.4       0.8
 7 C  px              0.7       1.5       2.5       3.2       0.3       0.4
 7 C  py              0.1       0.1       6.4       6.4       3.1       1.9
 7 C  dz2             0.0       0.1       0.0       0.0       0.0       0.0
 8 H  s               3.6       0.1       0.5       4.3       0.4       2.2
 9 H  s               2.1       0.1       0.2       1.7       0.2       8.6
10 H  s               3.3       1.3       0.7       0.1       2.8       4.5
11 H  s               6.0       3.5       2.8       0.6       1.5       2.6
12 H  s               6.5       0.7       1.8       5.7       0.2       0.1
13 H  s               0.0       1.0       4.7       0.3       0.0       0.1
14 H  s               0.0       2.7       0.5       0.9       1.0       2.5
15 H  s               0.1       0.7       0.0       0.3       6.2       2.6
16 H  s               2.9       6.7       4.7       1.5       0.3       0.0
17 H  s               2.5       1.5       2.5       0.0       0.3       1.2
18 H  s               1.5       1.2       0.0       3.6       4.3       0.0
19 H  s               2.8       0.2       1.0       2.3       3.3       0.5
20 H  s               1.0       1.6       3.8       0.0       0.1       1.0
21 H  s               0.8       1.4       0.0       5.3       3.4       0.0
22 H  s               1.0       3.1       1.1       0.8       0.0       1.2

                     18        19        20        21        22        23   
                  -0.36640  -0.35068  -0.33767  -0.32970  -0.31938  -0.30366
                   2.00000   2.00000   2.00000   2.00000   2.00000   2.00000
                  --------  --------  --------  --------  --------  --------
 0 C  s               0.0       0.0       0.0       0.0       0.0       0.3
 0 C  pz              3.2       0.3       0.3       5.6      13.1       0.1
 0 C  px             16.1       2.8       2.3       1.0       5.2       1.1
 0 C  py              0.2       0.4       1.7       0.2       0.0      11.4
 0 C  dz2             0.0       0.0       0.0       0.0       0.1       0.1
 0 C  dxy             0.0       0.0       0.1       0.1       0.2       0.2
 1 C  s               0.4       0.0       0.0       0.0       0.1       0.1
 1 C  pz              0.1       0.1       0.2       1.3       4.0       0.6
 1 C  px              2.9       0.4       0.0       0.1       0.1       3.7
 1 C  py              5.6       0.4       0.5       1.8       1.2      10.2
 1 C  dxy             0.0       0.0       0.0       0.0       0.2       0.3
 2 C  s               0.0       0.0       0.9       0.1       0.3       0.1
 2 C  pz              1.7       0.3       0.2       2.2       2.2       3.2
 2 C  px              0.5       0.0       0.9       0.0       0.2       0.9
 2 C  py              0.0       0.1       0.0       0.1       3.6       0.2
 2 C  dxy             0.1       0.0       0.1       0.0       0.0       0.0
 3 H  s               0.7       0.1       0.0       1.1       0.8       1.9
 4 C  s               0.0       0.0       0.1       0.0       0.0       0.1
 4 C  pz              5.0       6.4       0.1       0.3      13.3       2.8
 4 C  px              1.0       0.1      24.5       0.3       2.9       4.7
 4 C  py              5.0       1.2       5.3       2.5       0.0       0.4
 4 C  dz2             0.1       0.1       0.1       0.0       0.1       0.1
 4 C  dxy             0.0       0.0       0.3       0.0       0.1       0.1
 5 C  s               0.2       0.1       0.6       0.0       0.0       0.0
 5 C  pz              0.3       7.2       0.1       0.3       0.0       3.7
 5 C  px              1.3       0.7       0.3       0.3       2.0       0.2
 5 C  py              0.0       2.6       0.4       0.1       0.1       1.4
 5 C  dxy             0.0       0.0       0.2       0.0       0.0       0.1
 6 C  pz              9.6       2.2       1.4       0.6       2.3       5.1
 6 C  px              2.5       7.2       4.9       8.5       1.1       1.4
 6 C  py              0.0       4.6       6.0      12.1       5.7       0.2
 6 C  dyz             0.1       0.1       0.0       0.0       0.1       0.2
 6 C  dxy             0.0       0.0       0.2       0.2       0.0       0.1
 7 C  s               0.0       0.0       0.1       0.0       0.0       0.1
 7 C  pz              2.6       4.0       0.5       3.9       0.6       3.9
 7 C  px              6.4      18.4       2.5       5.7       1.7       0.8
 7 C  py              0.0       6.0       5.1      12.9       1.5       0.0
 7 C  dyz             0.0       0.3       0.0       0.0       0.0       0.0
 7 C  dxy             0.1       0.0       0.1       0.3       0.1       0.1
 8 H  s               3.9       1.1       2.2       0.7       1.8       7.4
 9 H  s               3.9       0.5       0.6       1.3       6.5       0.0
10 H  s               2.7       0.4       0.0       2.2       6.0       1.2
11 H  s               0.6       0.2       0.0       0.3       2.0       0.4
12 H  s               2.5       0.3       0.4       0.4       1.2       8.2
13 H  s               0.1       0.1      15.9       1.2       1.0       3.5
14 H  s               3.1       4.4       1.8       0.3       5.6       3.0
15 H  s               4.1       1.7       3.4       0.0       3.4       0.5
16 H  s               0.2       0.0       0.0       0.0       0.1       4.3
17 H  s               2.3       6.4       1.5       2.1       4.9       3.6
18 H  s               5.2       0.9       0.5       1.7       0.3       3.5
19 H  s               0.1       0.1       7.0      11.4       0.6       0.0
20 H  s               1.9       1.4       4.5      10.5       2.2       1.3
21 H  s               2.9       5.3       0.1       0.3       0.4       1.3
22 H  s               0.0      10.2       1.4       5.4       0.4       1.0

                     24        25        26        27        28        29   
                  -0.29825  -0.29542  -0.26942  -0.26318  -0.25969   0.03110
                   2.00000   2.00000   2.00000   2.00000   2.00000   0.00000
                  --------  --------  --------  --------  --------  --------
 0 C  s               0.0       0.3       0.1       0.0       0.0       4.0
 0 C  pz              5.2       4.7       1.3       0.2       0.6       0.6
 0 C  px              1.3       8.6       0.2       1.3       1.6       0.0
 0 C  py              1.5       2.0       1.4       4.0       1.4       1.0
 0 C  dz2             0.3       0.0       0.0       0.2       0.0       0.0
 0 C  dyz             0.0       0.1       0.0       0.0       0.0       0.1
 0 C  dx2y2           0.0       0.1       0.0       0.0       0.0       0.0
 0 C  dxy             0.0       0.1       0.0       0.1       0.2       0.0
 1 C  s               0.0       0.0       0.0       0.5       0.1       3.0
 1 C  pz              6.6       6.3       3.9       3.1       0.5       1.3
 1 C  px              1.2       4.0       0.5       8.0       6.1       0.8
 1 C  py              2.4       2.3       0.0       7.2       1.2       0.0
 1 C  dz2             0.4       0.0       0.2       0.1       0.0       0.0
 1 C  dxz             0.0       0.0       0.0       0.1       0.0       0.1
 1 C  dyz             0.1       0.2       0.2       0.0       0.0       0.0
 1 C  dx2y2           0.0       0.2       0.0       0.1       0.1       0.0
 1 C  dxy             0.0       0.0       0.0       0.1       0.5       0.1
 2 C  s               0.0       0.1       0.1       0.1       0.1       1.8
 2 C  pz              2.4       0.0      12.7       1.1       1.0       1.8
 2 C  px              0.7       0.2       2.7       5.6      13.8       0.1
 2 C  py              0.0       5.9       0.1       9.9       5.2       0.3
 2 C  dz2             0.1       0.0       0.4       0.2       0.1       0.0
 2 C  dxz             0.0       0.1       0.1       0.1       0.0       0.1
 2 C  dyz             0.0       0.0       0.6       0.1       0.0       0.0
 2 C  dx2y2           0.0       0.0       0.0       0.3       0.2       0.0
 2 C  dxy             0.0       0.0       0.0       0.2       0.4       0.0
 3 H  s               1.1       0.3      14.5       2.0       0.3       6.6
 4 C  s               0.0       0.1       0.4       0.2       0.1       3.7
 4 C  pz              1.2       0.9       6.3       0.1       1.2       0.2
 4 C  px              1.4       0.3       1.3       2.0       0.7       0.2
 4 C  py              0.2       6.5       1.7       6.6       3.1       0.8
 4 C  dz2             0.0       0.2       0.2       0.2       0.0       0.1
 4 C  dxy             0.1       0.0       0.0       0.1       0.3       0.1
 5 C  s               0.0       0.0       0.1       0.0       0.3       2.3
 5 C  pz              6.2       0.2       8.8       0.3       3.2       0.8
 5 C  px              0.2       6.2       3.7       3.2       9.0       0.1
 5 C  py              4.2       2.8       0.2       6.0       9.5       1.1
 5 C  dz2             0.1       0.0       0.1       0.0       0.1       0.0
 5 C  dxz             0.1       0.1       0.2       0.3       0.0       0.1
 5 C  dyz             0.0       0.2       0.5       0.2       0.0       0.2
 5 C  dx2y2           0.0       0.0       0.0       0.2       0.1       0.0
 5 C  dxy             0.0       0.0       0.0       0.1       0.4       0.0
 6 C  s               0.2       0.3       0.0       0.6       0.0       3.5
 6 C  pz             12.0       0.7       1.7       0.8       1.0       0.5
 6 C  px              0.0       2.6       0.1       6.2       3.1       0.9
 6 C  py              3.2       2.3       0.0       4.1       0.8       0.3
 6 C  dz2             0.2       0.0       0.1       0.0       0.0       0.1
 6 C  dyz             0.1       0.0       0.1       0.0       0.0       0.0
 6 C  dx2y2           0.0       0.0       0.0       0.0       0.2       0.0
 6 C  dxy             0.0       0.0       0.0       0.0       0.2       0.1
 7 C  s               0.3       0.0       0.5       0.0       0.0       6.4
 7 C  pz              5.5       0.2      12.1       0.5       0.3       0.5
 7 C  px              0.1       7.0       2.0       0.5       1.0       0.1
 7 C  py              4.1       3.3       1.1       1.6       1.4       0.4
 7 C  dz2             0.0       0.0       0.0       0.0       0.1       0.1
 7 C  dxz             0.2       0.1       0.0       0.1       0.0       0.1
 7 C  dyz             0.0       0.3       0.1       0.1       0.0       0.0
 7 C  dxy             0.0       0.0       0.0       0.0       0.2       0.0
 8 H  s               2.7       1.3       0.0       0.1       2.3       4.1
 9 H  s               0.1       3.6       0.0       3.0       1.0       2.3
10 H  s               5.8       1.9       0.7       1.3       0.0       3.3
11 H  s               8.6       2.6       4.5       2.1       0.3       3.2
12 H  s               2.3       0.1       0.3       0.0       7.6       4.8
13 H  s               0.8       0.4       0.5       0.0       2.9       4.9
14 H  s               0.5       2.0       3.7       0.5       0.0       1.6
15 H  s               0.8       3.4       0.1       4.3       0.2       2.1
16 H  s               0.2       3.0       4.1       4.9       5.0       5.6
17 H  s               0.4       1.3       1.1       1.6       1.1       2.1
18 H  s               8.7       0.1       2.2       0.1       0.1       3.6
19 H  s               0.4       0.0       0.0       0.1       4.5       3.7
20 H  s               0.1       0.6       0.4       0.0       3.2       5.9
21 H  s               4.6       5.2       0.3       2.0       0.2       5.2
22 H  s               0.4       4.1       1.2       1.0       1.3       2.6

                     30        31        32        33        34        35   
                   0.05629   0.06210   0.06746   0.09432   0.10031   0.10119
                   0.00000   0.00000   0.00000   0.00000   0.00000   0.00000
                  --------  --------  --------  --------  --------  --------
 0 C  s              11.5       0.0       0.0       0.6       6.8       0.7
 0 C  pz              0.2       1.9       0.2       0.2       0.1       3.2
 0 C  px              0.1       0.1       2.5       0.4       1.0       5.6
 0 C  py              0.6       0.6       0.4       0.2       0.7       0.1
 0 C  dz2             0.0       0.2       0.0       0.0       0.1       0.1
 0 C  dxz             0.0       0.0       0.0       0.0       0.0       0.1
 0 C  dyz             0.0       0.0       0.1       0.0       0.1       0.0
 0 C  dx2y2           0.0       0.0       0.1       0.0       0.0       0.2
 0 C  dxy             0.0       0.0       0.1       0.0       0.0       0.4
 1 C  s               0.8       1.3       4.2       1.0       1.0       1.6
 1 C  pz              0.3       4.0       0.0       0.9       0.7       0.8
 1 C  px              0.2       0.1       2.5       1.6       0.2       1.6
 1 C  py              0.2       0.5       1.7       0.4       0.9       0.1
 1 C  dz2             0.0       0.2       0.1       0.0       0.0       0.3
 1 C  dxz             0.0       0.0       0.0       0.0       0.2       0.1
 1 C  dyz             0.2       0.1       0.0       0.0       0.1       0.1
 1 C  dxy             0.0       0.0       0.2       0.1       0.0       0.2
 2 C  s               0.0       1.5       0.4       0.5       1.2       0.2
 2 C  pz              0.0       3.5       0.5       0.2       1.1       2.2
 2 C  px              0.0       0.1       0.2       0.2       0.2       0.4
 2 C  py              0.1       0.8       0.5       0.7       0.6       0.2
 2 C  dz2             0.0       0.5       0.0       0.0       0.0       0.0
 2 C  dxz             0.2       0.0       0.1       0.0       0.0       0.0
 2 C  dyz             0.1       0.0       0.0       0.6       0.0       0.2
 2 C  dx2y2           0.0       0.0       0.3       0.0       0.0       0.0
 2 C  dxy             0.0       0.0       0.0       0.1       0.0       0.2
 3 H  s               0.2      14.7       1.7       0.7       6.6       3.1
 4 C  s               6.9       0.3       2.4       1.4       0.8       0.7
 4 C  pz              0.1       2.8       0.6       0.6       0.2       0.1
 4 C  px              1.1       0.0       1.2       5.0       1.3       0.2
 4 C  py              0.3       0.7       2.2       0.2       0.2       1.2
 4 C  dz2             0.0       0.2       0.0       0.0       0.0       0.0
 4 C  dyz             0.0       0.0       0.1       0.0       0.1       0.0
 4 C  dx2y2           0.0       0.0       0.0       0.0       0.0       0.1
 4 C  dxy             0.0       0.0       0.0       0.2       0.0       0.0
 5 C  s               0.5       0.5       0.9       0.9       0.4       0.3
 5 C  pz              0.3       0.0       0.7       0.9       0.0       0.4
 5 C  px              0.1       0.0       0.0       0.0       0.1       0.1
 5 C  py              0.5       0.1       2.8       0.0       0.5       0.2
 5 C  dz2             0.0       0.1       0.0       0.0       0.1       0.1
 5 C  dxz             0.0       0.0       0.1       0.2       0.0       0.4
 5 C  dyz             0.0       0.0       0.0       0.0       0.4       0.0
 5 C  dx2y2           0.1       0.0       0.2       0.4       0.2       0.0
 5 C  dxy             0.2       0.0       0.0       0.3       0.1       0.0
 6 C  s               4.5       2.3       2.9       4.9       0.0       2.9
 6 C  pz              0.3       1.6       0.5       0.2       4.8       0.1
 6 C  px              1.2       0.1       0.8       0.9       2.9       1.6
 6 C  py              0.7       0.8       1.2       4.7       0.1       1.9
 6 C  dyz             0.1       0.0       0.0       0.0       0.4       0.0
 6 C  dxy             0.0       0.0       0.1       0.3       0.0       0.0
 7 C  s               0.6       4.6       0.9       0.5       1.1       2.6
 7 C  pz              0.3       2.4       0.1       1.1       0.6       0.6
 7 C  px              1.6       0.4       0.8       4.5       2.1       0.2
 7 C  py              0.7       0.2       1.7       0.1       2.8       2.7
 7 C  dxz             0.0       0.0       0.1       0.0       0.0       0.2
 7 C  dyz             0.1       0.0       0.0       0.1       0.2       0.0
 7 C  dx2y2           0.0       0.0       0.0       0.0       0.2       0.0
 7 C  dxy             0.0       0.0       0.0       0.3       0.0       0.0
 8 H  s               7.1       1.3       5.1       0.1       2.8       6.6
 9 H  s               9.3       0.3       1.3       2.1      10.6      10.7
10 H  s               7.4       4.8       0.5       0.3       3.8       7.2
11 H  s               0.6      13.3       0.5       5.4       4.7       2.6
12 H  s               1.0       0.1      18.5       1.1       0.1       5.6
13 H  s               1.4       0.1       9.9       8.6       0.0       0.1
14 H  s               5.4       7.7       1.2       1.8       0.1       1.3
15 H  s               9.7       0.9       0.6       4.8       3.6       0.2
16 H  s               2.7       1.1       8.4       2.9       1.8       0.3
17 H  s               9.0       0.8       0.1      13.5       6.7       0.1
18 H  s               0.9       7.8       0.8       7.1      11.2       0.1
19 H  s               3.5       0.4      10.0       1.3       0.5      14.3
20 H  s               1.2       0.6       6.3       9.1       0.7       0.6
21 H  s               0.8       9.1       0.5       5.0       8.2       1.4
22 H  s               4.5       4.4       0.1       0.1       3.5      10.2

                     36        37        38        39        40        41   
                   0.11020   0.11847   0.12272   0.13499   0.14748   0.15433
                   0.00000   0.00000   0.00000   0.00000   0.00000   0.00000
                  --------  --------  --------  --------  --------  --------
 0 C  s               0.4       0.1       0.3       0.7       0.1       1.9
 0 C  pz              0.7       5.1       0.5       4.2       0.1       0.8
 0 C  px              3.5       1.3       1.9       0.1       4.9       1.1
 0 C  py              2.8       0.5       0.4       3.9       1.3       1.6
 0 C  dz2             0.2       0.1       0.0       0.2       0.1       0.0
 0 C  dxz             0.0       0.0       0.2       0.2       0.3       0.1
 0 C  dyz             0.0       0.3       0.1       0.0       0.0       0.2
 0 C  dx2y2           0.0       0.1       0.0       0.3       0.1       0.0
 0 C  dxy             0.1       0.2       0.0       0.0       0.3       0.0
 1 C  s               0.1       3.0       0.0       0.9       1.2       1.8
 1 C  pz              0.1       0.3       0.7       1.1       0.3       0.4
 1 C  px              0.0       0.6       1.1       0.1       4.5       0.1
 1 C  py              0.7       0.1       2.3       0.1       1.6       0.7
 1 C  dz2             0.2       0.0       0.1       0.0       0.2       0.1
 1 C  dxz             0.2       0.1       0.0       0.0       0.2       0.0
 1 C  dyz             0.0       0.1       0.1       0.3       0.1       0.0
 1 C  dx2y2           0.0       0.2       0.0       0.2       0.1       0.0
 1 C  dxy             0.1       0.3       0.1       0.0       0.1       0.0
 2 C  s               0.5       0.1       1.0       0.4       0.5       1.4
 2 C  pz              0.0       0.4       1.3       0.4       0.0       0.3
 2 C  px              0.6       2.0       0.0       0.0       0.5       0.2
 2 C  py              0.2       0.0       0.0       0.7       0.7       1.6
 2 C  dz2             0.0       0.1       0.1       0.5       0.0       0.0
 2 C  dxz             0.0       0.1       0.1       0.1       0.4       0.0
 2 C  dyz             0.1       0.1       0.0       0.0       0.1       0.4
 2 C  dx2y2           0.3       0.2       0.0       0.2       0.6       0.0
 2 C  dxy             0.2       0.7       0.2       0.2       0.0       0.0
 3 H  s               0.8       0.2       4.1       2.6       0.1       0.7
 4 C  s               5.7       0.1       3.0       0.3       0.4       2.3
 4 C  pz              0.4       2.2       4.0       1.0       0.3       4.0
 4 C  px              0.6       0.3       5.8       2.3       5.1       0.1
 4 C  py              1.2       0.8       1.1       0.3       0.4       3.4
 4 C  dz2             0.0       0.2       0.3       0.1       0.2       0.0
 4 C  dyz             0.1       0.0       0.3       0.1       0.1       0.5
 4 C  dx2y2           0.0       0.0       0.2       0.0       0.0       0.1
 4 C  dxy             0.0       0.3       0.4       0.1       0.5       0.1
 5 C  s               1.7       0.6       0.5       1.6       0.3       7.0
 5 C  pz              0.1       0.2       0.1       0.9       0.3       1.1
 5 C  px              1.1       0.6       0.5       0.7       1.5       0.6
 5 C  py              2.2       0.4       0.2       0.2       1.5       3.2
 5 C  dz2             0.0       0.7       0.0       0.1       0.2       0.5
 5 C  dxz             0.2       0.0       0.0       0.5       0.0       0.1
 5 C  dyz             0.1       0.0       0.0       0.0       0.8       0.2
 5 C  dx2y2           0.0       0.0       0.0       0.3       0.0       0.0
 5 C  dxy             0.1       0.0       0.1       0.2       0.2       0.0
 6 C  s               0.0       0.6       0.8       4.3       0.2       0.0
 6 C  pz              0.3       5.5       0.9       0.6       1.7       0.5
 6 C  px              0.9       1.3       0.3       1.2       3.6       0.2
 6 C  py              0.1       0.5       0.9       5.0       0.8       2.6
 6 C  dz2             0.0       0.2       0.1       0.1       0.1       0.1
 6 C  dxz             0.1       0.1       0.0       0.4       0.0       0.2
 6 C  dyz             0.0       0.2       0.0       0.1       0.0       0.6
 6 C  dxy             0.0       0.1       0.1       0.0       0.7       0.0
 7 C  s               5.1       0.2       1.9       0.8       0.5       1.9
 7 C  pz              0.2       0.4       1.8       0.3       0.7       4.2
 7 C  px              4.1       0.2       0.4       2.3       0.9       1.2
 7 C  py              0.0       5.0       0.1       0.9       0.5       2.2
 7 C  dz2             0.0       0.1       0.0       0.1       0.0       1.1
 7 C  dxz             0.1       0.0       0.0       0.0       0.1       0.2
 7 C  dyz             0.1       0.0       0.0       0.0       0.2       0.3
 7 C  dx2y2           0.0       0.1       0.0       0.0       0.0       0.1
 7 C  dxy             0.0       0.3       0.5       0.2       0.3       0.0
 8 H  s               7.4       0.1       0.2       0.9       7.7       2.8
 9 H  s               2.0       9.8       4.1       2.2       5.2       5.4
10 H  s               6.4       6.5       1.2      15.9       0.7       0.3
11 H  s               0.5       4.9       2.7       0.2       1.2       3.4
12 H  s               0.9       0.4       5.9       0.3      15.0       0.1
13 H  s              10.9       0.2       6.0       2.7      12.3       2.6
14 H  s               0.4       3.8      21.2       2.5       0.5       2.1
15 H  s               3.4       4.6       4.5       4.4       1.5       7.0
16 H  s              10.1       0.5       0.1       1.1       1.4      11.4
17 H  s               0.1       1.2       5.6       0.5       1.4       3.2
18 H  s               0.1      17.3       0.3       0.6       0.1       0.7
19 H  s               1.2       0.3       0.5      15.6       7.2       1.1
20 H  s              12.9       4.0       0.8       9.7       4.5       2.9
21 H  s               0.1       0.4       4.5       0.6       0.0       2.6
22 H  s               7.1       8.8       3.3       0.0       0.7       2.0

                     42        43        44        45        46        47   
                   0.15996   0.16606   0.18224   0.18755   0.20755   0.21503
                   0.00000   0.00000   0.00000   0.00000   0.00000   0.00000
                  --------  --------  --------  --------  --------  --------
 0 C  s               0.1       2.3       0.0       0.4       0.2       0.6
 0 C  pz              1.9       1.2       0.5       0.5       2.3       6.3
 0 C  px              0.0       6.2       0.3       0.3       0.6       1.0
 0 C  py              1.0       1.6       0.5       1.0       4.5      10.1
 0 C  dz2             0.4       0.1       0.0       0.1       0.0       0.0
 0 C  dxz             0.0       0.3       0.1       0.0       0.0       0.3
 0 C  dyz             0.0       0.6       0.1       0.0       1.0       2.2
 0 C  dx2y2           0.2       0.6       0.0       0.1       0.4       0.4
 0 C  dxy             0.0       0.1       0.5       0.1       0.1       1.3
 1 C  s               1.0       0.4       7.0       0.2       0.1       2.4
 1 C  pz              1.1       2.7       0.4       0.7       1.9       5.1
 1 C  px              1.1       0.0       5.8       2.0       3.3       0.2
 1 C  py              2.5       1.4       0.1       0.0       4.2       5.8
 1 C  dz2             0.5       0.0       0.1       0.0       0.3       0.1
[...]
 6 C  dyz             2.6       5.5       1.0       0.1       1.2       3.6
 6 C  dx2y2           1.0       1.0       0.6       5.9       0.1       0.0
 6 C  dxy             9.1       3.2       2.0       0.7       2.4       0.8
 7 C  s               0.1       0.0       0.1       0.0       0.6       0.0
 7 C  pz              0.2       0.0       0.2       0.0       1.2       0.0
 7 C  px              0.0       0.2       0.0       0.0       0.2       0.0
 7 C  py              0.1       0.1       0.0       0.0       0.1       0.0
 7 C  dz2             0.1       3.7       0.1       1.9       4.3       2.6
 7 C  dxz             0.9       0.4       2.3       6.6       2.3       3.9
 7 C  dyz            11.3       3.9       0.0       5.3       6.5       0.2
 7 C  dx2y2           0.9       0.4       0.7       0.2       0.3       0.4
 7 C  dxy             2.6       5.4       3.8       0.1       1.1       4.1
 8 H  s               0.0       0.5       0.9       0.0       0.1       0.0
 9 H  s               0.2       0.5       0.3       0.0       0.0       0.0
10 H  s               0.3       0.2       0.2       0.2       0.0       0.0
11 H  s               1.0       0.5       0.8       0.6       0.0       0.3
12 H  s               2.1       0.3       0.0       0.0       0.5       0.0
13 H  s               0.6       0.8       0.0       0.0       0.1       0.3
14 H  s               1.0       0.2       0.5       0.3       0.3       0.1
15 H  s               0.0       0.2       0.5       0.0       0.1       0.0
16 H  s               0.4       0.2       0.4       0.5       1.8       0.3
17 H  s               0.1       1.4       0.3       0.1       0.0       0.4
18 H  s               0.2       0.2       0.1       0.7       0.0       0.2
19 H  s               1.4       0.1       0.0       0.2       0.2       0.0
20 H  s               0.2       1.1       0.2       0.1       0.1       0.3
21 H  s               0.1       0.6       0.4       0.4       0.0       0.4
22 H  s               1.7       0.0       0.0       0.5       0.4       0.0

                    126       127       128       129   
                   2.54474   2.64383   2.67980   2.70070
                   0.00000   0.00000   0.00000   0.00000
                  --------  --------  --------  --------
 0 C  s               0.9       0.2       0.0       0.6
 0 C  pz              0.8       0.1       0.0       0.3
 0 C  px              0.1       0.0       0.0       0.3
 0 C  py              1.2       0.1       0.0       0.7
 0 C  dz2             0.5       0.0       1.4       0.0
 0 C  dxz             1.0       0.0       0.0       1.0
 0 C  dyz            11.6       0.8       0.3       2.7
 0 C  dx2y2           3.9       0.2       0.0       1.0
 0 C  dxy             0.3       0.4       0.7       0.8
 1 C  s               1.5       0.4       0.3       0.2
 1 C  pz              0.5       0.2       0.1       0.0
 1 C  px              0.1       0.2       0.2       2.0
 1 C  py              0.8       0.1       0.4       1.5
 1 C  dz2             1.8       0.0       2.4       0.9
 1 C  dxz             4.2       0.0       0.0       4.9
 1 C  dyz            12.8       0.8       1.2       6.8
 1 C  dx2y2           2.2       0.2       0.6       7.2
 1 C  dxy             6.1       3.3       7.3       1.8
 2 C  s               0.2       0.0       0.0       0.0
 2 C  pz              0.2       0.2       0.2       0.0
 2 C  px              0.3       1.4       0.0       2.6
 2 C  py              0.0       1.1       1.9       0.7
 2 C  dz2             2.3       4.2       1.0       0.4
 2 C  dxz             4.7       1.0       7.6       0.1
 2 C  dyz             1.2       2.3       6.5       7.9
 2 C  dx2y2           0.0       0.3      22.2       0.3
 2 C  dxy             0.6      11.7       0.8      20.4
 4 C  s               0.0       0.3       1.1       0.4
 4 C  pz              0.1       0.2       0.6       0.1
 4 C  px              0.0       0.1       0.0       0.1
 4 C  py              0.0       0.4       1.7       0.2
 4 C  dz2             0.3       0.2       0.6       0.4
 4 C  dxz             0.1       0.0       0.3       0.7
 4 C  dyz             1.6       1.1       7.7       0.6
 4 C  dx2y2           0.1       1.3       3.9       0.3
 4 C  dxy             2.4       0.6       0.0       1.1
 5 C  s               0.2       0.1       0.0       0.0
 5 C  pz              0.5       1.1       0.3       0.6
 5 C  px              0.5       1.0       1.0       1.4
 5 C  py              0.5       1.3       0.2       0.1
 5 C  dz2             0.4      14.2       0.3       0.2
 5 C  dxz             4.9      14.5       1.7       3.7
 5 C  dyz             5.2       4.9       0.0       1.0
 5 C  dx2y2           0.6       4.9       2.4       1.8
 5 C  dxy             5.0       0.3      13.2      11.8
 6 C  s               0.8       0.1       0.4       0.8
 6 C  pz              0.5       0.2       0.2       0.3
 6 C  px              0.9       0.1       0.5       0.6
 6 C  py              0.3       0.3       0.2       0.2
 6 C  dz2             0.4       0.0       0.1       0.3
 6 C  dxz             4.4       0.8       0.9       2.7
 6 C  dyz             1.6       1.2       1.7       0.1
 6 C  dx2y2           1.4       0.8       0.1       1.6
 6 C  dxy             3.9       0.9       3.2       1.6
 7 C  s               0.1       1.1       0.0       0.1
 7 C  pz              0.1       1.8       0.1       0.1
 7 C  px              0.0       0.4       0.1       0.0
 7 C  py              0.1       0.6       0.0       0.0
 7 C  dz2             0.4       5.6       0.7       0.7
 7 C  dxz             0.0       5.7       0.2       0.1
 7 C  dyz             0.5       3.3       0.1       0.3
 7 C  dx2y2           0.2       0.0       0.0       0.0
 7 C  dxy             0.1       0.3       0.0       0.0
 9 H  s               0.3       0.0       0.1       0.1
11 H  s               0.4       0.0       0.0       0.0
12 H  s               0.2       0.3       0.1       0.0
13 H  s               0.1       0.1       0.1       0.0
15 H  s               0.2       0.0       0.2       0.0
16 H  s               0.4       0.0       0.0       0.0
18 H  s               0.1       0.0       0.0       0.1
19 H  s               0.1       0.0       0.2       0.0
20 H  s               0.0       0.2       0.0       0.0
21 H  s               0.0       0.1       0.1       0.0


                      *****************************
                      * MAYER POPULATION ANALYSIS *
                      *****************************

  NA   - Mulliken gross atomic population
  ZA   - Total nuclear charge
  QA   - Mulliken gross atomic charge
  VA   - Mayer's total valence
  BVA  - Mayer's bonded valence
  FA   - Mayer's free valence

  ATOM       NA         ZA         QA         VA         BVA        FA
  0 C      6.2686     6.0000    -0.2686     4.0219     4.0219    -0.0000
  1 C      6.1603     6.0000    -0.1603     4.1047     4.1047    -0.0000
  2 C      6.1418     6.0000    -0.1418     4.1656     4.1656    -0.0000
  3 H      0.9400     1.0000     0.0600     0.9498     0.9498    -0.0000
  4 C      6.2458     6.0000    -0.2458     3.9596     3.9596    -0.0000
  5 C      6.1587     6.0000    -0.1587     4.1986     4.1986     0.0000
  6 C      6.2409     6.0000    -0.2409     3.9657     3.9657     0.0000
  7 C      6.2616     6.0000    -0.2616     3.9582     3.9582     0.0000
  8 H      0.8907     1.0000     0.1093     0.9555     0.9555    -0.0000
  9 H      0.9005     1.0000     0.0995     0.9499     0.9499     0.0000
 10 H      0.9047     1.0000     0.0953     0.9590     0.9590     0.0000
 11 H      0.9169     1.0000     0.0831     0.9594     0.9594    -0.0000
 12 H      0.9222     1.0000     0.0778     0.9496     0.9496    -0.0000
 13 H      0.9056     1.0000     0.0944     0.9582     0.9582     0.0000
 14 H      0.9016     1.0000     0.0984     0.9667     0.9667     0.0000
 15 H      0.8998     1.0000     0.1002     0.9641     0.9641     0.0000
 16 H      0.9276     1.0000     0.0724     0.9497     0.9497     0.0000
 17 H      0.9009     1.0000     0.0991     0.9663     0.9663     0.0000
 18 H      0.9060     1.0000     0.0940     0.9599     0.9599     0.0000
 19 H      0.9052     1.0000     0.0948     0.9555     0.9555    -0.0000
 20 H      0.9037     1.0000     0.0963     0.9563     0.9563     0.0000
 21 H      0.8969     1.0000     0.1031     0.9626     0.9626     0.0000
 22 H      0.9000     1.0000     0.1000     0.9673     0.9673     0.0000

  Mayer bond orders larger than 0.100000
B(  0-C ,  1-C ) :   1.1599 B(  0-C ,  8-H ) :   0.9445 B(  0-C ,  9-H ) :   0.9496 
B(  0-C , 10-H ) :   0.9523 B(  1-C ,  2-C ) :   1.0904 B(  1-C , 11-H ) :   0.9142 
B(  1-C , 12-H ) :   0.9228 B(  2-C ,  3-H ) :   0.8935 B(  2-C ,  4-C ) :   1.1074 
B(  2-C ,  5-C ) :   1.0430 B(  4-C , 13-H ) :   0.9458 B(  4-C , 14-H ) :   0.9437 
B(  4-C , 15-H ) :   0.9463 B(  5-C ,  6-C ) :   1.1156 B(  5-C ,  7-C ) :   1.1050 
B(  5-C , 16-H ) :   0.8939 B(  6-C , 17-H ) :   0.9437 B(  6-C , 18-H ) :   0.9484 
B(  6-C , 19-H ) :   0.9493 B(  7-C , 20-H ) :   0.9492 B(  7-C , 21-H ) :   0.9455 
B(  7-C , 22-H ) :   0.9441 

-------
TIMINGS
-------

Total SCF time: 0 days 0 hours 0 min 7 sec 

Total time                  ....       7.534 sec
Sum of individual times     ....       7.086 sec  ( 94.1%)

SCF preparation             ....       0.171 sec  (  2.3%)
Fock matrix formation       ....       6.229 sec  ( 82.7%)
  Startup                   ....       0.051 sec  (  0.8% of F)
  Split-RI-J                ....       2.203 sec  ( 35.4% of F)
  XC integration            ....       3.559 sec  ( 57.1% of F)
    Basis function eval.    ....       1.310 sec  ( 36.8% of XC)
    Density eval.           ....       0.493 sec  ( 13.9% of XC)
    XC-Functional eval.     ....       0.304 sec  (  8.5% of XC)
    XC-Potential eval.      ....       0.792 sec  ( 22.3% of XC)
Diagonalization             ....       0.000 sec  (  0.0%)
Density matrix formation    ....       0.152 sec  (  2.0%)
Total Energy calculation    ....       0.028 sec  (  0.4%)
Population analysis         ....       0.073 sec  (  1.0%)
Orbital Transformation      ....       0.055 sec  (  0.7%)
Orbital Orthonormalization  ....       0.000 sec  (  0.0%)
DIIS solution               ....       0.307 sec  (  4.1%)
  MO trafo                  ....       0.000 sec  (  0.0 % of DIIS)
  Orb grad                  ....       0.000 sec  (  0.0 % of DIIS)
  Energy W gradient         ....       0.000 sec  (  0.0 % of DIIS)
  DIIS error                ....       0.003 sec  (  0.9 % of DIIS)
  DIIS work                 ....       0.264 sec  ( 85.9 % of DIIS)
  Form Q                    ....       0.000 sec  (  0.0 % of DIIS)
  Form QpQm                 ....       0.000 sec  (  0.0 % of DIIS)
  Exp/Cayley                ....       0.000 sec  (  0.0 % of DIIS)
  Orb update                ....       0.000 sec  (  0.0 % of DIIS)
  Wake-sleep                ....       0.016 sec  (  5.2 % of DIIS)
SOSCF solution              ....       0.072 sec  (  1.0%)
  MO trafo                  ....       0.041 sec  ( 57.6 % of SOSCF)
  Orb grad                  ....       0.001 sec  (  1.6 % of SOSCF)
  Rot update                ....       0.015 sec  ( 21.1 % of SOSCF)
  Step                      ....       0.014 sec  ( 19.6 % of SOSCF)
Finished LeanSCF after   7.6 sec

Maximum memory used throughout the entire LEANSCF-calculation: 13.3 MB


-------------------------------------------------------------------------------
                          DFT DISPERSION CORRECTION                            
                                                                               
                                DFTD4 V3.4.0                                   
-------------------------------------------------------------------------------
The PBE functional is recognized
Active option DFTDOPT                   ...         5   

-------------------------   ----------------
Dispersion correction           -0.019300065
-------------------------   ----------------

------------------   -----------------
gCP correction             0.096602799
------------------   -----------------

-------------------------   --------------------
FINAL SINGLE POINT ENERGY      -275.660949508482
-------------------------   --------------------


------------------------------------------------------------------------------
                              ORCA PROPERTY CALCULATIONS
------------------------------------------------------------------------------

GBWName                                 ... sp.gbw
Number of atoms                         ...     23
Number of basis functions               ...    130
Max core memory                         ...   1024 MB

Electric properties:
Dipole moment                           ... YES
Quadrupole moment                       ...  NO
Static polarizability (Dipole/Dipole)   ...  NO
Static polarizability (Dipole/Quad.)    ...  NO
Static polarizability (Quad./Quad.)     ...  NO
Static polarizability (Velocity)        ...  NO

Atomic electric properties:
Dipole moment                           ...  NO
Quadrupole moment                       ...  NO
Static polarizability                   ...  NO

Choice of electric origin               ... Center of mass
Position of electric origin             ...    -0.000001     0.000000     0.000001

General magnetic properties:
Magnetizability                         ...  NO

EPR properties:
g-Tensor (aka g-matrix)                 ...  NO
Zero-Field splitting spin-orbit         ...  NO
Zero-field splitting spin-spin          ...  NO
Hyperfine couplings                     ...  NO (   0 nuclei)
Quadrupole couplings                    ...  NO (   0 nuclei)
Contact density                         ...  NO (   0 nuclei)

NMR properties:
Chemical shifts                         ...  NO (   0 nuclei)
Spin-rotation constants                 ...  NO (   0 nuclei)
Spin-spin couplings                     ...  NO (   0 nuclei,    0 pairs)

Choice of magnetic origin               ... GIAO
Position of magnetic origin             ...     0.000000     0.000000     0.000000

Properties with geometric perturbations:
SCF Hessian                             ...  NO
IR spectrum                             ...  NO
VCD spectrum                            ...  NO
X-ray spectroscopy properties:
SCF XES/XAS/RIXS spectra                ...  NO


-------------
DIPOLE MOMENT
-------------

Method             : SCF
Type of density    : Electron Density
Multiplicity       :   1
Irrep              :   0
Energy             :  -275.7382522420776922 Eh
Relativity type    : 
Basis              : AO
                                X                 Y                 Z
Electronic contribution:      0.493698406      -0.154244905      -0.408347951
Nuclear contribution   :     -0.466963474       0.182894205       0.390945622
                        -----------------------------------------
Total Dipole Moment    :      0.026734932       0.028649300      -0.017402329
                        -----------------------------------------
Magnitude (a.u.)       :      0.042876334
Magnitude (Debye)      :      0.108982981



--------------------
Rotational spectrum 
--------------------
 
Rotational constants in cm-1:             0.104074             0.059927             0.051568 
Rotational constants in MHz :          3120.057795          1796.570304          1545.973337 

Dipole components along the rotational axes: 
x,y,z [a.u.] :     0.033380     0.024166    -0.011838 
x,y,z [Debye]:     0.084845     0.061426    -0.030091 

 

Dipole moment calculation done in   0.0 sec 

Maximum memory used throughout the entire PROP-calculation: 8.2 MB

--------------------------------
SUGGESTED CITATIONS FOR THIS RUN
--------------------------------

Below you find a list of papers that are relevant to this ORCA run
We neither can nor want to force you to cite these papers, but we appreciate if you do
You receive ORCA, which is the product of decades of hard work by many enthusiastic individuals, for free
The only thing we kindly ask in return is that you cite our papers,
We deeply appreciate it, if you show your appreciation for ORCA by not just citing the generic ORCA reference.

Please note that relegating all ORCA citations to the supporting information does *not* help us.
SI sections are not indexed - citations you put there will not count into any citation statistics
But we need these citations in order to attract the funding resources that allow us to do what we are doing

Therefore, if you are a happy ORCA user, please consider citing a few of the papers listed below in the main body of your paper

In addition to the list printed below, the program has created the file sp.bibtex that contains the list in bibtex format
You can import this file easily into all common literature databanks and citation aid programs


List of essential papers. We consider these as the minimum necessary citations

  1. Neese,F.
     Software update: the ORCA program system, version 5.0
     WIRES Comput. Molec. Sci., 2022 12(1)e1606
     doi.org/10.1002/wcms.1606

List of papers to cite with high priority. The work reported in these papers was absolutely
necessary for this run to complete.
Our perspective: the developers of density functionals and basis sets usually get cited in chemistry papers
Good! But without the algorithms to do something with them, the functionals or basis sets would not do anything.
Hence, in our opinion, the algorithm design and method developments papers are equally worthy of getting cited

  1. Neese,F.
     An improvement of the resolution of the identity approximation for the formation of the Coulomb matrix
     J. Comp. Chem., 2003 24(14)1740-1747
     doi.org/10.1002/jcc.10318
  2. Neese,F.
     The SHARK Integral Generation and Digestion System
     J. Comp. Chem., 2022  1-16
     doi.org/10.1002/jcc.26942
  3. Caldeweyher,E.; Bannwarth,C.; Grimme,S.
     Extension of the D3 dispersion coefficient model
     J. Chem. Phys., 2017 147 034112-XXXX
     doi.org/10.1063/1.4993215
  4. Caldeweyher,E.; Ehlert,S.; Hansen,A.; Neugebauer,H.; Spicher,S.; Bannwarth,C.; Grimme,S.
     A generally applicable atomic-charge dependent London dispersion correction
     J. Chem. Phys., 2019 150 154122-XXXX
     doi.org/10.1063/1.5090222
  5. Caldeweyher,E.; Mewes,J.; Ehlert,S.; Grimme,S.
     Extension and evaluation of the D4 London-dispersion model for periodic systems
     Phys. Chem. Chem. Phys., 2020 22(16)8499-8512
     doi.org/10.1039/D0CP00502A

List of suggested additional citations. These are papers that are important in the 'surrounding' of 
of this run, or papers that preceded the highly important papers. If you like your results we are grateful for a citation.

  1. Neese,F.
     The ORCA program system
     WIRES Comput. Molec. Sci., 2012 2(1)73-78
     doi.org/10.1002/wcms.81
  2. Neese,F.
     Software update: the ORCA program system, version 4.0
     WIRES Comput. Molec. Sci., 2018 8(1)1-6
     doi.org/10.1002/wcms.1327
  3. Neese,F.; Wennmohs,F.; Becker,U.; Riplinger,C.
     The ORCA quantum chemistry program package
     J. Chem. Phys., 2020 152 Art. No. L224108
     doi.org/10.1063/5.0004608

List of optional additional citations

  1. Neese,F.
     Approximate second-order SCF convergence for spin unrestricted wavefunctions
     Chem. Phys. Lett., 2000 325(1-3)93-98
     doi.org/10.1016/s0009-2614(00)00662-x

Timings for individual modules:

Sum of individual times          ...        9.323 sec (=   0.155 min)
Startup calculation              ...        0.803 sec (=   0.013 min)   8.6 %
SCF iterations                   ...        8.427 sec (=   0.140 min)  90.4 %
Property calculations            ...        0.093 sec (=   0.002 min)   1.0 %
                             ****ORCA TERMINATED NORMALLY****
TOTAL RUN TIME: 0 days 0 hours 0 minutes 10 seconds 40 msec
