
                                 *****************
                                 * O   R   C   A *
                                 *****************

                                            #,                                       
                                            ###                                      
                                            ####                                     
                                            #####                                    
                                            ######                                   
                                           ########,                                 
                                     ,,################,,,,,                         
                               ,,#################################,,                 
                          ,,##########################################,,             
                       ,#########################################, ''#####,          
                    ,#############################################,,   '####,        
                  ,##################################################,,,,####,       
                ,###########''''           ''''###############################       
              ,#####''   ,,,,##########,,,,          '''####'''          '####       
            ,##' ,,,,###########################,,,                        '##       
           ' ,,###''''                  '''############,,,                           
         ,,##''                                '''############,,,,        ,,,,,,###''
      ,#''                                            '''#######################'''  
     '                                                          ''''####''''         
             ,#######,   #######,   ,#######,      ##                                
            ,#'     '#,  ##    ##  ,#'     '#,    #''#        ,####,   ,####,        
            ##       ##  ##   ,#'  ##            #'  '#       #'       #'  '#        
            ##       ##  #######   ##           ,######,      #####,   #    #        
            '#,     ,#'  ##    ##  '#,     ,#' ,#      #,     #,   #   #,  ,#        
             '#######'   ##     ##  '#######'  #'      '#     '####' # '####'        



                #########################################################
                #                        -***-                          #
                #          Department of theory and spectroscopy        #
                #                                                       #
                #                      Frank Neese                      #
                #                                                       #
                #     Directorship, Architecture, Infrastructure        #
                #                    SHARK, DRIVERS                     #
                #        Core code/Algorithms in most modules           #
                #                                                       #
                #        Max Planck Institute fuer Kohlenforschung      #
                #                Kaiser Wilhelm Platz 1                 #
                #                 D-45470 Muelheim/Ruhr                 #
                #                      Germany                          #
                #                                                       #
                #                  All rights reserved                  #
                #                        -***-                          #
                #########################################################


                         Program Version 6.0.0  -   RELEASE  -


 With contributions from (in alphabetic order):
   Daniel Aravena         : Magnetic Suceptibility
   Michael Atanasov       : Ab Initio Ligand Field Theory (pilot matlab implementation)
   Alexander A. Auer      : GIAO ZORA, VPT2 properties, NMR spectrum
   Ute Becker             : All parallelization in ORCA, NUMFREQ, NUMCALC
   Giovanni Bistoni       : ED, misc. LED, open-shell LED, HFLD
   Martin Brehm           : Molecular dynamics
   Dmytro Bykov           : pre 5.0 version of the SCF Hessian
   Marcos Casanova-Páez   : Triplet and SCS-CIS(D). UHF-(DLPNO)-IP/EA/STEOM-CCSD. UHF-CVS-IP/STEOM-CCSD
   Vijay G. Chilkuri      : MRCI spin determinant printing, contributions to CSF-ICE
   Pauline Colinet        : FMM embedding
   Dipayan Datta          : RHF DLPNO-CCSD density
   Achintya Kumar Dutta   : EOM-CC, STEOM-CC
   Nicolas Foglia         : Exact transition moments, OPA infrastructure, MCD improvements
   Dmitry Ganyushin       : Spin-Orbit,Spin-Spin,Magnetic field MRCI
   Miquel Garcia          : C-PCM and meta-GGA Hessian, CCSD/C-PCM, Gaussian charge scheme
   Tiago L. C. Gouveia    : GS-ROHF, GS-ROCIS
   Yang Guo               : DLPNO-NEVPT2, F12-NEVPT2, CIM, IAO-localization
   Andreas Hansen         : Spin unrestricted coupled pair/coupled cluster methods
   Ingolf Harden          : AUTO-CI MPn and infrastructure 
   Benjamin Helmich-Paris : MC-RPA, TRAH-(SCF,CASSCF), AVAS, COSX integrals, SCF dyn. polar.
   Lee Huntington         : MR-EOM, pCC
   Robert Izsak           : Overlap fitted RIJCOSX, COSX-SCS-MP3, EOM
   Riya Kayal             : Wick's Theorem for AUTO-CI, AUTO-CI UHF-CCSDT
   Emily Kempfer          : AUTO-CI, RHF CISDT and CCSDT
   Christian Kollmar      : KDIIS, OOCD, Brueckner-CCSD(T), CCSD density, CASPT2, CASPT2-K, improved NEVPT2
   Axel Koslowski         : Symmetry handling
   Simone Kossmann        : Meta GGA functionals, TD-DFT gradient, OOMP2, (MP2 Hessian; deprecated post 5.0)
   Lucas Lang             : DCDCAS
   Marvin Lechner         : AUTO-CI (C++ implementation), FIC-MRCC
   Spencer Leger          : CASSCF response
   Dagmar Lenk            : GEPOL surface, SMD, ORCA-2-JSON
   Dimitrios Liakos       : Extrapolation schemes; Compound Job, initial MDCI parallelization
   Dimitrios Manganas     : Further ROCIS development; embedding schemes. LFT, Crystal Embedding
   Dimitrios Pantazis     : SARC Basis sets
   Anastasios Papadopoulos: AUTO-CI, single reference methods and gradients
   Taras Petrenko         : pre 6.0 DFT Hessian and TD-DFT gradient, (ASA, deprecated), ECA, 1-Electron XAS/XES, NRVS
   Peter Pinski           : DLPNO-MP2, DLPNO-MP2 Gradient
   Christoph Reimann      : Effective Core Potentials
   Marius Retegan         : Local ZFS, SOC
   Christoph Riplinger    : Optimizer, TS searches, QM/MM, DLPNO-CCSD(T), (RO)-DLPNO pert. Triples
   Michael Roemelt        : Original ROCIS implementation
   Masaaki Saitow         : Open-shell DLPNO-CCSD energy and density
   Barbara Sandhoefer     : DKH picture change effects
   Kantharuban Sivalingam : CASSCF convergence/infrastructure, NEVPT2 and variants, FIC-MRCI
   Bernardo de Souza      : ESD, SOC TD-DFT
   Georgi Stoychev        : AutoAux, RI-MP2 NMR, DLPNO-MP2 response, X2C
   Van Anh Tran           : RI-MP2 g-tensors
   Willem Van den Heuvel  : Paramagnetic NMR
   Zikuan Wang            : NOTCH, Electric field optimization 
   Frank Wennmohs         : Technical directorship and infrastructure
   Hang Xu                : AUTO-CI-Response properties 


 We gratefully acknowledge several colleagues who have allowed us to
 interface, adapt or use parts of their codes:
   Stefan Grimme, W. Hujo, H. Kruse, P. Pracht,  : VdW corrections, initial TS optimization,
                  C. Bannwarth, S. Ehlert,         DFT functionals, gCP, sTDA/sTD-DF
                  L. Wittmann, M. Mueller
   Ed Valeev, F. Pavosevic, A. Kumar             : LibInt (2-el integral package), F12 methods
   Garnet Chan, S. Sharma, J. Yang, R. Olivares  : DMRG
   Ulf Ekstrom                                   : XCFun DFT Library
   Mihaly Kallay                                 : mrcc  (arbitrary order and MRCC methods)
   Frank Weinhold                                : gennbo (NPA and NBO analysis)
   Simon Mueller                                 : openCOSMO-RS
   Christopher J. Cramer and Donald G. Truhlar   : smd solvation model
   Lars Goerigk                                  : TD-DFT with DH, B97 family of functionals
   V. Asgeirsson, H. Jonsson                     : NEB implementation
   FAccTs GmbH                                   : IRC, NEB, NEB-TS, DLPNO-Multilevel, CI-OPT
                                                   MM, QMMM, 2- and 3-layer-ONIOM, Crystal-QMMM,
                                                   LR-CPCM, SF, NACMEs, symmetry and pop. for TD-DFT,
                                                   nearIR, NL-DFT gradient (VV10), updates on ESD,
                                                   ML-optimized integration grids, MBIS, APM,
                                                   GOAT, DOCKER, SOLVATOR, interface openCOSMO-RS
   S Lehtola, MJT Oliveira, MAL Marques          : LibXC Library
   Liviu Ungur et al                             : ANISO software


 Your calculation uses the libint2 library for the computation of 2-el integrals
 For citations please refer to: http://libint.valeyev.net

 Your ORCA version has been built with support for libXC version: 6.2.2
 For citations please refer to: https://libxc.gitlab.io

 This ORCA versions uses:
   CBLAS   interface :  Fast vector & matrix operations
   LAPACKE interface :  Fast linear algebra routines
   SCALAPACK package :  Parallel linear algebra routines
   Shared memory     :  Shared parallel matrices
   BLAS/LAPACK       :  OpenBLAS 0.3.27  USE64BITINT DYNAMIC_ARCH NO_AFFINITY SkylakeX SINGLE_THREADED
        Core in use  :  SkylakeX
   Copyright (c) 2011-2014, The OpenBLAS Project


Your calculation utilizes the geometrical counterpoise correction gCP
Please cite in your paper:
H.Kruse, S. Grimme J.Chem.Phys., 136, (2012), 154101 
   

Your calculation utilizes the atom-pairwise dispersion correction
based on EEQ partial charges (D4)


================================================================================

----- Orbital basis set information -----
Your calculation utilizes the basis: def2-SV(P)
   F. Weigend and R. Ahlrichs, Phys. Chem. Chem. Phys. 7, 3297 (2005).

----- AuxJ basis set information -----
Your calculation utilizes the auxiliary basis: def2/J
   F. Weigend, Phys. Chem. Chem. Phys. 8, 1057 (2006).

================================================================================
                                        WARNINGS
                       Please study these warnings very carefully!
================================================================================


================================================================================
                                       INPUT FILE
================================================================================
NAME = sp.inp
|  1> ! pbe def2-sv(p) def2/J RI DEFGRID1 loosescf d4 GCP(DFT/SV(P)) printgap
|  2> %output
|  3>     printlevel normal
|  4> end
|  5> * xyz 0 1
|  6> C -2.6556647528 0.4117056312 0.5792920077
|  7> C -1.7066817328 0.4565401231 -0.6222807762
|  8> C -0.4179324801 -0.232639048 -0.2559776527
|  9> O -0.1994930995 -1.4172304161 -0.4046501833
| 10> O 0.4425795225 0.6112554263 0.298157181
| 11> C 1.7111103431 0.1044651822 0.7451172972
| 12> C 2.728822258 0.0997044674 -0.3851877942
| 13> H -2.2184743044 0.9366415853 1.4248075267
| 14> H -3.597816413 0.8849123646 0.3200912553
| 15> H -2.8480985095 -0.618950824 0.8680607771
| 16> H -1.4914876526 1.4902091899 -0.8880111838
| 17> H -2.151731353 -0.0675161049 -1.4672404823
| 18> H 2.0106246962 0.7811076822 1.5460193038
| 19> H 1.5648215443 -0.9073045126 1.1354312711
| 20> H 2.4137150775 -0.5880068327 -1.1668289439
| 21> H 2.8239357939 1.0964042741 -0.8073826404
| 22> H 3.6916172503 -0.2209481165 -0.0009657698
| 23> *
| 24> 
| 25>                          ****END OF INPUT****
================================================================================

                       ****************************
                       * Single Point Calculation *
                       ****************************

---------------------------------
CARTESIAN COORDINATES (ANGSTROEM)
---------------------------------
  C     -2.655665    0.411706    0.579292
  C     -1.706682    0.456540   -0.622281
  C     -0.417932   -0.232639   -0.255978
  O     -0.199493   -1.417230   -0.404650
  O      0.442580    0.611255    0.298157
  C      1.711110    0.104465    0.745117
  C      2.728822    0.099704   -0.385188
  H     -2.218474    0.936642    1.424808
  H     -3.597816    0.884912    0.320091
  H     -2.848099   -0.618951    0.868061
  H     -1.491488    1.490209   -0.888011
  H     -2.151731   -0.067516   -1.467240
  H      2.010625    0.781108    1.546019
  H      1.564822   -0.907305    1.135431
  H      2.413715   -0.588007   -1.166829
  H      2.823936    1.096404   -0.807383
  H      3.691617   -0.220948   -0.000966

----------------------------
CARTESIAN COORDINATES (A.U.)
----------------------------
  NO LB      ZA    FRAG     MASS         X           Y           Z
   0 C     6.0000    0    12.011   -5.018479    0.778011    1.094703
   1 C     6.0000    0    12.011   -3.225161    0.862736   -1.175940
   2 C     6.0000    0    12.011   -0.789778   -0.439624   -0.483728
   3 O     8.0000    0    15.999   -0.376987   -2.678177   -0.764678
   4 O     8.0000    0    15.999    0.836354    1.155105    0.563435
   5 C     6.0000    0    12.011    3.233530    0.197411    1.408068
   6 C     6.0000    0    12.011    5.156727    0.188414   -0.727899
   7 H     1.0000    0     1.008   -4.192309    1.769996    2.692496
   8 H     1.0000    0     1.008   -6.798888    1.672242    0.604885
   9 H     1.0000    0     1.008   -5.382126   -1.169648    1.640397
  10 H     1.0000    0     1.008   -2.818503    2.816087   -1.678098
  11 H     1.0000    0     1.008   -4.066183   -0.127587   -2.772683
  12 H     1.0000    0     1.008    3.799530    1.476080    2.921553
  13 H     1.0000    0     1.008    2.957084   -1.714557    2.145654
  14 H     1.0000    0     1.008    4.561260   -1.111172   -2.204987
  15 H     1.0000    0     1.008    5.336465    2.071904   -1.525732
  16 H     1.0000    0     1.008    6.976146   -0.417531   -0.001825

--------------------------------
INTERNAL COORDINATES (ANGSTROEM)
--------------------------------
 C      0   0   0     0.000000000000     0.00000000     0.00000000
 C      1   0   0     1.531781988052     0.00000000     0.00000000
 C      2   1   0     1.506658735248   109.01555617     0.00000000
 O      3   2   1     1.213703420828   124.79321623    89.49089561
 O      3   2   1     1.326538429256   111.43428674   271.70891157
 C      5   3   2     1.437282206040   118.56256040   178.12688138
 C      6   5   3     1.520970021328   111.13468680    86.44719245
 H      1   2   3     1.087009538573   110.29477716    61.34286143
 H      1   2   3     1.085706863475   109.72963041   181.33505833
 H      1   2   3     1.087506727126   110.22185403   301.18212163
 H      2   1   3     1.088757494273   109.98002508   240.62201429
 H      2   1   3     1.089339708024   109.95377788   118.87774995
 H      6   5   3     1.090411823439   104.59803882   206.70764268
 H      6   5   3     1.094268397694   108.59951994   324.58666861
 H      7   6   5     1.087751007534   110.00840181   295.66401257
 H      7   6   5     1.086602768975   110.14796712    55.87880146
 H      7   6   5     1.085089323878   109.35920546   176.04996467

---------------------------
INTERNAL COORDINATES (A.U.)
---------------------------
 C      0   0   0     0.000000000000     0.00000000     0.00000000
 C      1   0   0     2.894648454292     0.00000000     0.00000000
 C      2   1   0     2.847172386899   109.01555617     0.00000000
 O      3   2   1     2.293567073168   124.79321623    89.49089561
 O      3   2   1     2.506794337416   111.43428674   271.70891157
 C      5   3   2     2.716069746575   118.56256040   178.12688138
 C      6   5   3     2.874216798215   111.13468680    86.44719245
 H      1   2   3     2.054150332863   110.29477716    61.34286143
 H      1   2   3     2.051688633687   109.72963041   181.33505833
 H      1   2   3     2.055089883065   110.22185403   301.18212163
 H      2   1   3     2.057453490430   109.98002508   240.62201429
 H      2   1   3     2.058553714972   109.95377788   118.87774995
 H      6   5   3     2.060579719489   104.59803882   206.70764268
 H      6   5   3     2.067867588646   108.59951994   324.58666861
 H      7   6   5     2.055551506137   110.00840181   295.66401257
 H      7   6   5     2.053381649724   110.14796712    55.87880146
 H      7   6   5     2.050521652971   109.35920546   176.04996467

---------------------
BASIS SET INFORMATION
---------------------
There are 3 groups of distinct atoms

 Group   1 Type C   : 7s4p1d contracted to 3s2p1d pattern {511/31/1}
 Group   2 Type O   : 7s4p1d contracted to 3s2p1d pattern {511/31/1}
 Group   3 Type H   : 4s contracted to 2s pattern {31}

Atom   0C    basis set group =>   1
Atom   1C    basis set group =>   1
Atom   2C    basis set group =>   1
Atom   3O    basis set group =>   2
Atom   4O    basis set group =>   2
Atom   5C    basis set group =>   1
Atom   6C    basis set group =>   1
Atom   7H    basis set group =>   3
Atom   8H    basis set group =>   3
Atom   9H    basis set group =>   3
Atom  10H    basis set group =>   3
Atom  11H    basis set group =>   3
Atom  12H    basis set group =>   3
Atom  13H    basis set group =>   3
Atom  14H    basis set group =>   3
Atom  15H    basis set group =>   3
Atom  16H    basis set group =>   3
---------------------------------
AUXILIARY/J BASIS SET INFORMATION
---------------------------------
There are 3 groups of distinct atoms

 Group   1 Type C   : 12s5p4d2f1g contracted to 6s4p3d1f1g pattern {711111/2111/211/2/1}
 Group   2 Type O   : 12s5p4d2f1g contracted to 6s4p3d1f1g pattern {711111/2111/211/2/1}
 Group   3 Type H   : 5s2p1d contracted to 3s1p1d pattern {311/2/1}

Atom   0C    basis set group =>   1
Atom   1C    basis set group =>   1
Atom   2C    basis set group =>   1
Atom   3O    basis set group =>   2
Atom   4O    basis set group =>   2
Atom   5C    basis set group =>   1
Atom   6C    basis set group =>   1
Atom   7H    basis set group =>   3
Atom   8H    basis set group =>   3
Atom   9H    basis set group =>   3
Atom  10H    basis set group =>   3
Atom  11H    basis set group =>   3
Atom  12H    basis set group =>   3
Atom  13H    basis set group =>   3
Atom  14H    basis set group =>   3
Atom  15H    basis set group =>   3
Atom  16H    basis set group =>   3
------------------------------------------------------------------------------
                             ORCA STARTUP CALCULATIONS
                           -- RI-GTO INTEGRALS CHOSEN --
------------------------------------------------------------------------------
------------------------------------------------------------------------------
                   ___                                                        
                  /   \      - P O W E R E D   B Y -                         
                 /     \                                                     
                 |  |  |   _    _      __       _____    __    __             
                 |  |  |  | |  | |    /  \     |  _  \  |  |  /  |          
                  \  \/   | |  | |   /    \    | | | |  |  | /  /          
                 / \  \   | |__| |  /  /\  \   | |_| |  |  |/  /          
                |  |  |   |  __  | /  /__\  \  |    /   |      \           
                |  |  |   | |  | | |   __   |  |    \   |  |\   \          
                \     /   | |  | | |  |  |  |  | |\  \  |  | \   \       
                 \___/    |_|  |_| |__|  |__|  |_| \__\ |__|  \__/        
                                                                              
                      - O R C A' S   B I G   F R I E N D -                    
                                      &                                       
                       - I N T E G R A L  F E E D E R -                       
                                                                              
 v1 FN, 2020, v2 2021, v3 2022-2024                                           
------------------------------------------------------------------------------


----------------------
SHARK INTEGRAL PACKAGE
----------------------

Number of atoms                             ...     17
Number of basis functions                   ...    118
Number of shells                            ...     62
Maximum angular momentum                    ...      2
Integral batch strategy                     ... SHARK/LIBINT Hybrid
RI-J (if used) integral strategy            ... SPLIT-RIJ (Revised 2003 algorithm where possible)
Printlevel                                  ...      1
Contraction scheme used                     ... SEGMENTED contraction
Prescreening option                         ... SCHWARTZ
   Thresh                                   ... 1.000e-09
   Tcut                                     ... 1.000e-10
   Tpresel                                  ... 1.000e-10 
Coulomb Range Separation                    ... NOT USED
Exchange Range Separation                   ... NOT USED
Multipole approximations                    ... NOT USED
Finite Nucleus Model                        ... NOT USED
CABS basis                                  ... NOT available
Auxiliary Coulomb fitting basis             ... AVAILABLE
   # of basis functions in Aux-J            ...    453
   # of shells in Aux-J                     ...    155
   Maximum angular momentum in Aux-J        ...      4
Auxiliary J/K fitting basis                 ... NOT available
Auxiliary Correlation fitting basis         ... NOT available
Auxiliary 'external' fitting basis          ... NOT available

Checking pre-screening integrals            ... done (  0.0 sec) Dimension = 62
Check shell pair data                       ... done (  0.0 sec)
Shell pair information
Shell pair cut-off parameter TPreSel        ...   1.0e-10
Total number of shell pairs                 ...      1953
Shell pairs after pre-screening             ...      1842
Total number of primitive shell pairs       ...      7871
Primitive shell pairs kept                  ...      5231
          la=0 lb=0:    796 shell pairs
          la=1 lb=0:    555 shell pairs
          la=1 lb=1:    104 shell pairs
          la=2 lb=0:    264 shell pairs
          la=2 lb=1:     96 shell pairs
          la=2 lb=2:     27 shell pairs

Calculating one electron integrals          ... done (  0.0 sec)
Calculating RI/J V-Matrix + Cholesky decomp.... done (  0.1 sec)
Calculating Nuclear repulsion               ... done (  0.0 sec) ENN=    318.290087093130 Eh

Diagonalization of the overlap matrix:
Smallest eigenvalue                        ... 2.172e-03
Time for diagonalization                   ...    0.001 sec
Threshold for overlap eigenvalues          ... 1.000e-07
Number of eigenvalues below threshold      ... 0
Time for construction of square roots      ...    0.018 sec
Total time needed                          ...    0.027 sec

-------------------
DFT GRID GENERATION
-------------------

General Integration Accuracy     IntAcc      ... 4.159
Radial Grid Type                 RadialGrid  ... OptM3 with GC (2021)
Angular Grid (max. ang.)         AngularGrid ... 3 (Lebedev-194)
Angular grid pruning method      GridPruning ... 4 (adaptive)
Weight generation scheme         WeightScheme... mBecke (2022)
Basis function cutoff            BFCut       ... 1.0000e-10
Integration weight cutoff        WCut        ... 1.0000e-14
Partially contracted basis set               ... off
Rotationally invariant grid construction     ... off
Angular grids for H and He will be reduced by one unit

Total number of grid points                  ...    37112
Total number of batches                      ...      588
Average number of points per batch           ...       63
Average number of grid points per atom       ...     2183
Initializing property integral containers    ... done (  0.0 sec)

SHARK setup successfully completed in   0.6 seconds

Maximum memory used throughout the entire STARTUP-calculation: 18.3 MB
-------------------------------------------------------------------------------
                                 ORCA GUESS
                   Start orbitals & Density for SCF / CASSCF
-------------------------------------------------------------------------------

------------
SCF SETTINGS
------------
Hamiltonian:
 Density Functional     Method          .... DFT(GTOs)
 Exchange Functional    Exchange        .... PBE
   PBE kappa parameter   XKappa         ....  0.804000
   PBE mue parameter    XMuePBE         ....  0.219520
 Correlation Functional Correlation     .... PBE
   PBE beta parameter  CBetaPBE         ....  0.066725
 LDA part of GGA corr.  LDAOpt          .... PW91-LDA
 Gradients option       PostSCFGGA      .... off
   NL short-range parameter             ....  6.400000
 RI-approximation to the Coulomb term is turned on
   Number of AuxJ basis functions       .... 453


General Settings:
 Integral files         IntName         .... sp
 Hartree-Fock type      HFTyp           .... RHF
 Total Charge           Charge          ....    0
 Multiplicity           Mult            ....    1
 Number of Electrons    NEL             ....   56
 Basis Dimension        Dim             ....  118
 Nuclear Repulsion      ENuc            ....    318.2900870931 Eh

Convergence Acceleration:
 AO-DIIS                CNVDIIS         .... on
   Start iteration      DIISMaxIt       ....    12
   Startup error        DIISStart       ....  0.200000
   # of expansion vecs  DIISMaxEq       ....     5
   Bias factor          DIISBfac        ....   1.050
   Max. coefficient     DIISMaxC        ....  10.000
 MO-DIIS                CNVKDIIS        .... off
 Trust-Rad. Augm. Hess. CNVTRAH         .... auto
   Auto Start mean grad. ratio tolernc. ....  1.125000
   Auto Start start iteration           ....    50
   Auto Start num. interpolation iter.  ....    10
   Max. Number of Micro iterations      ....    24
   Max. Number of Macro iterations      .... Maxiter - #DIIS iter
   Number of Davidson start vectors     ....     2
   Converg. threshold    (grad. norm)   ....   1.000e-04
   Grad. Scal. Fac. for Micro threshold ....   0.100
   Minimum threshold for Micro iter.    ....   1.000e-02
   NR start threshold (gradient norm)   ....   1.000e-04
   Initial trust radius                 ....   0.400
   Minimum AH scaling param. (alpha)    ....   1.000
   Maximum AH scaling param. (alpha)    .... 1000.000
   Quad. conv. algorithm                .... NR
   White noise on init. David. guess    .... on
   Maximum white noise                  ....   0.010
   Pseudo random numbers                .... off
   Inactive MOs                         .... canonical
   Orbital update algorithm             .... Taylor
   Preconditioner                       .... Diag
   Full preconditioner red. dimension   ....   250
 SOSCF                  CNVSOSCF        .... on
   Start iteration      SOSCFMaxIt      ....   150
   Startup grad/error   SOSCFStart      ....  0.003300
   Hessian update       SOSCFHessUp     .... L-BFGS
 Level Shifting         CNVShift        .... on
   Level shift para.    LevelShift      ....    0.2500
   Turn off err/grad.   ShiftErr        ....    0.0010
 Zerner damping         CNVZerner       .... off
 Static damping         CNVDamp         .... on
   Fraction old density DampFac         ....    0.7000
   Max. Damping (<1)    DampMax         ....    0.9800
   Min. Damping (>=0)   DampMin         ....    0.0000
   Turn off err/grad.   DampErr         ....    0.1000

SCF Procedure:
 Maximum # iterations   MaxIter         ....   125
 SCF integral mode      SCFMode         .... Direct
   Integral package                     .... SHARK and LIBINT hybrid scheme
 Reset frequency        DirectResetFreq ....    20
 Integral Threshold     Thresh          ....  1.000e-09 Eh
 Primitive CutOff       TCut            ....  1.000e-10 Eh

Convergence Tolerance:
 Convergence Check Mode ConvCheckMode   .... Total+1el-Energy
 Convergence forced     ConvForced      .... 0
 Energy Change          TolE            ....  1.000e-05 Eh
 1-El. energy change                    ....  1.000e-02 Eh
 Orbital Gradient       TolG            ....  1.000e-04
 Orbital Rotation angle TolX            ....  1.000e-04
 DIIS Error             TolErr          ....  5.000e-04

------------------------------
INITIAL GUESS: MODEL POTENTIAL
------------------------------
Loading Hartree-Fock densities                     ... done
Calculating cut-offs                               ... done
Initializing the effective Hamiltonian             ... done
Setting up the integral package (SHARK)            ... done
Starting the Coulomb interaction                   ... done (   0.1 sec)
Making the grid                                    ... done (   0.2 sec)
Mapping shells                                     ... done
Starting the XC term evaluation                    ... done (   0.1 sec)
  promolecular density results
     # of electrons  =     55.994448322
     EX              =    -44.830418703
     EC              =     -1.842430502
     EX+EC           =    -46.672849205
Transforming the Hamiltonian                       ... done (   0.0 sec)
Diagonalizing the Hamiltonian                      ... done (   0.0 sec)
Back transforming the eigenvectors                 ... done (   0.0 sec)
Now organizing SCF variables                       ... done
                      ------------------
                      INITIAL GUESS DONE (   0.4 sec)
                      ------------------
             **** ENERGY FILE WAS UPDATED (sp.en.tmp) ****
Finished Guess after   0.6 sec
Maximum memory used throughout the entire GUESS-calculation: 14.0 MB

-------------------------------------------------------------------------------------------
                                      ORCA LEAN-SCF
                              memory conserving SCF solver
-------------------------------------------------------------------------------------------

----------------------------------------D-I-I-S--------------------------------------------
Iteration    Energy (Eh)           Delta-E    RMSDP     MaxDP     DIISErr   Damp  Time(sec)
-------------------------------------------------------------------------------------------
               ***  Starting incremental Fock matrix formation  ***
    1    -346.0921490065015860     0.00e+00  5.17e-03  1.02e-01  2.48e-01  0.700   0.7
    2    -346.2017592975170146    -1.10e-01  3.18e-03  5.15e-02  7.50e-02  0.700   0.7
                               ***Turning on AO-DIIS***
    3    -346.2350514434729121    -3.33e-02  1.28e-03  1.36e-02  2.27e-02  0.700   0.7
    4    -346.2570430501273222    -2.20e-02  1.81e-03  2.18e-02  1.67e-02  0.000   0.7
    5    -346.3081129609431628    -5.11e-02  5.72e-04  6.31e-03  8.91e-03  0.000   0.7
                              *** Initializing SOSCF ***
---------------------------------------S-O-S-C-F--------------------------------------
Iteration    Energy (Eh)           Delta-E    RMSDP     MaxDP     MaxGrad    Time(sec)
--------------------------------------------------------------------------------------
    6    -346.3087449448137249    -6.32e-04  2.10e-04  2.40e-03  3.01e-03     0.7
               *** Restarting incremental Fock matrix formation ***
    7    -346.3087893860179065    -4.44e-05  1.66e-04  2.83e-03  6.13e-04     0.7
    8    -346.3087702223568840     1.92e-05  9.19e-05  2.18e-03  1.82e-03     0.6
    9    -346.3087954402169544    -2.52e-05  6.95e-05  1.15e-03  2.98e-04     0.6
   10    -346.3087917643349556     3.68e-06  4.14e-05  7.59e-04  4.63e-04     0.6
                 **** Energy Check signals convergence ****

               *****************************************************
               *                     SUCCESS                       *
               *           SCF CONVERGED AFTER  10 CYCLES          *
               *****************************************************

             **** ENERGY FILE WAS UPDATED (sp.en.tmp) ****

----------------
TOTAL SCF ENERGY
----------------

Total Energy       :       -346.30879176433496 Eh           -9423.54131 eV

Components:
Nuclear Repulsion  :        318.29008709313007 Eh            8661.11359 eV
Electronic Energy  :       -664.59887885746502 Eh          -18084.65490 eV
One Electron Energy:      -1101.23064707247272 Eh          -29966.00935 eV
Two Electron Energy:        436.63176821500770 Eh           11881.35445 eV

Virial components:
Potential Energy   :       -689.87437304081823 Eh          -18772.43606 eV
Kinetic Energy     :        343.56558127648327 Eh            9348.89476 eV
Virial Ratio       :          2.00798453232032

DFT components:
N(Alpha)           :       27.999910346532 electrons
N(Beta)            :       27.999910346532 electrons
N(Total)           :       55.999820693063 electrons
E(X)               :      -45.742405250084 Eh       
E(C)               :       -1.859026509963 Eh       
E(XC)              :      -47.601431760046 Eh       

---------------
SCF CONVERGENCE
---------------

  Last Energy change         ...   -3.6759e-06  Tolerance :   1.0000e-05
  Last MAX-Density change    ...    7.5910e-04  Tolerance :   1.0000e-03
  Last RMS-Density change    ...    4.1364e-05  Tolerance :   1.0000e-04
  Last DIIS Error            ...    3.0054e-03  Tolerance :   5.0000e-04
  Last Orbital Gradient      ...    4.6268e-04  Tolerance :   1.0000e-04
  Last Orbital Rotation      ...    3.9108e-04  Tolerance :   1.0000e-04


----------------
ORBITAL ENERGIES
----------------

  NO   OCC          E(Eh)            E(eV) 
   0   2.0000     -18.796959      -511.4913 
   1   2.0000     -18.729781      -509.6632 
   2   2.0000     -10.003718      -272.2150 
   3   2.0000      -9.946060      -270.6461 
   4   2.0000      -9.898127      -269.3417 
   5   2.0000      -9.887796      -269.0606 
   6   2.0000      -9.886126      -269.0152 
   7   2.0000      -1.003521       -27.3072 
   8   2.0000      -0.907144       -24.6846 
   9   2.0000      -0.721239       -19.6259 
  10   2.0000      -0.686203       -18.6725 
  11   2.0000      -0.606507       -16.5039 
  12   2.0000      -0.563015       -15.3204 
  13   2.0000      -0.496260       -13.5039 
  14   2.0000      -0.452178       -12.3044 
  15   2.0000      -0.426338       -11.6012 
  16   2.0000      -0.416772       -11.3409 
  17   2.0000      -0.398700       -10.8492 
  18   2.0000      -0.384178       -10.4540 
  19   2.0000      -0.368392       -10.0245 
  20   2.0000      -0.349294        -9.5048 
  21   2.0000      -0.341009        -9.2793 
  22   2.0000      -0.323536        -8.8039 
  23   2.0000      -0.315728        -8.5914 
  24   2.0000      -0.312545        -8.5048 
  25   2.0000      -0.289251        -7.8709 
  26   2.0000      -0.254348        -6.9212 
  27   2.0000      -0.214865        -5.8468 
  28   0.0000      -0.019062        -0.5187 
  29   0.0000       0.045983         1.2513 
  30   0.0000       0.057364         1.5609 
  31   0.0000       0.082146         2.2353 
  32   0.0000       0.087959         2.3935 
  33   0.0000       0.092271         2.5108 
  34   0.0000       0.098590         2.6828 
  35   0.0000       0.105346         2.8666 
  36   0.0000       0.116123         3.1599 
  37   0.0000       0.123409         3.3581 
  38   0.0000       0.132852         3.6151 
*Only the first 10 virtual orbitals were printed.

                    ********************************
                    * MULLIKEN POPULATION ANALYSIS *
                    ********************************

-----------------------
MULLIKEN ATOMIC CHARGES
-----------------------
   0 C :   -0.303435
   1 C :   -0.129578
   2 C :    0.098881
   3 O :   -0.215172
   4 O :   -0.242361
   5 C :   -0.011814
   6 C :   -0.304097
   7 H :    0.111796
   8 H :    0.116199
   9 H :    0.118033
  10 H :    0.099291
  11 H :    0.105183
  12 H :    0.100031
  13 H :    0.106283
  14 H :    0.127034
  15 H :    0.112290
  16 H :    0.111435
Sum of atomic charges:   -0.0000000

--------------------------------
MULLIKEN REDUCED ORBITAL CHARGES
--------------------------------
  0 C s       :     3.113641  s :     3.113641
      pz      :     1.029376  p :     3.160250
      px      :     1.042934
      py      :     1.087939
      dz2     :     0.006263  d :     0.029545
      dxz     :     0.005911
      dyz     :     0.006122
      dx2y2   :     0.006199
      dxy     :     0.005049

  1 C s       :     3.018624  s :     3.018624
      pz      :     1.054478  p :     3.077344
      px      :     1.002901
      py      :     1.019964
      dz2     :     0.007006  d :     0.033609
      dxz     :     0.006633
      dyz     :     0.006601
      dx2y2   :     0.007138
      dxy     :     0.006231

  2 C s       :     3.058298  s :     3.058298
      pz      :     0.859268  p :     2.711821
      px      :     0.937987
      py      :     0.914567
      dz2     :     0.011716  d :     0.130999
      dxz     :     0.010968
      dyz     :     0.030771
      dx2y2   :     0.029009
      dxy     :     0.048535

  3 O s       :     3.750087  s :     3.750087
      pz      :     1.450073  p :     4.447602
      px      :     1.676432
      py      :     1.321097
      dz2     :     0.002019  d :     0.017482
      dxz     :     0.000306
      dyz     :     0.005124
      dx2y2   :     0.005735
      dxy     :     0.004298

  4 O s       :     3.730144  s :     3.730144
      pz      :     1.605287  p :     4.496117
      px      :     1.289493
      py      :     1.601337
      dz2     :     0.002205  d :     0.016100
      dxz     :     0.002450
      dyz     :     0.003080
      dx2y2   :     0.003034
      dxy     :     0.005331

  5 C s       :     3.072231  s :     3.072231
      pz      :     1.056961  p :     2.880603
      px      :     0.786262
      py      :     1.037380
      dz2     :     0.008331  d :     0.058980
      dxz     :     0.013176
      dyz     :     0.011084
      dx2y2   :     0.015473
      dxy     :     0.010916

  6 C s       :     3.101494  s :     3.101494
      pz      :     1.054570  p :     3.174700
      px      :     1.033246
      py      :     1.086884
      dz2     :     0.003531  d :     0.027904
      dxz     :     0.006147
      dyz     :     0.008478
      dx2y2   :     0.006726
      dxy     :     0.003022

  7 H s       :     0.888204  s :     0.888204

  8 H s       :     0.883801  s :     0.883801

  9 H s       :     0.881967  s :     0.881967

 10 H s       :     0.900709  s :     0.900709

 11 H s       :     0.894817  s :     0.894817

 12 H s       :     0.899969  s :     0.899969

 13 H s       :     0.893717  s :     0.893717

 14 H s       :     0.872966  s :     0.872966

 15 H s       :     0.887710  s :     0.887710

 16 H s       :     0.888565  s :     0.888565


------------------------
MULLIKEN OVERLAP CHARGES
------------------------
B(  0-C ,  1-C ) :   0.9164 B(  0-C ,  2-C ) :  -0.0663 B(  0-C ,  7-H ) :   0.7561 
B(  0-C ,  8-H ) :   0.7523 B(  0-C ,  9-H ) :   0.7532 B(  1-C ,  2-C ) :   0.7055 
B(  1-C ,  3-O ) :  -0.1668 B(  1-C ,  4-O ) :  -0.2436 B(  1-C ,  7-H ) :  -0.0670 
B(  1-C ,  9-H ) :  -0.0696 B(  1-C , 10-H ) :   0.6138 B(  1-C , 11-H ) :   0.6484 
B(  2-C ,  3-O ) :   1.3354 B(  2-C ,  4-O ) :   0.7069 B(  2-C ,  5-C ) :  -0.0537 
B(  3-O ,  4-O ) :  -0.1745 B(  3-O , 13-H ) :   0.0538 B(  4-O ,  5-C ) :   0.5231 
B(  4-O ,  6-C ) :  -0.0759 B(  4-O , 12-H ) :  -0.0562 B(  4-O , 13-H ) :  -0.0669 
B(  5-C ,  6-C ) :   0.9433 B(  5-C , 12-H ) :   0.7343 B(  5-C , 13-H ) :   0.7087 
B(  6-C , 12-H ) :  -0.0581 B(  6-C , 13-H ) :  -0.0627 B(  6-C , 14-H ) :   0.7426 
B(  6-C , 15-H ) :   0.7387 B(  6-C , 16-H ) :   0.7119 B(  7-H ,  9-H ) :  -0.0501 
B( 12-H , 13-H ) :  -0.0621 B( 14-H , 15-H ) :  -0.0525 


                     *******************************
                     * LOEWDIN POPULATION ANALYSIS *
                     *******************************

----------------------
LOEWDIN ATOMIC CHARGES
----------------------
   0 C :   -0.329957
   1 C :   -0.249403
   2 C :    0.037080
   3 O :   -0.174863
   4 O :   -0.069332
   5 C :   -0.113084
   6 C :   -0.356093
   7 H :    0.122273
   8 H :    0.123771
   9 H :    0.125738
  10 H :    0.130056
  11 H :    0.134644
  12 H :    0.116212
  13 H :    0.118647
  14 H :    0.130583
  15 H :    0.123919
  16 H :    0.129808

-------------------------------
LOEWDIN REDUCED ORBITAL CHARGES
-------------------------------
  0 C s       :     2.946171  s :     2.946171
      pz      :     1.087146  p :     3.313017
      px      :     1.090844
      py      :     1.135027
      dz2     :     0.014517  d :     0.070770
      dxz     :     0.016110
      dyz     :     0.013601
      dx2y2   :     0.015104
      dxy     :     0.011438

  1 C s       :     2.916052  s :     2.916052
      pz      :     1.090540  p :     3.249493
      px      :     1.061618
      py      :     1.097335
      dz2     :     0.016433  d :     0.083858
      dxz     :     0.018904
      dyz     :     0.014674
      dx2y2   :     0.017958
      dxy     :     0.015888

  2 C s       :     2.848103  s :     2.848103
      pz      :     0.851094  p :     2.817356
      px      :     0.956359
      py      :     1.009902
      dz2     :     0.025484  d :     0.297461
      dxz     :     0.021749
      dyz     :     0.066098
      dx2y2   :     0.069039
      dxy     :     0.115091

  3 O s       :     3.552035  s :     3.552035
      pz      :     1.452504  p :     4.591960
      px      :     1.681122
      py      :     1.458334
      dz2     :     0.004295  d :     0.030868
      dxz     :     0.000373
      dyz     :     0.007044
      dx2y2   :     0.012073
      dxy     :     0.007083

  4 O s       :     3.449461  s :     3.449461
      pz      :     1.608404  p :     4.587079
      px      :     1.334493
      py      :     1.644182
      dz2     :     0.003860  d :     0.032791
      dxz     :     0.005970
      dyz     :     0.005203
      dx2y2   :     0.006472
      dxy     :     0.011286

  5 C s       :     2.924494  s :     2.924494
      pz      :     1.082985  p :     3.057067
      px      :     0.868301
      py      :     1.105780
      dz2     :     0.017109  d :     0.131523
      dxz     :     0.033019
      dyz     :     0.024878
      dx2y2   :     0.034296
      dxy     :     0.022221

  6 C s       :     2.951992  s :     2.951992
      pz      :     1.106270  p :     3.335406
      px      :     1.095387
      py      :     1.133749
      dz2     :     0.008405  d :     0.068694
      dxz     :     0.017228
      dyz     :     0.019584
      dx2y2   :     0.016972
      dxy     :     0.006506

  7 H s       :     0.877727  s :     0.877727

  8 H s       :     0.876229  s :     0.876229

  9 H s       :     0.874262  s :     0.874262

 10 H s       :     0.869944  s :     0.869944

 11 H s       :     0.865356  s :     0.865356

 12 H s       :     0.883788  s :     0.883788

 13 H s       :     0.881353  s :     0.881353

 14 H s       :     0.869417  s :     0.869417

 15 H s       :     0.876081  s :     0.876081

 16 H s       :     0.870192  s :     0.870192


---------------------------------
LOEWDIN BOND ORDERS (THRESH 0.050000)
---------------------------------
B(  0-C ,  1-C ) :   1.1103 B(  0-C ,  2-C ) :   0.0703 B(  0-C ,  7-H ) :   0.9407 
B(  0-C ,  8-H ) :   0.9368 B(  0-C ,  9-H ) :   0.9393 B(  1-C ,  2-C ) :   1.0596 
B(  1-C ,  3-O ) :   0.0944 B(  1-C ,  4-O ) :   0.0716 B(  1-C , 10-H ) :   0.8970 
B(  1-C , 11-H ) :   0.8968 B(  2-C ,  3-O ) :   2.2026 B(  2-C ,  4-O ) :   1.3998 
B(  2-C ,  5-C ) :   0.0752 B(  3-O ,  4-O ) :   0.2080 B(  4-O ,  5-C ) :   1.0754 
B(  4-O ,  6-C ) :   0.0537 B(  5-C ,  6-C ) :   1.1499 B(  5-C , 12-H ) :   0.9205 
B(  5-C , 13-H ) :   0.9072 B(  6-C , 14-H ) :   0.9352 B(  6-C , 15-H ) :   0.9386 
B(  6-C , 16-H ) :   0.9302 

------------------------------------------
LOEWDIN REDUCED ORBITAL POPULATIONS PER MO
-------------------------------------------
THRESHOLD FOR PRINTING IS 0.1%%
                      0         1         2         3         4         5   
                 -18.79696 -18.72978 -10.00372  -9.94606  -9.89813  -9.88780
                   2.00000   2.00000   2.00000   2.00000   2.00000   2.00000
                  --------  --------  --------  --------  --------  --------
 0 C  s               0.0       0.0       0.0       0.0       0.0      99.7
 1 C  s               0.0       0.0       0.0       0.0      99.6       0.0
 2 C  s               0.0       0.0      99.3       0.0       0.0       0.0
 3 O  s               0.0      99.9       0.0       0.0       0.0       0.0
 3 O  py              0.0       0.0       0.3       0.0       0.0       0.0
 4 O  s              99.9       0.0       0.0       0.0       0.0       0.0
 5 C  s               0.0       0.0       0.0      99.7       0.0       0.0

                      6         7         8         9        10        11   
                  -9.88613  -1.00352  -0.90714  -0.72124  -0.68620  -0.60651
                   2.00000   2.00000   2.00000   2.00000   2.00000   2.00000
                  --------  --------  --------  --------  --------  --------
 0 C  s               0.0       0.1       0.0      10.7      11.9      11.1
 0 C  pz              0.0       0.0       0.0       1.1       0.7       0.2
 0 C  px              0.0       0.1       0.0       1.1       0.3       0.5
 1 C  s               0.0       1.0       0.3      19.2      10.2       0.5
 1 C  pz              0.0       0.2       0.0       1.1       0.5       1.0
 1 C  px              0.0       1.4       0.1       0.1       1.2       5.6
 1 C  py              0.0       0.2       0.5       0.0       0.0       0.0
 1 C  dxz             0.0       0.0       0.0       0.0       0.0       0.1
 2 C  s               0.0      18.4       5.4       4.5       0.2       4.0
 2 C  pz              0.0       0.9       1.6       0.1       0.5       0.3
 2 C  px              0.0       4.2       0.5       4.4       3.7       0.2
 2 C  py              0.0       0.1      22.1       6.3       0.2       4.1
 2 C  dz2             0.0       0.3       0.2       0.0       0.0       0.0
 2 C  dxz             0.0       0.2       0.1       0.0       0.0       0.0
 2 C  dyz             0.0       0.3       0.0       0.0       0.1       0.0
 2 C  dx2y2           0.0       0.1       1.0       0.1       0.0       0.0
 2 C  dxy             0.0       0.2       0.6       0.0       0.2       0.0
 3 O  s               0.0      10.7      42.3       1.7       0.0       0.8
 3 O  px              0.0       0.0       0.2       0.1       0.1       0.0
 3 O  py              0.0       2.6       4.2       0.2       0.0       0.4
 3 O  dx2y2           0.0       0.1       0.1       0.0       0.0       0.0
 4 O  s               0.0      41.9      14.8       0.0       1.7       0.5
 4 O  pz              0.0       0.2       0.1       1.3       0.5       5.0
 4 O  px              0.0       0.1       0.4       8.8       3.7      11.4
 4 O  py              0.0       2.9       0.2       0.0       0.2       0.2
 5 C  s               0.0       4.8       2.2      10.6      13.5       1.6
 5 C  pz              0.1       0.8       0.1       0.3       0.6       2.5
 5 C  px              0.0       4.5       1.1       0.2       2.9       6.4
 5 C  py              0.0       0.3       0.4       0.0       0.0       0.6
 5 C  dxz             0.0       0.1       0.0       0.0       0.1       0.2
 5 C  dx2y2           0.0       0.2       0.1       0.0       0.0       0.0
 5 C  dxy             0.0       0.1       0.1       0.0       0.0       0.1
 6 C  s              99.7       0.3       0.2       6.2      17.8      16.0
 6 C  pz              0.0       0.1       0.1       0.6       0.9       0.4
 6 C  px              0.0       0.4       0.2       0.6       0.4       0.8
 7 H  s               0.0       0.0       0.0       2.1       2.3       2.9
 8 H  s               0.0       0.0       0.0       1.9       2.4       3.5
 9 H  s               0.0       0.0       0.0       1.9       2.4       3.1
10 H  s               0.0       0.2       0.0       3.8       1.8       0.3
11 H  s               0.0       0.1       0.1       3.2       2.2       0.1
12 H  s               0.0       0.5       0.3       2.1       3.1       0.8
13 H  s               0.0       0.8       0.1       1.9       2.6       0.4
14 H  s               0.1       0.1       0.0       1.1       3.4       4.6
15 H  s               0.1       0.1       0.0       1.1       3.5       4.3
16 H  s               0.1       0.0       0.0       1.1       3.8       5.2

                     12        13        14        15        16        17   
                  -0.56301  -0.49626  -0.45218  -0.42634  -0.41677  -0.39870
                   2.00000   2.00000   2.00000   2.00000   2.00000   2.00000
                  --------  --------  --------  --------  --------  --------
 0 C  s              12.8       0.1       0.0       0.0       0.4       0.0
 0 C  pz              3.5       1.0       3.7       0.0       2.1       6.0
 0 C  px              1.9       0.0       1.2       0.0       3.4      12.1
 0 C  py              0.0       0.0       1.8      10.2       0.1       4.0
 0 C  dxz             0.1       0.0       0.0       0.0       0.1       0.0
 1 C  s              10.1       1.0       1.7       0.1       0.5       0.0
 1 C  pz              5.0       1.9       5.5       0.0       1.1       7.4
 1 C  px              2.0       1.3       6.5       0.0       2.3       8.1
 1 C  py              0.1       0.1       5.4      21.0       0.0       4.3
 1 C  dxz             0.1       0.0       0.0       0.0       0.0       0.0
 1 C  dxy             0.0       0.0       0.2       0.0       0.0       0.1
 2 C  s               0.3       2.2       1.3       1.7       0.9       0.1
 2 C  pz              2.3       2.2       0.4       0.1      15.7       0.2
 2 C  px              6.5       0.2      10.6       1.9       1.7       2.7
 2 C  py              0.2       1.1       0.1       0.9       1.2       0.1
 2 C  dx2y2           0.0       0.0       0.1       0.6       0.0       0.0
 2 C  dxy             0.2       0.0       0.0       0.0       0.0       0.2
 3 O  s               0.1       1.1       0.0       7.9       0.5       0.1
 3 O  pz              0.2       0.8       0.0       0.1       6.0       0.0
 3 O  px              0.6       0.2       5.5       1.7       0.2       0.1
 3 O  py              0.0       0.7       0.0       9.5       2.4       0.4
 4 O  s               0.2       4.1       0.9       0.6       0.3       0.3
 4 O  pz              1.6       0.2       2.7       0.0      23.6       0.0
 4 O  px              3.6      10.8       0.7       4.1       1.6       3.1
 4 O  py              0.6       6.9       9.7       5.9       0.9       0.1
 5 C  s               4.7       7.3       0.0       0.1       0.9       0.1
 5 C  pz              2.6       8.6       2.9       3.6       2.8       4.7
 5 C  px              0.5       3.9       1.2       3.1       5.1       1.8
 5 C  py              0.3      10.1      12.5       2.3       2.2       2.1
 5 C  dz2             0.0       0.0       0.0       0.0       0.2       0.0
 5 C  dx2y2           0.0       0.2       0.0       0.0       0.0       0.0
 5 C  dxy             0.0       0.4       0.0       0.0       0.0       0.0
 6 C  s               4.5       1.4       0.1       0.0       0.6       0.0
 6 C  pz              1.4       6.0       0.3       1.5       3.5       2.0
 6 C  px              0.8       0.2       1.6       1.7       8.0       7.1
 6 C  py              0.0       1.5       3.3       0.8       2.0       1.9
 6 C  dxz             0.1       0.1       0.0       0.0       0.2       0.0
 7 H  s               5.2       0.3       0.8       0.8       0.4       7.0
 8 H  s               5.0       0.0       0.9       0.7       1.4       3.3
 9 H  s               4.7       0.1       1.0       3.2       0.4       1.4
10 H  s               3.5       0.7       4.2       8.4       0.0       1.5
11 H  s               4.8       1.8       3.1       1.2       0.1       7.7
12 H  s               2.9       4.1       4.7       3.7       0.7       3.2
13 H  s               1.3      12.5       2.6       0.2       0.9       0.4
14 H  s               2.0       1.2       1.0       1.1       1.6       2.6
15 H  s               1.6       3.1       1.1       0.1       0.1       0.4
16 H  s               1.8       0.1       0.3       0.6       3.5       2.8

                     18        19        20        21        22        23   
                  -0.38418  -0.36839  -0.34929  -0.34101  -0.32354  -0.31573
                   2.00000   2.00000   2.00000   2.00000   2.00000   2.00000
                  --------  --------  --------  --------  --------  --------
 0 C  s               0.0       0.0       0.0       0.0       0.1       0.2
 0 C  pz              0.1       4.4       1.5      14.7       1.2       3.2
 0 C  px              0.4       5.1       5.0       6.8       5.1       7.7
 0 C  py              7.7       4.0       0.0       6.5       7.7      10.0
 0 C  dz2             0.0       0.0       0.0       0.0       0.0       0.2
 0 C  dxz             0.0       0.2       0.0       0.0       0.1       0.0
 0 C  dyz             0.0       0.0       0.0       0.0       0.1       0.2
 0 C  dx2y2           0.0       0.0       0.0       0.3       0.1       0.1
 0 C  dxy             0.0       0.0       0.0       0.3       0.1       0.0
 1 C  s               0.0       0.3       0.1       0.2       0.0       0.1
 1 C  pz              0.2       4.0       3.0       4.2       1.7       5.0
 1 C  px              0.2       3.7       2.3       0.3       3.0       4.3
 1 C  py              3.9       0.1       0.0       0.3       2.3      10.2
 1 C  dz2             0.0       0.1       0.0       0.1       0.0       0.1
 1 C  dxz             0.0       0.0       0.0       0.0       0.1       0.1
 1 C  dyz             0.0       0.0       0.0       0.0       0.0       0.3
 1 C  dx2y2           0.0       0.0       0.0       0.1       0.0       0.3
 1 C  dxy             0.0       0.1       0.0       0.1       0.1       0.1
 2 C  s               1.7       0.4       0.1       0.4       0.1       0.0
 2 C  pz              1.2       6.9       0.4       1.3       0.2       4.1
 2 C  px              1.1       0.3       0.1       2.6       4.8       0.5
 2 C  py              4.3       1.0       1.1       0.3       1.1       1.1
 2 C  dxz             0.0       0.0       0.0       0.0       0.2       0.0
 2 C  dyz             0.0       0.0       0.0       0.0       0.0       0.3
 2 C  dx2y2           0.0       0.0       0.0       0.2       0.0       0.4
 3 O  s               8.5       1.8       0.2       0.2       0.6       0.2
 3 O  pz              2.9       3.8       0.6       1.1       0.4      11.9
 3 O  px              0.1       0.7       0.2       4.1       3.6       2.1
 3 O  py             26.3       7.2       1.2       0.5       6.3       0.6
 3 O  dx2y2           0.2       0.0       0.0       0.0       0.0       0.0
 4 O  s               1.8       0.6       0.5       0.4       0.0       0.0
 4 O  pz              0.8       1.7       1.3       0.3       0.7       1.9
 4 O  px              0.6       0.5       1.9       1.4       0.2       0.2
 4 O  py              7.8       1.8       0.3       4.9       1.5       0.7
 5 C  s               0.0       0.2       0.1       0.1       0.1       0.0
 5 C  pz              0.2       3.7       8.4       0.6       4.5       2.7
 5 C  px              0.2       2.2       2.4       1.6       0.7       0.5
 5 C  py              3.6       0.8       0.1       0.1       4.7       0.0
 5 C  dz2             0.0       0.1       0.1       0.1       0.1       0.0
 5 C  dyz             0.0       0.0       0.0       0.0       0.4       0.0
 5 C  dx2y2           0.0       0.0       0.3       0.0       0.1       0.0
 5 C  dxy             0.1       0.2       0.1       0.0       0.0       0.0
 6 C  s               0.0       0.0       0.0       0.0       0.0       0.1
 6 C  pz              0.2       0.4      27.4       0.3       4.8       1.3
 6 C  px              0.4      10.0       3.2       8.7       0.7       1.6
 6 C  py              9.8      13.5       5.1       3.9       8.8       0.2
 6 C  dxz             0.0       0.2       0.0       0.0       0.1       0.0
 6 C  dyz             0.0       0.0       0.0       0.1       0.4       0.0
 6 C  dx2y2           0.0       0.1       0.6       0.0       0.0       0.0
 6 C  dxy             0.0       0.0       0.1       0.0       0.0       0.0
 7 H  s               0.6       1.9       0.0       4.8       0.9       1.7
 8 H  s               0.2       3.2       1.5      11.3       5.4       0.1
 9 H  s               3.8       0.3       0.5       5.4       2.8      10.6
10 H  s               1.2       0.3       0.1       1.3       0.8      12.5
11 H  s               0.7       0.0       0.2       1.5       0.6       0.6
12 H  s               0.8       0.0       2.3       0.0       8.0       0.7
13 H  s               1.5       0.5       2.3       0.2       1.6       0.3
14 H  s               1.5       1.8       5.2       3.4       9.5       0.1
15 H  s               4.5       3.7       9.6       1.8       2.8       0.4
16 H  s               0.1       7.8      10.1       2.9       0.3       0.2

                     24        25        26        27        28        29   
                  -0.31254  -0.28925  -0.25435  -0.21487  -0.01906   0.04598
                   2.00000   2.00000   2.00000   2.00000   0.00000   0.00000
                  --------  --------  --------  --------  --------  --------
 0 C  s               0.1       0.0       0.0       0.0       2.8       4.5
 0 C  pz             10.5       0.0       0.1       0.0       1.8       2.3
 0 C  px              1.5       1.7       0.0       0.5       0.5       1.1
 0 C  py              4.2       0.1       0.3       0.0       0.1       0.0
 0 C  dz2             0.2       0.0       0.0       0.0       0.0       0.1
 0 C  dxz             0.2       0.0       0.0       0.0       0.0       0.2
 0 C  dyz             0.3       0.0       0.0       0.0       0.0       0.0
 0 C  dx2y2           0.0       0.0       0.0       0.1       0.1       0.0
 1 C  s               0.1       0.1       0.0       0.7       0.1       4.8
 1 C  pz             12.6       0.0       0.1       0.1       0.4       0.7
 1 C  px              2.8       3.9       0.0       3.8       0.4       0.1
 1 C  py              3.1       0.1       0.2       3.0       0.0       0.3
 1 C  dz2             0.3       0.0       0.0       0.0       0.0       0.0
 1 C  dxz             0.3       0.0       0.0       0.0       1.5       0.0
 1 C  dyz             0.3       0.0       0.0       0.0       0.1       0.0
 1 C  dx2y2           0.0       0.0       0.0       0.1       0.5       0.0
 2 C  s               0.2       0.7       0.0       0.4       0.0       1.6
 2 C  pz              2.9       0.4       0.6       0.1      37.0       1.5
 2 C  px              0.5       0.4       0.1       0.8       6.6       1.3
 2 C  py              0.6       3.9       0.0       0.6       1.8       0.4
 2 C  dz2             0.0       0.0       0.5       0.0       0.0       0.3
 2 C  dxz             0.1       0.1       0.0       0.0       0.3       0.1
 2 C  dyz             0.0       0.1       1.6       0.8       0.6       0.0
 2 C  dx2y2           0.0       0.6       0.0       0.2       0.2       0.0
 2 C  dxy             0.1       0.0       0.4       3.5       0.0       0.1
 3 O  s               0.0       0.9       0.0       0.0       0.0       0.8
 3 O  pz              3.1       0.0      30.0      11.6      20.5       0.4
 3 O  px              0.2       0.2       4.0      59.9       3.7       0.4
 3 O  py              0.0       7.9       1.4       0.8       0.9       0.2
 3 O  dyz             0.0       0.0       0.0       0.0       0.4       0.0
 4 O  s               0.2       3.5       0.0       0.3       0.0       1.2
 4 O  pz              1.0       0.1      35.9       1.3       8.0       0.7
 4 O  px              3.5       2.3       7.2       0.4       1.4       0.3
 4 O  py              0.2      30.2       1.3       6.1       0.3       0.2
 4 O  dz2             0.0       0.0       0.0       0.0       0.2       0.0
 4 O  dxz             0.0       0.1       0.0       0.0       0.1       0.0
 5 C  s               0.0       0.2       0.0       0.1       0.0       4.7
 5 C  pz              0.4       0.1       3.4       0.5       0.1       2.9
 5 C  px              3.7       0.5       0.6       0.3       0.1       1.7
 5 C  py              1.6      13.3       0.0       0.2       0.0       0.2
 5 C  dxz             0.1       0.1       0.6       0.0       0.3       0.0
 5 C  dyz             0.1       0.5       0.0       0.0       0.0       0.1
 5 C  dx2y2           0.0       0.4       0.3       0.0       0.1       0.1
 6 C  s               0.1       0.0       0.5       0.0       0.7       5.6
 6 C  pz              0.1       0.0       3.5       0.2       0.2       1.0
 6 C  px              5.4       0.1       2.9       0.0       0.1       2.2
 6 C  py              1.8       3.9       0.2       0.0       0.0       0.0
 6 C  dz2             0.1       0.0       0.0       0.0       0.0       0.3
 6 C  dxz             0.0       0.0       0.0       0.0       0.0       0.2
 6 C  dyz             0.1       0.3       0.0       0.0       0.0       0.0
 7 H  s              11.9       0.2       0.2       0.0       0.2       6.4
 8 H  s               0.9       1.3       0.0       0.7       2.5       4.4
 9 H  s               1.6       0.0       0.2       0.3       0.2       3.9
10 H  s               1.1       0.1       0.0       1.3       1.7       6.6
11 H  s              14.7       0.4       0.1       0.2       1.6       3.8
12 H  s               0.7       3.8       1.4       0.1       0.2      10.9
13 H  s               1.9      10.6       1.4       0.4       0.2       4.6
14 H  s               1.4       1.5       0.2       0.1       0.2       2.8
15 H  s               1.5       3.9       0.1       0.0       0.2       5.3
16 H  s               1.5       0.6       0.6       0.1       0.4       8.8

                     30        31        32        33        34        35   
                   0.05736   0.08215   0.08796   0.09227   0.09859   0.10535
                   0.00000   0.00000   0.00000   0.00000   0.00000   0.00000
                  --------  --------  --------  --------  --------  --------
 0 C  s               7.8       0.3       0.1      10.9       2.2       0.5
 0 C  pz              1.3       0.4       0.1       1.4       0.2       1.4
 0 C  px              1.4       1.8       0.3       0.3       0.8       3.1
 0 C  py              0.0       0.1       2.5       0.3       3.1       1.0
 0 C  dz2             0.1       0.2       0.0       0.2       0.1       0.3
 0 C  dxz             0.1       0.0       0.0       0.1       0.2       0.0
 0 C  dyz             0.0       0.0       0.4       0.0       0.3       0.1
 0 C  dxy             0.0       0.1       0.1       0.0       0.2       0.1
 1 C  s               4.1       2.9       0.0       7.2       1.3       0.4
 1 C  pz              1.4       0.8       0.1       1.5       1.2       0.6
 1 C  px              0.1       0.6       0.1       1.4       1.0       1.6
 1 C  py              0.1       0.5       8.7       0.0       5.9       0.1
 1 C  dz2             0.0       0.1       0.1       0.3       0.1       0.3
 1 C  dxz             0.1       0.1       0.1       0.0       0.2       0.1
 1 C  dyz             0.0       0.0       0.2       0.0       0.6       0.0
 1 C  dx2y2           0.0       0.1       0.3       0.0       0.0       0.1
 1 C  dxy             0.0       0.0       0.1       0.2       0.0       0.0
 2 C  s               0.0       0.1       1.4       0.1       0.9       0.2
 2 C  pz              0.6       0.4       0.1       0.5       0.0       0.1
 2 C  px              0.4       0.1       0.1       0.4       0.1       0.2
 2 C  py              0.3       0.2       0.6       0.4       0.3       1.2
 2 C  dz2             0.0       0.0       0.2       0.0       0.3       0.0
 2 C  dxz             0.2       0.0       0.3       0.2       0.0       0.1
 2 C  dx2y2           0.0       0.1       0.4       0.3       0.2       0.3
 2 C  dxy             0.0       0.0       0.0       0.1       0.4       0.0
 3 O  s               0.0       0.1       0.3       0.0       0.3       0.2
 3 O  pz              0.2       0.6       0.2       0.0       0.2       0.0
 3 O  px              0.3       0.1       0.4       0.1       0.0       0.0
 3 O  py              0.0       0.1       0.1       0.0       0.1       0.1
 4 O  s               1.0       1.2       0.8       2.5       0.1       2.8
 4 O  pz              0.3       0.8       0.0       0.1       0.0       0.2
 4 O  px              0.1       1.1       0.1       1.5       0.0       2.5
 4 O  py              0.2       0.4       0.6       0.7       0.1       0.6
 4 O  dxz             0.1       0.0       0.1       0.1       0.0       0.1
 4 O  dx2y2           0.0       0.0       0.2       0.1       0.0       0.2
 4 O  dxy             0.0       0.1       0.1       0.1       0.1       0.0
 5 C  s               4.3       2.3       0.0       1.0       1.6      12.2
 5 C  pz              0.9       4.7       0.0       1.1       0.3       0.6
 5 C  px              1.9       9.2       0.4       7.0       0.2       3.9
 5 C  py              0.3       0.4       9.1       0.5       5.1       0.6
 5 C  dz2             0.1       0.6       0.0       0.3       0.0       0.2
 5 C  dxz             0.4       0.4       0.2       0.3       0.2       0.1
 5 C  dyz             0.0       0.2       0.6       0.2       0.4       0.0
 5 C  dx2y2           0.0       0.4       0.3       0.4       0.0       0.5
 5 C  dxy             0.1       0.3       0.1       0.2       0.1       0.2
 6 C  s               9.7       6.2       0.1       0.1       1.6       4.3
 6 C  pz              0.4       2.2       0.0       0.5       0.1       0.9
 6 C  px              1.6       0.8       0.4       0.5       0.3       2.0
 6 C  py              0.1       0.0       4.7       0.3       3.9       0.2
 6 C  dz2             0.0       0.6       0.0       0.3       0.0       0.0
 6 C  dxz             0.1       0.1       0.1       0.0       0.2       0.1
 6 C  dyz             0.0       0.0       0.4       0.0       0.4       0.0
 6 C  dx2y2           0.1       0.3       0.1       0.3       0.0       0.5
 6 C  dxy             0.0       0.0       0.3       0.0       0.1       0.2
 7 H  s               5.7       4.4       3.2      10.8       1.0      11.2
 8 H  s               8.7       1.4       0.3       3.0       0.8       2.1
 9 H  s               5.6       0.0       4.0      11.5      11.6       0.6
10 H  s               3.3       5.2      15.4       3.7      17.3       0.0
11 H  s               7.1       3.7       5.9      18.6       5.8       3.4
12 H  s               5.8      20.7       6.3       1.2       2.0      11.7
13 H  s               2.1       1.1      14.5       2.1      13.6       7.1
14 H  s               3.8      14.0       2.9       3.0       1.3       0.9
15 H  s               8.6       6.5       7.5       0.1      11.1       1.2
16 H  s               9.3       1.0       4.2       1.8       0.2      16.6

                     36        37        38        39        40        41   
                   0.11612   0.12341   0.13285   0.13836   0.16625   0.18667
                   0.00000   0.00000   0.00000   0.00000   0.00000   0.00000
                  --------  --------  --------  --------  --------  --------
 0 C  s               0.5       0.0       0.0       0.0       1.7       0.6
 0 C  pz              2.7       0.4       0.3       1.9       5.9       5.1
 0 C  px              7.6       2.8       1.3       2.9       7.3       3.7
 0 C  py              2.9       9.5       4.1       3.6       0.7       0.0
 0 C  dz2             0.0       0.1       0.0       0.0       0.1       0.2
 0 C  dxz             0.0       0.3       0.0       0.0       2.3       1.6
 0 C  dyz             0.0       0.1       0.1       0.2       0.1       0.0
 0 C  dx2y2           0.2       0.5       0.3       0.2       0.1       0.3
 0 C  dxy             0.3       0.1       0.1       0.3       0.0       0.0
 1 C  s               0.6       0.4       0.1       0.2       2.2       1.8
 1 C  pz              0.1       2.0       1.5       2.3      10.6       6.2
 1 C  px              0.1       0.5       1.2       2.4       0.2       0.8
 1 C  py              0.1       2.9       1.4       1.3       2.2       0.2
 1 C  dz2             0.2       0.2       0.0       0.0       0.3       0.2
 1 C  dxz             0.0       0.1       0.0       0.0       0.4       0.6
 1 C  dyz             0.1       0.3       0.0       0.0       0.4       0.1
 1 C  dx2y2           0.1       0.5       0.0       0.0       0.8       0.3
 1 C  dxy             0.0       0.0       0.3       0.4       0.6       0.1
 2 C  s               0.4       1.6       0.9       1.5      13.1       0.2
 2 C  pz              0.5       0.6       0.1       0.0       2.0       0.2
 2 C  px              0.2       0.3       0.4       0.2       1.2       0.4
 2 C  py              0.4       1.0       0.2       1.1       0.0       0.2
 2 C  dz2             0.1       0.2       0.3       0.1       2.5       0.3
 2 C  dxz             0.0       0.3       0.0       0.0       0.7       0.0
 2 C  dyz             0.0       0.0       0.0       0.0       0.9       0.0
 2 C  dx2y2           0.0       0.2       0.0       0.0       0.1       0.0
 2 C  dxy             0.0       0.0       0.1       0.2       0.0       0.0
 3 O  s               0.3       0.0       0.0       0.4       0.5       0.0
 3 O  pz              0.2       0.1       0.6       0.0       0.5       0.2
 3 O  px              0.0       1.2       0.6       0.1       0.6       0.1
 3 O  py              0.0       0.0       0.1       0.2       0.8       0.0
 4 O  s               1.1       2.1       0.3       0.9       0.0       0.0
 4 O  pz              0.4       0.2       0.0       0.2       0.0       0.4
 4 O  px              0.1       0.1       0.6       2.9       4.8       0.1
 4 O  py              0.2       0.5       0.1       1.5       0.9       0.0
 4 O  dz2             0.0       0.0       0.0       0.0       0.1       0.2
 4 O  dxz             0.0       0.1       0.0       0.0       0.1       0.0
 4 O  dx2y2           0.0       0.1       0.0       0.0       0.1       0.0
 4 O  dxy             0.0       0.0       0.1       0.1       0.2       0.0
 5 C  s               0.0       0.0       0.0       1.1       0.8       3.8
 5 C  pz              0.7       0.4       0.4       1.3       6.8      15.1
 5 C  px              2.1       3.2       0.5       7.8       0.4       6.8
 5 C  py              1.2       2.1       4.1       2.2       4.0       0.1
 5 C  dz2             0.2       0.1       0.1       0.0       0.2       0.8
 5 C  dxz             0.2       0.4       0.3       0.3       0.0       2.1
 5 C  dyz             0.1       0.0       0.0       0.2       0.1       0.0
 5 C  dx2y2           0.1       0.3       0.2       0.2       0.8       1.1
 5 C  dxy             0.1       0.0       0.1       0.9       0.5       0.0
 6 C  s               0.0       0.0       0.3       0.1       0.9       2.0
 6 C  pz              4.2       2.6       1.0       1.9       0.6      14.8
 6 C  px              5.5       1.6       2.5       1.2       4.0      14.4
 6 C  py              2.0       3.3       9.6       2.9       0.2       0.1
 6 C  dz2             0.1       0.2       0.2       0.1       0.0       0.5
 6 C  dxz             0.1       0.1       0.0       0.0       1.0       5.4
 6 C  dyz             0.1       0.0       0.3       0.2       0.2       0.0
 6 C  dx2y2           0.2       0.2       0.1       0.2       0.0       0.9
 6 C  dxy             0.0       0.0       0.5       0.2       0.0       0.0
 7 H  s               2.9       0.3       6.8      12.7       1.0       0.4
 8 H  s              27.8      15.6       0.0       1.4       1.7       0.3
 9 H  s               2.9      13.6       6.5       5.3       0.1       0.3
10 H  s               0.2       7.2       3.3       1.5       2.3       0.3
11 H  s               1.0       0.5       5.3      10.0       0.9       0.7
12 H  s               0.0       0.3       5.6       2.4       0.2       1.2
13 H  s               1.0       1.5       5.2       6.4       6.8       1.2
14 H  s               2.8       0.4      21.2      10.8       0.3       1.1
15 H  s               6.5       9.1       9.9       2.1       0.2       1.0
16 H  s              18.2       7.6       0.7       1.2       0.5       1.3

                     42        43        44        45        46        47   
                   0.21323   0.26511   0.30837   0.37721   0.38659   0.39946
                   0.00000   0.00000   0.00000   0.00000   0.00000   0.00000
                  --------  --------  --------  --------  --------  --------
 0 C  s               0.5       0.1       0.0       0.1       0.0       0.0
 0 C  pz              6.7       4.6       0.0       7.7       0.3       3.1
 0 C  px              3.4       0.8       0.3       0.7       0.0       7.3
 0 C  py              0.1       0.3       0.3       2.8       0.7      19.4
 0 C  dz2             1.8       0.0       0.0       0.0       0.0       2.6
 0 C  dxz             0.8       1.4       0.0       0.3       0.0       1.1
 0 C  dyz             0.3       0.0       0.0       0.3       0.0       4.5
 0 C  dx2y2           0.0       1.0       0.0       1.7       0.2       1.1
 0 C  dxy             0.0       0.2       0.0       0.9       0.2       0.2
 1 C  s               0.4       3.9       0.2       0.6       0.2       0.0
 1 C  pz              2.6       3.4       0.0       4.7       0.7       0.7
 1 C  px             26.7       6.9       0.1       0.3       0.5       0.2
 1 C  py              3.2       3.0       2.1       0.6       0.2       2.3
 1 C  dz2             1.9       0.1       0.5       0.5       0.0       0.9
 1 C  dxz             2.9       0.0       0.5       0.0       0.0       0.4
 1 C  dyz             0.3       0.1       0.3       0.1       0.2       2.1
 1 C  dx2y2           0.6       1.0       2.3       0.1       0.2       0.0
 1 C  dxy             2.9       1.4       1.1       0.0       0.0       0.5
 2 C  s              14.7      11.4       2.8       8.7       2.1       0.0
 2 C  pz              1.9       1.4       4.2       4.9       7.4       1.3
 2 C  px              3.7      16.3       5.6       1.5       7.2       1.2
 2 C  py              2.3       1.8      25.5       4.0       2.9       1.8
 2 C  dz2             1.0       1.2       0.1       0.1       0.0       0.0
 2 C  dxz             1.4       0.7       0.7       0.0       0.1       0.0
 2 C  dyz             0.0       0.7       0.3       0.1       0.1       0.0
 2 C  dx2y2           0.1       2.1       1.4       0.6       0.5       0.0
 2 C  dxy             0.2       0.3       2.6       0.1       0.0       0.0
 3 O  s               0.4       3.8       5.8       1.2       0.1       0.2
 3 O  pz              0.5       0.4       0.8       0.1       0.3       0.0
 3 O  px              0.4       2.0       3.0       0.3       0.8       0.2
 3 O  py              1.1       1.8       0.3       1.0       0.3       0.0
 3 O  dx2y2           0.1       0.1       0.0       0.1       0.1       0.0
 3 O  dxy             0.1       0.4       0.3       0.0       0.0       0.0
 4 O  s               0.1       2.3       3.8       0.2       0.1       0.0
 4 O  pz              1.8       2.2       1.9       1.3       1.5       0.9
 4 O  px              1.5       1.0       5.9       0.6       1.0       0.9
 4 O  py              0.2       2.1       0.3       1.6       0.0       0.0
 4 O  dz2             0.0       0.0       0.0       0.3       0.0       0.0
 4 O  dxz             0.0       0.1       0.3       0.1       0.1       0.0
 4 O  dyz             0.1       0.3       0.1       0.5       0.1       0.0
 4 O  dx2y2           0.1       0.5       0.1       0.0       0.2       0.0
 4 O  dxy             0.2       0.3       0.5       0.6       0.4       0.0
 5 C  s               0.0       0.6       0.1       1.1       0.4       0.0
 5 C  pz              0.3       0.9       1.3      12.9       1.1       0.2
 5 C  px              2.3       3.8       2.2       2.8       6.5       0.3
 5 C  py              0.4       0.2       0.1       1.0       5.1       0.1
 5 C  dz2             0.1       0.1       0.2       1.1       0.3       0.0
 5 C  dxz             0.2       0.4       0.0       0.3       1.9       0.0
 5 C  dyz             0.0       0.0       0.8       0.0       1.4       0.1
 5 C  dx2y2           0.0       0.1       0.0       1.4       0.0       0.0
 5 C  dxy             0.4       0.0       0.5       0.0       0.1       0.0
 6 C  s               0.0       0.2       0.0       0.6       0.8       0.0
 6 C  pz              1.4       2.6       0.0      12.5       1.5       0.6
 6 C  px              0.4       1.2       0.1       0.6      17.5       1.0
 6 C  py              0.0       0.3       0.5       0.0       3.7       1.9
 6 C  dz2             0.1       0.1       0.2       0.3       0.4       0.0
 6 C  dxz             0.2       0.2       0.0       1.0       0.2       0.1
 6 C  dyz             0.1       0.0       0.1       0.2       3.7       0.1
 6 C  dx2y2           0.1       0.5       0.0       0.7       0.1       0.6
 6 C  dxy             0.0       0.0       0.0       0.1       0.4       0.1
 7 H  s               0.3       1.4       0.3       2.2       0.0      16.3
 8 H  s               2.1       0.7       0.0       2.1       0.5       0.5
 9 H  s               0.7       1.9       1.0       2.3       0.8      12.4
10 H  s               1.0       0.8       6.9       0.6       1.0       3.7
11 H  s               1.4       0.6       6.4       0.0       0.8       5.6
12 H  s               0.6       0.2       3.4       0.1       5.4       0.1
13 H  s               0.2       0.0       0.3       3.7       3.5       0.3
14 H  s               0.5       1.1       0.7       2.5       7.0       0.0
15 H  s               0.2       0.4       0.4       0.5       3.2       1.5
16 H  s               0.1       0.2       0.2       0.0       3.9       1.0

                     48        49        50        51        52        53   
                   0.40661   0.41795   0.42762   0.44756   0.50940   0.52858
                   0.00000   0.00000   0.00000   0.00000   0.00000   0.00000
                  --------  --------  --------  --------  --------  --------
 0 C  s               0.1       0.7       2.4       0.0       0.2       0.0
 0 C  pz              3.7      15.2       7.6       0.1       4.9       0.0
 0 C  px              0.1       0.3      11.7       1.6       2.9       3.0
 0 C  py              2.1       4.6       1.9       1.6       0.2       0.2
 0 C  dz2             0.0       0.3       0.5       0.1       0.3       0.1
 0 C  dxz             0.7       0.2       1.6       0.1       0.1       0.0
 0 C  dyz             0.6       0.0       0.0       0.1       0.3       0.1
 0 C  dx2y2           0.1       1.9       0.6       0.2       0.3       0.1
 0 C  dxy             0.0       0.7       0.8       0.1       2.1       0.0
 1 C  s               0.1       0.0       1.4       2.3       1.0       5.2
 1 C  pz              1.6       7.7      10.7       1.9       0.0       3.8
 1 C  px              0.8       3.6       1.1       9.7       0.4      20.4
 1 C  py              0.6       0.3       0.3       2.3       0.5       7.8
[...]
 0 C  dz2             0.5       0.0       0.1       0.0       0.3       0.0
 0 C  dxz             1.3       0.8       0.1       0.0       0.0       0.0
 0 C  dx2y2           0.2       0.2       0.0       0.0       0.0       0.0
 1 C  s               0.1       0.0       0.0       0.0       0.0       0.3
 1 C  px              0.2       0.4       0.0       0.0       0.0       0.2
 1 C  py              0.0       0.2       0.0       0.1       0.0       0.0
 1 C  dz2             0.1       1.4       0.0       0.6       0.0       0.2
 1 C  dxz             3.0       1.1       0.5       0.2       0.7       0.4
 1 C  dyz             0.1       0.0       0.1       0.0       0.6       0.0
 1 C  dx2y2           0.3       0.0       0.1       1.0       0.7       1.1
 1 C  dxy             0.1       0.4       0.0       2.1       0.0       0.0
 2 C  s               0.1       0.1       0.0       0.2       0.0       1.0
 2 C  pz              0.2       0.0       0.0       0.0       1.0       0.6
 2 C  px              0.2       0.4       0.0       0.3       0.2       0.9
 2 C  py              0.0       0.3       0.0       0.3       0.0       1.8
 2 C  dz2             0.0       1.6       1.1       0.1       5.0       1.7
 2 C  dxz             0.1       1.1       0.8       4.8       3.8       0.6
 2 C  dyz             0.2       0.2       0.2       0.0       0.1       0.4
 2 C  dx2y2           0.1       0.0       0.1       6.7       3.0       0.0
 2 C  dxy             0.1       0.2       0.1       1.6       0.7       3.1
 3 O  s               0.0       0.0       0.0       1.4       0.0       0.3
 3 O  pz              0.0       0.0       0.0       0.0       0.3       0.1
 3 O  px              0.0       0.0       0.0       0.4       0.0       0.4
 3 O  py              0.0       0.0       0.0       0.5       0.0       0.3
 3 O  dz2            19.2      26.4       0.9       2.6       9.6       0.8
 3 O  dxz            46.8      34.4       2.1       2.8       1.3       0.2
 3 O  dyz             0.0       3.1       3.7       0.0      11.8       6.1
 3 O  dx2y2           7.3      12.6       1.7       0.7       0.0       0.0
 3 O  dxy             1.1       0.4       0.1      11.6       2.4      18.9
 4 O  s               0.0       0.1       0.0       0.5       0.0       7.8
 4 O  pz              0.1       0.1       0.9       0.2       0.3       0.1
 4 O  px              0.1       0.0       0.1       1.4       0.4       0.1
 4 O  py              0.1       0.5       0.1       1.0       0.0       1.0
 4 O  dz2             3.9       3.4       1.6      27.5      14.6      13.2
 4 O  dxz             0.1       0.3      19.9       0.3      10.8      25.7
 4 O  dyz            10.0       1.9      30.9       0.1      16.4       3.8
 4 O  dx2y2           0.3       2.4      12.2      11.2       2.3       2.7
 4 O  dxy             2.6       0.9       1.0      11.5      10.7       1.1
 5 C  s               0.0       0.4       0.2       0.4       0.0       0.5
 5 C  pz              0.0       0.3       0.3       0.1       0.0       0.0
 5 C  px              0.0       0.1       0.0       0.8       0.0       0.7
 5 C  py              0.0       0.1       0.0       0.1       0.0       0.1
 5 C  dz2             0.1       0.0       3.6       0.2       0.1       0.9
 5 C  dxz             0.3       1.5       7.5       3.5       0.1       0.5
 5 C  dyz             0.1       0.4       1.2       0.0       0.9       0.2
 5 C  dx2y2           0.1       0.0       3.5       1.9       0.6       0.3
 5 C  dxy             0.1       0.4       0.0       0.4       0.0       1.7
 6 C  s               0.0       0.2       0.1       0.0       0.0       0.0
 6 C  pz              0.0       0.0       0.2       0.0       0.0       0.0
 6 C  px              0.0       0.1       0.1       0.0       0.0       0.0
 6 C  dz2             0.1       0.0       2.7       0.0       0.2       0.0
 6 C  dxz             0.1       0.4       1.2       0.3       0.0       0.0
 6 C  dx2y2           0.0       0.1       0.3       0.0       0.0       0.1
 6 C  dxy             0.0       0.0       0.2       0.0       0.1       0.0
12 H  s               0.0       0.1       0.0       0.0       0.0       0.0
13 H  s               0.0       0.1       0.0       0.0       0.1       0.0
16 H  s               0.0       0.0       0.2       0.0       0.0       0.0

                    114       115       116       117   
                   3.12197   3.32230   3.48477   3.56109
                   0.00000   0.00000   0.00000   0.00000
                  --------  --------  --------  --------
 1 C  s               0.0       0.2       0.1       0.1
 1 C  px              0.0       0.1       0.3       0.0
 1 C  dz2             0.3       0.1       0.0       0.0
 1 C  dxz             0.5       0.0       0.4       0.0
 1 C  dx2y2           0.0       0.0       1.1       0.0
 1 C  dxy             0.0       0.6       0.0       0.4
 2 C  s               0.0       3.5       0.1       6.5
 2 C  pz              0.2       0.2       0.4       0.0
 2 C  px              0.1       1.3       0.4       0.4
 2 C  py              0.1       0.1       3.5       3.4
 2 C  dz2             1.9       0.1       0.1       1.2
 2 C  dxz             0.1       1.5       0.9       0.0
 2 C  dyz            14.5       0.5       2.8       2.3
 2 C  dx2y2           0.7       4.5       0.0       8.9
 2 C  dxy             3.3       0.6      15.6       1.1
 3 O  s               0.0       1.7       1.1       4.0
 3 O  pz              0.7       0.1       0.2       0.0
 3 O  px              0.2       0.1       0.3       0.5
 3 O  py              0.0       0.7       0.9       2.8
 3 O  dz2             1.2       2.3       1.4      11.5
 3 O  dxz             3.9       0.1       0.0       0.2
 3 O  dyz            40.2       4.7       5.5       0.2
 3 O  dx2y2           4.2       9.8      15.7      23.0
 3 O  dxy             8.3       2.4       7.4      16.8
 4 O  s               0.1       0.1       0.6       0.6
 4 O  pz              0.0       0.4       0.6       0.0
 4 O  px              0.0       2.0       2.7       0.2
 4 O  py              0.0       0.3       0.4       0.1
 4 O  dz2             9.4       0.2       0.1       0.2
 4 O  dxz             4.5       3.1       3.9       5.1
 4 O  dyz             0.1       6.8       6.4       0.1
 4 O  dx2y2           1.6      26.2       0.0       7.8
 4 O  dxy             1.8      16.7      24.9       1.4
 5 C  s               0.0       0.8       0.3       0.0
 5 C  pz              0.0       0.1       0.1       0.0
 5 C  px              0.0       1.4       0.3       0.0
 5 C  py              0.0       0.3       0.0       0.0
 5 C  dz2             0.1       0.8       0.0       0.1
 5 C  dxz             0.6       1.2       0.3       0.0
 5 C  dyz             0.4       0.3       0.0       0.0
 5 C  dx2y2           0.3       1.5       0.8       0.0
 5 C  dxy             0.0       2.2       0.0       0.6
 6 C  dz2             0.1       0.0       0.0       0.0


                      *****************************
                      * MAYER POPULATION ANALYSIS *
                      *****************************

  NA   - Mulliken gross atomic population
  ZA   - Total nuclear charge
  QA   - Mulliken gross atomic charge
  VA   - Mayer's total valence
  BVA  - Mayer's bonded valence
  FA   - Mayer's free valence

  ATOM       NA         ZA         QA         VA         BVA        FA
  0 C      6.3034     6.0000    -0.3034     4.0418     4.0418    -0.0000
  1 C      6.1296     6.0000    -0.1296     3.9821     3.9821    -0.0000
  2 C      5.9011     6.0000     0.0989     4.3940     4.3940     0.0000
  3 O      8.2152     8.0000    -0.2152     2.2770     2.2770     0.0000
  4 O      8.2424     8.0000    -0.2424     2.2537     2.2537     0.0000
  5 C      6.0118     6.0000    -0.0118     4.0539     4.0539    -0.0000
  6 C      6.3041     6.0000    -0.3041     4.0131     4.0131    -0.0000
  7 H      0.8882     1.0000     0.1118     0.9563     0.9563    -0.0000
  8 H      0.8838     1.0000     0.1162     0.9460     0.9460    -0.0000
  9 H      0.8820     1.0000     0.1180     0.9551     0.9551     0.0000
 10 H      0.9007     1.0000     0.0993     0.9607     0.9607    -0.0000
 11 H      0.8948     1.0000     0.1052     0.9621     0.9621     0.0000
 12 H      0.9000     1.0000     0.1000     0.9502     0.9502    -0.0000
 13 H      0.8937     1.0000     0.1063     0.9781     0.9781    -0.0000
 14 H      0.8730     1.0000     0.1270     0.9678     0.9678    -0.0000
 15 H      0.8877     1.0000     0.1123     0.9572     0.9572    -0.0000
 16 H      0.8886     1.0000     0.1114     0.9549     0.9549     0.0000

  Mayer bond orders larger than 0.100000
B(  0-C ,  1-C ) :   1.1411 B(  0-C ,  7-H ) :   0.9542 B(  0-C ,  8-H ) :   0.9525 
B(  0-C ,  9-H ) :   0.9529 B(  1-C ,  2-C ) :   1.0255 B(  1-C , 10-H ) :   0.9082 
B(  1-C , 11-H ) :   0.9104 B(  2-C ,  3-O ) :   2.0401 B(  2-C ,  4-O ) :   1.2044 
B(  4-O ,  5-C ) :   0.9225 B(  5-C ,  6-C ) :   1.1731 B(  5-C , 12-H ) :   0.9372 
B(  5-C , 13-H ) :   0.9135 B(  6-C , 14-H ) :   0.9465 B(  6-C , 15-H ) :   0.9491 
B(  6-C , 16-H ) :   0.9445 

-------
TIMINGS
-------

Total SCF time: 0 days 0 hours 0 min 6 sec 

Total time                  ....       6.900 sec
Sum of individual times     ....       6.374 sec  ( 92.4%)

SCF preparation             ....       0.170 sec  (  2.5%)
Fock matrix formation       ....       5.412 sec  ( 78.4%)
  Startup                   ....       0.053 sec  (  1.0% of F)
  Split-RI-J                ....       1.610 sec  ( 29.8% of F)
  XC integration            ....       3.220 sec  ( 59.5% of F)
    XC Preparation          ....       0.000 sec  (  0.0% of XC)
    Basis function eval.    ....       1.070 sec  ( 33.2% of XC)
    Density eval.           ....       0.358 sec  ( 11.1% of XC)
    XC-Functional eval.     ....       0.308 sec  (  9.6% of XC)
    XC-Potential eval.      ....       0.577 sec  ( 17.9% of XC)
Diagonalization             ....       0.000 sec  (  0.0%)
Density matrix formation    ....       0.175 sec  (  2.5%)
Total Energy calculation    ....       0.030 sec  (  0.4%)
Population analysis         ....       0.061 sec  (  0.9%)
Orbital Transformation      ....       0.040 sec  (  0.6%)
Orbital Orthonormalization  ....       0.000 sec  (  0.0%)
DIIS solution               ....       0.327 sec  (  4.7%)
  MO trafo                  ....       0.000 sec  (  0.0 % of DIIS)
  Orb grad                  ....       0.000 sec  (  0.0 % of DIIS)
  Energy W gradient         ....       0.000 sec  (  0.0 % of DIIS)
  DIIS error                ....       0.002 sec  (  0.6 % of DIIS)
  DIIS work                 ....       0.292 sec  ( 89.1 % of DIIS)
  Form Q                    ....       0.000 sec  (  0.0 % of DIIS)
  Form QpQm                 ....       0.000 sec  (  0.0 % of DIIS)
  Exp/Cayley                ....       0.000 sec  (  0.0 % of DIIS)
  Orb update                ....       0.000 sec  (  0.0 % of DIIS)
  Wake-sleep                ....       0.014 sec  (  4.3 % of DIIS)
SOSCF solution              ....       0.157 sec  (  2.3%)
  MO trafo                  ....       0.056 sec  ( 35.5 % of SOSCF)
  Orb grad                  ....       0.003 sec  (  1.9 % of SOSCF)
  Rot update                ....       0.068 sec  ( 43.0 % of SOSCF)
  Step                      ....       0.031 sec  ( 19.5 % of SOSCF)
Finished LeanSCF after   7.0 sec

Maximum memory used throughout the entire LEANSCF-calculation: 11.1 MB


-------------------------------------------------------------------------------
                          DFT DISPERSION CORRECTION                            
                                                                               
                                DFTD4 V3.4.0                                   
-------------------------------------------------------------------------------
The PBE functional is recognized
Active option DFTDOPT                   ...         5   

-------------------------   ----------------
Dispersion correction           -0.012024360
-------------------------   ----------------

------------------   -----------------
gCP correction             0.076573388
------------------   -----------------

-------------------------   --------------------
FINAL SINGLE POINT ENERGY      -346.244242736205
-------------------------   --------------------


------------------------------------------------------------------------------
                              ORCA PROPERTY CALCULATIONS
------------------------------------------------------------------------------

GBWName                                 ... sp.gbw
Number of atoms                         ...     17
Number of basis functions               ...    118
Max core memory                         ...   1024 MB

Electric properties:
Dipole moment                           ... YES
Quadrupole moment                       ...  NO
Static polarizability (Dipole/Dipole)   ...  NO
Static polarizability (Dipole/Quad.)    ...  NO
Static polarizability (Quad./Quad.)     ...  NO
Static polarizability (Velocity)        ...  NO

Atomic electric properties:
Dipole moment                           ...  NO
Quadrupole moment                       ...  NO
Static polarizability                   ...  NO

Choice of electric origin               ... Center of mass
Position of electric origin             ...    -0.000001     0.000011     0.000003

General magnetic properties:
Magnetizability                         ...  NO

EPR properties:
g-Tensor (aka g-matrix)                 ...  NO
Zero-Field splitting spin-orbit         ...  NO
Zero-field splitting spin-spin          ...  NO
Hyperfine couplings                     ...  NO (   0 nuclei)
Quadrupole couplings                    ...  NO (   0 nuclei)
Contact density                         ...  NO (   0 nuclei)

NMR properties:
Chemical shifts                         ...  NO (   0 nuclei)
Spin-rotation constants                 ...  NO (   0 nuclei)
Spin-spin couplings                     ...  NO (   0 nuclei,    0 pairs)

Choice of magnetic origin               ... GIAO
Position of magnetic origin             ...     0.000000     0.000000     0.000000

Properties with geometric perturbations:
SCF Hessian                             ...  NO
IR spectrum                             ...  NO
VCD spectrum                            ...  NO
X-ray spectroscopy properties:
SCF XES/XAS/RIXS spectra                ...  NO


-------------
DIPOLE MOMENT
-------------

Method             : SCF
Type of density    : Electron Density
Multiplicity       :   1
Irrep              :   0
Energy             :  -346.3087917643349556 Eh
Relativity type    : 
Basis              : AO
                                X                 Y                 Z
Electronic contribution:     -0.022348941      -1.941413641      -0.681140423
Nuclear contribution   :      0.188522544       2.602299089       0.902796582
                        -----------------------------------------
Total Dipole Moment    :      0.166173603       0.660885449       0.221656159
                        -----------------------------------------
Magnitude (a.u.)       :      0.716599396
Magnitude (Debye)      :      1.821450913



--------------------
Rotational spectrum 
--------------------
 
Rotational constants in cm-1:             0.200765             0.048881             0.044949 
Rotational constants in MHz :          6018.791920          1465.412394          1347.548501 

Dipole components along the rotational axes: 
x,y,z [a.u.] :     0.135918     0.693705    -0.117535 
x,y,z [Debye]:     0.345476     1.763258    -0.298751 

 

Dipole moment calculation done in   0.0 sec 

Maximum memory used throughout the entire PROP-calculation: 7.0 MB

--------------------------------
SUGGESTED CITATIONS FOR THIS RUN
--------------------------------

Below you find a list of papers that are relevant to this ORCA run
We neither can nor want to force you to cite these papers, but we appreciate if you do
You receive ORCA, which is the product of decades of hard work by many enthusiastic individuals, for free
The only thing we kindly ask in return is that you cite our papers,
We deeply appreciate it, if you show your appreciation for ORCA by not just citing the generic ORCA reference.

Please note that relegating all ORCA citations to the supporting information does *not* help us.
SI sections are not indexed - citations you put there will not count into any citation statistics
But we need these citations in order to attract the funding resources that allow us to do what we are doing

Therefore, if you are a happy ORCA user, please consider citing a few of the papers listed below in the main body of your paper

In addition to the list printed below, the program has created the file sp.bibtex that contains the list in bibtex format
You can import this file easily into all common literature databanks and citation aid programs


List of essential papers. We consider these as the minimum necessary citations

  1. Neese,F.
     Software update: the ORCA program system, version 5.0
     WIRES Comput. Molec. Sci., 2022 12(1)e1606
     doi.org/10.1002/wcms.1606

List of papers to cite with high priority. The work reported in these papers was absolutely
necessary for this run to complete.
Our perspective: the developers of density functionals and basis sets usually get cited in chemistry papers
Good! But without the algorithms to do something with them, the functionals or basis sets would not do anything.
Hence, in our opinion, the algorithm design and method developments papers are equally worthy of getting cited

  1. Neese,F.
     An improvement of the resolution of the identity approximation for the formation of the Coulomb matrix
     J. Comp. Chem., 2003 24(14)1740-1747
     doi.org/10.1002/jcc.10318
  2. Neese,F.
     The SHARK Integral Generation and Digestion System
     J. Comp. Chem., 2022  1-16
     doi.org/10.1002/jcc.26942
  3. Caldeweyher,E.; Bannwarth,C.; Grimme,S.
     Extension of the D3 dispersion coefficient model
     J. Chem. Phys., 2017 147 034112-XXXX
     doi.org/10.1063/1.4993215
  4. Caldeweyher,E.; Ehlert,S.; Hansen,A.; Neugebauer,H.; Spicher,S.; Bannwarth,C.; Grimme,S.
     A generally applicable atomic-charge dependent London dispersion correction
     J. Chem. Phys., 2019 150 154122-XXXX
     doi.org/10.1063/1.5090222
  5. Caldeweyher,E.; Mewes,J.; Ehlert,S.; Grimme,S.
     Extension and evaluation of the D4 London-dispersion model for periodic systems
     Phys. Chem. Chem. Phys., 2020 22(16)8499-8512
     doi.org/10.1039/D0CP00502A

List of suggested additional citations. These are papers that are important in the 'surrounding' of 
of this run, or papers that preceded the highly important papers. If you like your results we are grateful for a citation.

  1. Neese,F.
     The ORCA program system
     WIRES Comput. Molec. Sci., 2012 2(1)73-78
     doi.org/10.1002/wcms.81
  2. Neese,F.
     Software update: the ORCA program system, version 4.0
     WIRES Comput. Molec. Sci., 2018 8(1)1-6
     doi.org/10.1002/wcms.1327
  3. Neese,F.; Wennmohs,F.; Becker,U.; Riplinger,C.
     The ORCA quantum chemistry program package
     J. Chem. Phys., 2020 152 Art. No. L224108
     doi.org/10.1063/5.0004608

List of optional additional citations

  1. Neese,F.
     Approximate second-order SCF convergence for spin unrestricted wavefunctions
     Chem. Phys. Lett., 2000 325(1-3)93-98
     doi.org/10.1016/s0009-2614(00)00662-x

Timings for individual modules:

Sum of individual times          ...        8.277 sec (=   0.138 min)
Startup calculation              ...        0.615 sec (=   0.010 min)   7.4 %
SCF iterations                   ...        7.567 sec (=   0.126 min)  91.4 %
Property calculations            ...        0.095 sec (=   0.002 min)   1.1 %
                             ****ORCA TERMINATED NORMALLY****
TOTAL RUN TIME: 0 days 0 hours 0 minutes 8 seconds 987 msec
