      -----------------------------------------------------------      
     |                   =====================                   |     
     |                           x T B                           |     
     |                   =====================                   |     
     |                         S. Grimme                         |     
     |          Mulliken Center for Theoretical Chemistry        |     
     |                    University of Bonn                     |     
      -----------------------------------------------------------      

   * xtb version 6.7.1 (edcfbbe) compiled by 'albert@albert-system' on 2024-07-22

   xtb is free software: you can redistribute it and/or modify it under
   the terms of the GNU Lesser General Public License as published by
   the Free Software Foundation, either version 3 of the License, or
   (at your option) any later version.
   
   xtb is distributed in the hope that it will be useful,
   but WITHOUT ANY WARRANTY; without even the implied warranty of
   MERCHANTABILITY or FITNESS FOR A PARTICULAR PURPOSE.  See the
   GNU Lesser General Public License for more details.
   
   Cite this work as:
   * C. Bannwarth, E. Caldeweyher, S. Ehlert, A. Hansen, P. Pracht,
     J. Seibert, S. Spicher, S. Grimme, WIREs Comput. Mol. Sci., 2020, 11,
     e01493. DOI: 10.1002/wcms.1493
   
   for GFN2-xTB:
   * C. Bannwarth, S. Ehlert and S. Grimme., J. Chem. Theory Comput., 2019,
     15, 1652-1671. DOI: 10.1021/acs.jctc.8b01176
   for GFN1-xTB:
   * S. Grimme, C. Bannwarth, P. Shushkov, J. Chem. Theory Comput., 2017,
     13, 1989-2009. DOI: 10.1021/acs.jctc.7b00118
   for GFN0-xTB:
   * P. Pracht, E. Caldeweyher, S. Ehlert, S. Grimme, ChemRxiv, 2019, preprint.
     DOI: 10.26434/chemrxiv.8326202.v1
   for GFN-FF:
   * S. Spicher and S. Grimme, Angew. Chem. Int. Ed., 2020, 59, 15665-15673.
     DOI: 10.1002/anie.202004239
   
   for ALPB and GBSA implicit solvation:
   * S. Ehlert, M. Stahn, S. Spicher, S. Grimme, J. Chem. Theory Comput.,
     2021, 17, 4250-4261. DOI: 10.1021/acs.jctc.1c00471
   
   for ddCOSMO and CPCM-X implicit solvation:
   * M. Stahn, S. Ehlert, S. Grimme, J. Phys. Chem. A,
     2023, XX, XXXX-XXXX. DOI: 10.1021/acs.jpca.3c04382
   
   for DFT-D4:
   * E. Caldeweyher, C. Bannwarth and S. Grimme, J. Chem. Phys., 2017,
     147, 034112. DOI: 10.1063/1.4993215
   * E. Caldeweyher, S. Ehlert, A. Hansen, H. Neugebauer, S. Spicher,
     C. Bannwarth and S. Grimme, J. Chem. Phys., 2019, 150, 154122.
     DOI: 10.1063/1.5090222
   * E. Caldeweyher, J.-M. Mewes, S. Ehlert and S. Grimme, Phys. Chem. Chem. Phys.
     2020, 22, 8499-8512. DOI: 10.1039/D0CP00502A
   
   for sTDA-xTB:
   * S. Grimme and C. Bannwarth, J. Chem. Phys., 2016, 145, 054103.
     DOI: 10.1063/1.4959605
   
   in the mass-spec context:
   * V. Asgeirsson, C. Bauer and S. Grimme, Chem. Sci., 2017, 8, 4879.
     DOI: 10.1039/c7sc00601b
   * J. Koopman and S. Grimme, ACS Omega 2019, 4, 12, 15120-15133.
     DOI: 10.1021/acsomega.9b02011
   
   for metadynamics refer to:
   * S. Grimme, J. Chem. Theory Comput., 2019, 155, 2847-2862
     DOI: 10.1021/acs.jctc.9b00143
   
   for SPH calculations refer to:
   * S. Spicher and S. Grimme, J. Chem. Theory Comput., 2021, 17, 1701-1714
     DOI: 10.1021/acs.jctc.0c01306
   
   for ONIOM refer to:
   * C. Plett, A. Katbashev, S. Ehlert, S. Grimme, M. Bursch,
     Phys. Chem. Chem. Phys., 2023, 25, 17860-17868. DOI: 10.1039/D3CP02178E
   
   for DIPRO refer to:
   * J. Kohn, N. Gildemeister, S. Grimme, D. Fazzi, A. Hansen,
     J. Chem. Phys., 2023, just accepted.
   
   for PTB refer to:
   * S. Grimme, M. Mueller, A. Hansen, J. Chem. Phys., 2023, 158, 124111.
     DOI: 10.1063/5.0137838
   
   with help from (in alphabetical order)
   P. Atkinson, C. Bannwarth, F. Bohle, G. Brandenburg, E. Caldeweyher
   M. Checinski, S. Dohm, S. Ehlert, S. Ehrlich, I. Gerasimov, C. Hölzer
   A. Katbashev, J. Kohn, J. Koopman, C. Lavigne, S. Lehtola, F. März, M. Müller,
   F. Musil, H. Neugebauer, J. Pisarek, C. Plett, P. Pracht, F. Pultar,
   J. Seibert, P. Shushkov, S. Spicher, M. Stahn, M. Steiner, T. Strunk,
   J. Stückrath, T. Rose, and J. Unsleber
   
 * started run on 2025/04/11 at 12:03:26.697     
   ID    Z sym.   atoms
    1    6 C      1-3, 6-11
    2    8 O      4
    3    7 N      5
    4   17 Cl     12, 13
    5    1 H      14-22

           -------------------------------------------------
          |                Calculation Setup                |
           -------------------------------------------------

          program call               : /srv/scratch/z5358697/.xtb/bin/xtb xtb_opt.coord --opt normal --orca -I xtb_opt-xcontrol-inp
          hostname                   : k133
          coordinate file            : xtb_opt.coord
          omp threads                :                    16

           -------------------------------------------------
          |                   Orca driver                   |
           -------------------------------------------------
orca executable           : /apps/z_install_tree/linux-rocky8-ivybridge/gcc-12.2.0/orca-6.0.0-srtngmq3qlimg2qxbl6avaaiffipurdx/bin/orca
orca input file           : xtb_opt.inp
orca input line           : 
orca parallel             : true
orca number of threads    : 16
                         * ORCA takes the control...
  ------------------------------------------------------------------------

                                 *****************
                                 * O   R   C   A *
                                 *****************

                                            #,                                       
                                            ###                                      
                                            ####                                     
                                            #####                                    
                                            ######                                   
                                           ########,                                 
                                     ,,################,,,,,                         
                               ,,#################################,,                 
                          ,,##########################################,,             
                       ,#########################################, ''#####,          
                    ,#############################################,,   '####,        
                  ,##################################################,,,,####,       
                ,###########''''           ''''###############################       
              ,#####''   ,,,,##########,,,,          '''####'''          '####       
            ,##' ,,,,###########################,,,                        '##       
           ' ,,###''''                  '''############,,,                           
         ,,##''                                '''############,,,,        ,,,,,,###''
      ,#''                                            '''#######################'''  
     '                                                          ''''####''''         
             ,#######,   #######,   ,#######,      ##                                
            ,#'     '#,  ##    ##  ,#'     '#,    #''#        ,####,   ,####,        
            ##       ##  ##   ,#'  ##            #'  '#       #'       #'  '#        
            ##       ##  #######   ##           ,######,      #####,   #    #        
            '#,     ,#'  ##    ##  '#,     ,#' ,#      #,     #,   #   #,  ,#        
             '#######'   ##     ##  '#######'  #'      '#     '####' # '####'        



                #########################################################
                #                        -***-                          #
                #          Department of theory and spectroscopy        #
                #                                                       #
                #                      Frank Neese                      #
                #                                                       #
                #     Directorship, Architecture, Infrastructure        #
                #                    SHARK, DRIVERS                     #
                #        Core code/Algorithms in most modules           #
                #                                                       #
                #        Max Planck Institute fuer Kohlenforschung      #
                #                Kaiser Wilhelm Platz 1                 #
                #                 D-45470 Muelheim/Ruhr                 #
                #                      Germany                          #
                #                                                       #
                #                  All rights reserved                  #
                #                        -***-                          #
                #########################################################


                         Program Version 6.0.0  -   RELEASE  -


 With contributions from (in alphabetic order):
   Daniel Aravena         : Magnetic Suceptibility
   Michael Atanasov       : Ab Initio Ligand Field Theory (pilot matlab implementation)
   Alexander A. Auer      : GIAO ZORA, VPT2 properties, NMR spectrum
   Ute Becker             : All parallelization in ORCA, NUMFREQ, NUMCALC
   Giovanni Bistoni       : ED, misc. LED, open-shell LED, HFLD
   Martin Brehm           : Molecular dynamics
   Dmytro Bykov           : pre 5.0 version of the SCF Hessian
   Marcos Casanova-Páez   : Triplet and SCS-CIS(D). UHF-(DLPNO)-IP/EA/STEOM-CCSD. UHF-CVS-IP/STEOM-CCSD
   Vijay G. Chilkuri      : MRCI spin determinant printing, contributions to CSF-ICE
   Pauline Colinet        : FMM embedding
   Dipayan Datta          : RHF DLPNO-CCSD density
   Achintya Kumar Dutta   : EOM-CC, STEOM-CC
   Nicolas Foglia         : Exact transition moments, OPA infrastructure, MCD improvements
   Dmitry Ganyushin       : Spin-Orbit,Spin-Spin,Magnetic field MRCI
   Miquel Garcia          : C-PCM and meta-GGA Hessian, CCSD/C-PCM, Gaussian charge scheme
   Tiago L. C. Gouveia    : GS-ROHF, GS-ROCIS
   Yang Guo               : DLPNO-NEVPT2, F12-NEVPT2, CIM, IAO-localization
   Andreas Hansen         : Spin unrestricted coupled pair/coupled cluster methods
   Ingolf Harden          : AUTO-CI MPn and infrastructure 
   Benjamin Helmich-Paris : MC-RPA, TRAH-(SCF,CASSCF), AVAS, COSX integrals, SCF dyn. polar.
   Lee Huntington         : MR-EOM, pCC
   Robert Izsak           : Overlap fitted RIJCOSX, COSX-SCS-MP3, EOM
   Riya Kayal             : Wick's Theorem for AUTO-CI, AUTO-CI UHF-CCSDT
   Emily Kempfer          : AUTO-CI, RHF CISDT and CCSDT
   Christian Kollmar      : KDIIS, OOCD, Brueckner-CCSD(T), CCSD density, CASPT2, CASPT2-K, improved NEVPT2
   Axel Koslowski         : Symmetry handling
   Simone Kossmann        : Meta GGA functionals, TD-DFT gradient, OOMP2, (MP2 Hessian; deprecated post 5.0)
   Lucas Lang             : DCDCAS
   Marvin Lechner         : AUTO-CI (C++ implementation), FIC-MRCC
   Spencer Leger          : CASSCF response
   Dagmar Lenk            : GEPOL surface, SMD, ORCA-2-JSON
   Dimitrios Liakos       : Extrapolation schemes; Compound Job, initial MDCI parallelization
   Dimitrios Manganas     : Further ROCIS development; embedding schemes. LFT, Crystal Embedding
   Dimitrios Pantazis     : SARC Basis sets
   Anastasios Papadopoulos: AUTO-CI, single reference methods and gradients
   Taras Petrenko         : pre 6.0 DFT Hessian and TD-DFT gradient, (ASA, deprecated), ECA, 1-Electron XAS/XES, NRVS
   Peter Pinski           : DLPNO-MP2, DLPNO-MP2 Gradient
   Christoph Reimann      : Effective Core Potentials
   Marius Retegan         : Local ZFS, SOC
   Christoph Riplinger    : Optimizer, TS searches, QM/MM, DLPNO-CCSD(T), (RO)-DLPNO pert. Triples
   Michael Roemelt        : Original ROCIS implementation
   Masaaki Saitow         : Open-shell DLPNO-CCSD energy and density
   Barbara Sandhoefer     : DKH picture change effects
   Kantharuban Sivalingam : CASSCF convergence/infrastructure, NEVPT2 and variants, FIC-MRCI
   Bernardo de Souza      : ESD, SOC TD-DFT
   Georgi Stoychev        : AutoAux, RI-MP2 NMR, DLPNO-MP2 response, X2C
   Van Anh Tran           : RI-MP2 g-tensors
   Willem Van den Heuvel  : Paramagnetic NMR
   Zikuan Wang            : NOTCH, Electric field optimization 
   Frank Wennmohs         : Technical directorship and infrastructure
   Hang Xu                : AUTO-CI-Response properties 


 We gratefully acknowledge several colleagues who have allowed us to
 interface, adapt or use parts of their codes:
   Stefan Grimme, W. Hujo, H. Kruse, P. Pracht,  : VdW corrections, initial TS optimization,
                  C. Bannwarth, S. Ehlert,         DFT functionals, gCP, sTDA/sTD-DF
                  L. Wittmann, M. Mueller
   Ed Valeev, F. Pavosevic, A. Kumar             : LibInt (2-el integral package), F12 methods
   Garnet Chan, S. Sharma, J. Yang, R. Olivares  : DMRG
   Ulf Ekstrom                                   : XCFun DFT Library
   Mihaly Kallay                                 : mrcc  (arbitrary order and MRCC methods)
   Frank Weinhold                                : gennbo (NPA and NBO analysis)
   Simon Mueller                                 : openCOSMO-RS
   Christopher J. Cramer and Donald G. Truhlar   : smd solvation model
   Lars Goerigk                                  : TD-DFT with DH, B97 family of functionals
   V. Asgeirsson, H. Jonsson                     : NEB implementation
   FAccTs GmbH                                   : IRC, NEB, NEB-TS, DLPNO-Multilevel, CI-OPT
                                                   MM, QMMM, 2- and 3-layer-ONIOM, Crystal-QMMM,
                                                   LR-CPCM, SF, NACMEs, symmetry and pop. for TD-DFT,
                                                   nearIR, NL-DFT gradient (VV10), updates on ESD,
                                                   ML-optimized integration grids, MBIS, APM,
                                                   GOAT, DOCKER, SOLVATOR, interface openCOSMO-RS
   S Lehtola, MJT Oliveira, MAL Marques          : LibXC Library
   Liviu Ungur et al                             : ANISO software


 Your calculation uses the libint2 library for the computation of 2-el integrals
 For citations please refer to: http://libint.valeyev.net

 Your ORCA version has been built with support for libXC version: 6.2.2
 For citations please refer to: https://libxc.gitlab.io

 This ORCA versions uses:
   CBLAS   interface :  Fast vector & matrix operations
   LAPACKE interface :  Fast linear algebra routines
   SCALAPACK package :  Parallel linear algebra routines
   Shared memory     :  Shared parallel matrices
   BLAS/LAPACK       :  OpenBLAS 0.3.27  USE64BITINT DYNAMIC_ARCH NO_AFFINITY SkylakeX SINGLE_THREADED
        Core in use  :  SkylakeX
   Copyright (c) 2011-2014, The OpenBLAS Project




***************************************
The coordinates will be read from file: xtb_opt.xyz
***************************************


Your calculation utilizes the geometrical counterpoise correction gCP
Please cite in your paper:
H.Kruse, S. Grimme J.Chem.Phys., 136, (2012), 154101 
   

Your calculation utilizes the atom-pairwise dispersion correction
based on EEQ partial charges (D4)


Your calculation utilizes the SMD solvation module
Please cite in your paper:
A.V. Marenich, C.J. Cramer, D.G. Truhlar J. Phys. Chem. B, 113, (2009), 6378 

================================================================================

----- Orbital basis set information -----
Your calculation utilizes the basis: def2-mTZVPP
   Stefan Grimme, Andreas Hansen, Sebastian Ehlert, and Jan-Michael Mewes 
   J. Chem. Phys. 154, 064103 (2021). DOI: 10.1063/5.0040021

----- AuxJ basis set information -----
Your calculation utilizes the auxiliary basis: def2/J
   F. Weigend, Phys. Chem. Chem. Phys. 8, 1057 (2006).

================================================================================
                                        WARNINGS
                       Please study these warnings very carefully!
================================================================================

Using LibXC functional ID 497 : Re-regularized SCAN exchange by Furness et al
[ 1]  J. W. Furness, A. D. Kaplan, J. Ning, J. P. Perdew, and J. Sun.,  J. Phys. Chem. Lett. 11, 8208-8215 (2020)
[ 2]  J. W. Furness, A. D. Kaplan, J. Ning, J. P. Perdew, and J. Sun.,  J. Phys. Chem. Lett. 11, 9248-9248 (2020)
Using LibXC functional ID 498 : Re-regularized SCAN correlation by Furness et al
[ 1]  J. W. Furness, A. D. Kaplan, J. Ning, J. P. Perdew, and J. Sun.,  J. Phys. Chem. Lett. 11, 8208-8215 (2020)
[ 2]  J. W. Furness, A. D. Kaplan, J. Ning, J. P. Perdew, and J. Sun.,  J. Phys. Chem. Lett. 11, 9248-9248 (2020)
Using LibXC functional ID 497 : Re-regularized SCAN exchange by Furness et al
[ 1]  J. W. Furness, A. D. Kaplan, J. Ning, J. P. Perdew, and J. Sun.,  J. Phys. Chem. Lett. 11, 8208-8215 (2020)
[ 2]  J. W. Furness, A. D. Kaplan, J. Ning, J. P. Perdew, and J. Sun.,  J. Phys. Chem. Lett. 11, 9248-9248 (2020)
Using LibXC functional ID 498 : Re-regularized SCAN correlation by Furness et al
[ 1]  J. W. Furness, A. D. Kaplan, J. Ning, J. P. Perdew, and J. Sun.,  J. Phys. Chem. Lett. 11, 8208-8215 (2020)
[ 2]  J. W. Furness, A. D. Kaplan, J. Ning, J. P. Perdew, and J. Sun.,  J. Phys. Chem. Lett. 11, 9248-9248 (2020)

================================================================================
                                       INPUT FILE
================================================================================
NAME = xtb_opt.inp
|  1> ! r2scan-3c def2/J RI DEFGRID2 scfconv7 ENGRAD tightSCF miniprint
|  2> %cpcm
|  3>     smd true
|  4>     smdsolvent "water"
|  5> end
|  6> * xyzfile 0 1 xtb_opt.xyz
|  7> 
|  8>                          ****END OF INPUT****
================================================================================

                     *******************************
                     * Energy+Gradient Calculation *
                     *******************************

---------------------------------
CARTESIAN COORDINATES (ANGSTROEM)
---------------------------------
  C      5.332775   -0.319063    0.697572
  C      4.480773    0.324524   -0.396864
  C      3.048120   -0.160193   -0.297947
  O      2.766959   -1.348651   -0.303650
  N      2.128270    0.838855   -0.205081
  C      0.741641    0.752333   -0.112308
  C      0.012103    1.941662   -0.043765
  C     -1.363936    1.918092    0.048614
  C     -2.038812    0.706639    0.074654
  C     -1.318198   -0.478712    0.007791
  C      0.062113   -0.463161   -0.084929
  Cl    -2.143405   -2.003373    0.039373
  Cl    -3.768107    0.676785    0.189741
  H      5.223686   -1.400312    0.660571
  H      5.015701    0.023528    1.679467
  H      6.379575   -0.065477    0.558786
  H      4.859738    0.009185   -1.371096
  H      4.539237    1.409322   -0.331437
  H      2.482749    1.787367   -0.209589
  H      0.522614    2.890993   -0.063192
  H     -1.926757    2.834954    0.100975
  H      0.608220   -1.390073   -0.136227

----------------------------
CARTESIAN COORDINATES (A.U.)
----------------------------
  NO LB      ZA    FRAG     MASS         X           Y           Z
   0 C     6.0000    0    12.011   10.077485   -0.602942    1.318220
   1 C     6.0000    0    12.011    8.467433    0.613262   -0.749964
   2 C     6.0000    0    12.011    5.760113   -0.302722   -0.563037
   3 O     8.0000    0    15.999    5.228794   -2.548580   -0.573815
   4 N     7.0000    0    14.007    4.021848    1.585207   -0.387547
   5 C     6.0000    0    12.011    1.401498    1.421704   -0.212231
   6 C     6.0000    0    12.011    0.022870    3.669209   -0.082703
   7 C     6.0000    0    12.011   -2.577465    3.624668    0.091866
   8 C     6.0000    0    12.011   -3.852796    1.335354    0.141075
   9 C     6.0000    0    12.011   -2.491033   -0.904634    0.014723
  10 C     6.0000    0    12.011    0.117376   -0.875248   -0.160492
  11 Cl   17.0000    0    35.453   -4.050448   -3.785827    0.074405
  12 Cl   17.0000    0    35.453   -7.120691    1.278937    0.358559
  13 H     1.0000    0     1.008    9.871336   -2.646207    1.248298
  14 H     1.0000    0     1.008    9.478301    0.044462    3.173733
  15 H     1.0000    0     1.008   12.055649   -0.123734    1.055953
  16 H     1.0000    0     1.008    9.183573    0.017357   -2.590996
  17 H     1.0000    0     1.008    8.577915    2.663233   -0.626326
  18 H     1.0000    0     1.008    4.691716    3.377634   -0.396066
  19 H     1.0000    0     1.008    0.987597    5.463185   -0.119415
  20 H     1.0000    0     1.008   -3.641042    5.357287    0.190815
  21 H     1.0000    0     1.008    1.149370   -2.626857   -0.257431

------------------------------------------------------------------------------
                   ___                                                        
                  /   \      - P O W E R E D   B Y -                         
                 /     \                                                     
                 |  |  |   _    _      __       _____    __    __             
                 |  |  |  | |  | |    /  \     |  _  \  |  |  /  |          
                  \  \/   | |  | |   /    \    | | | |  |  | /  /          
                 / \  \   | |__| |  /  /\  \   | |_| |  |  |/  /          
                |  |  |   |  __  | /  /__\  \  |    /   |      \           
                |  |  |   | |  | | |   __   |  |    \   |  |\   \          
                \     /   | |  | | |  |  |  |  | |\  \  |  | \   \       
                 \___/    |_|  |_| |__|  |__|  |_| \__\ |__|  \__/        
                                                                              
                      - O R C A' S   B I G   F R I E N D -                    
                                      &                                       
                       - I N T E G R A L  F E E D E R -                       
                                                                              
 v1 FN, 2020, v2 2021, v3 2022-2024                                           
------------------------------------------------------------------------------


----------------------
SHARK INTEGRAL PACKAGE
----------------------

Number of atoms                             ...     22
Number of basis functions                   ...    318
Number of shells                            ...    150
Maximum angular momentum                    ...      2
Integral batch strategy                     ... SHARK/LIBINT Hybrid
RI-J (if used) integral strategy            ... SPLIT-RIJ (Revised 2003 algorithm where possible)
Printlevel                                  ...      1
Contraction scheme used                     ... SEGMENTED contraction
Prescreening option                         ... SCHWARTZ
   Thresh                                   ... 3.000e-11
   Tcut                                     ... 1.000e-12
   Tpresel                                  ... 1.000e-12 
Coulomb Range Separation                    ... NOT USED
Exchange Range Separation                   ... NOT USED
Multipole approximations                    ... NOT USED
Finite Nucleus Model                        ... NOT USED
CABS basis                                  ... NOT available
Auxiliary Coulomb fitting basis             ... AVAILABLE
   # of basis functions in Aux-J            ...    740
   # of shells in Aux-J                     ...    244
   Maximum angular momentum in Aux-J        ...      4
Auxiliary J/K fitting basis                 ... NOT available
Auxiliary Correlation fitting basis         ... NOT available
Auxiliary 'external' fitting basis          ... NOT available

Checking pre-screening integrals            ... done (  0.0 sec) Dimension = 150
Check shell pair data                       ... done (  0.0 sec)
Shell pair information
Shell pair cut-off parameter TPreSel        ...   1.0e-12
Total number of shell pairs                 ...     11325
Shell pairs after pre-screening             ...      8838
Total number of primitive shell pairs       ...     44009
Primitive shell pairs kept                  ...     22514
          la=0 lb=0:   2589 shell pairs
          la=1 lb=0:   3294 shell pairs
          la=1 lb=1:   1062 shell pairs
          la=2 lb=0:   1081 shell pairs
          la=2 lb=1:    687 shell pairs
          la=2 lb=2:    125 shell pairs

Calculating one electron integrals          ... done (  0.0 sec)
Calculating RI/J V-Matrix + Cholesky decomp.... done (  0.1 sec)
Calculating Nuclear repulsion               ... done (  0.0 sec) ENN=    935.833223904207 Eh

Diagonalization of the overlap matrix:
Smallest eigenvalue                        ... 1.785e-05
Time for diagonalization                   ...    0.011 sec
Threshold for overlap eigenvalues          ... 1.000e-07
Number of eigenvalues below threshold      ... 0
Time for construction of square roots      ...    0.021 sec
Total time needed                          ...    0.041 sec

-------------------
DFT GRID GENERATION
-------------------

General Integration Accuracy     IntAcc      ... 4.388
Radial Grid Type                 RadialGrid  ... OptM3 with GC (2021)
Angular Grid (max. ang.)         AngularGrid ... 4 (Lebedev-302)
Angular grid pruning method      GridPruning ... 4 (adaptive)
Weight generation scheme         WeightScheme... mBecke (2022)
Basis function cutoff            BFCut       ... 1.0000e-11
Integration weight cutoff        WCut        ... 1.0000e-14
Partially contracted basis set               ... off
Rotationally invariant grid construction     ... off
Angular grids for H and He will be reduced by one unit
Diffuse basis detected: some atoms will have their outermost
                        angular grid increased by 1.

Total number of grid points                  ...   109755
Total number of batches                      ...     1730
Average number of points per batch           ...       63
Average number of grid points per atom       ...     4989
Initializing property integral containers    ... done (  0.0 sec)

SHARK setup successfully completed in   1.7 seconds

Maximum memory used throughout the entire STARTUP-calculation: 53.7 MB
Occupation numbers will be reassigned to an Aufbau configuration
             **** ENERGY FILE WAS UPDATED (xtb_opt.en.tmp) ****
Finished Guess after   0.3 sec
Maximum memory used throughout the entire GUESS-calculation: 24.4 MB
--------------------
CPCM SOLVATION MODEL
--------------------
CPCM parameters:
  Epsilon                                         ...      78.3550
  Refrac                                          ...       1.3328
  Rsolv                                           ...       1.3000
  Surface type                                    ... GAUSSIAN VDW
  Discretization scheme                           ... Constant charge density
    Threshold for H atoms                         ...       5.0000 (charges/Ang^2)
    Threshold for non-H atoms                     ...       5.0000 (charges/Ang^2)
  Epsilon function type                           ...         CPCM
Solvent:                                          ... WATER
SMD-CDS solvent descriptors:
  Soln                                            ...       1.3328
  Soln25                                          ...       1.3323
  Sola                                            ...       0.0000
  Solb                                            ...       0.0000
  Solg                                            ...       0.0000
  Solc                                            ...       0.0000
  Solh                                            ...       0.0000
Radii:
  Scheme                                          ... Element-dependent radii
  Radius for C  used is    3.4960 Bohr (=   1.8500 Ang.)
  Radius for O  used is    2.8724 Bohr (=   1.5200 Ang.)
  Radius for N  used is    3.5716 Bohr (=   1.8900 Ang.)
  Radius for Cl used is    4.4975 Bohr (=   2.3800 Ang.)
  Radius for H  used is    2.2677 Bohr (=   1.2000 Ang.)
Calculating surface                               ...        done! (  0.0s)
Cavity surface points                             ...         1846
Cavity Volume                                     ...    1578.4658
Cavity Surface-area                               ...     878.0988
Calculating surface distance matrix               ...        done! (  0.0s)
Performing Cholesky decomposition & store         ...        done! (  0.2s)
Overall time for CPCM initialization              ...                 0.2s

----------------------------------------D-I-I-S--------------------------------------------
Iteration    Energy (Eh)           Delta-E    RMSDP     MaxDP     DIISErr   Damp  Time(sec)
-------------------------------------------------------------------------------------------
               ***  Starting incremental Fock matrix formation  ***
                              *** Initializing SOSCF ***
---------------------------------------S-O-S-C-F--------------------------------------
Iteration    Energy (Eh)           Delta-E    RMSDP     MaxDP     MaxGrad    Time(sec)
--------------------------------------------------------------------------------------
    1    -1398.6437701365916837     0.00e+00  4.53e-06  1.11e-04  1.53e-05     6.1
               *** Restarting incremental Fock matrix formation ***
    2    -1398.6437701354434466     1.15e-09  5.14e-06  1.49e-04  3.24e-05     6.1
    3    -1398.6437699402658836     1.95e-07  3.65e-06  1.02e-04  8.26e-05     4.5
    4    -1398.6437702102998628    -2.70e-07  1.44e-06  3.37e-05  1.09e-05     4.4
                  *** Gradient check signals convergence ***

               *****************************************************
               *                     SUCCESS                       *
               *           SCF CONVERGED AFTER   4 CYCLES          *
               *****************************************************


SMD CDS free energy correction energy :                 4.95087     Kcal/mol
Total Energy after SMD CDS correction =             -1398.635880496 Eh
             **** ENERGY FILE WAS UPDATED (xtb_opt.en.tmp) ****

----------------
TOTAL SCF ENERGY
----------------

Total Energy       :      -1398.63588049619375 Eh          -38058.81718 eV

Components:
Nuclear Repulsion  :        935.83322390420665 Eh           25465.31665 eV
Electronic Energy  :      -2334.44859283379537 Eh          -63523.57569 eV
One Electron Energy:      -3778.74794721198214 Eh         -102824.95916 eV
Two Electron Energy:       1444.29935437818699 Eh           39301.38348 eV
CPCM Dielectric    :         -0.02840128071145 Eh              -0.77284 eV
SMD CDS (Gcds)     :          0.00788971410609 Eh               0.21469 eV

Virial components:
Potential Energy   :      -2793.26056225633329 Eh          -76008.48410 eV
Kinetic Energy     :       1394.62468176013931 Eh           37949.66691 eV
Virial Ratio       :          2.00287618510451

DFT components:
N(Alpha)           :       55.999993550807 electrons
N(Beta)            :       55.999993550807 electrons
N(Total)           :      111.999987101613 electrons
E(X)               :     -120.166958842599 Eh       
E(C)               :       -3.878585310242 Eh       
E(XC)              :     -124.045544152842 Eh       

CPCM Solvation Model Properties:
Surface-charge          :         -0.03413242474549
Corrected charge        :         -0.00000000000000
Outlying charge corr.   :          0.00007048038605 Eh               0.00192 eV
Free-energy (cav+disp)  :          0.00788971410609 Eh               0.21469 eV

---------------
SCF CONVERGENCE
---------------

  Last Energy change         ...    2.7003e-07  Tolerance :   1.0000e-07
  Last MAX-Density change    ...    3.3668e-05  Tolerance :   1.0000e-07
  Last RMS-Density change    ...    1.4358e-06  Tolerance :   5.0000e-09
  Last DIIS Error            ...    1.2043e-04  Tolerance :   1.0000e-07
  Last Orbital Gradient      ...    1.0930e-05  Tolerance :   1.0000e-04
  Last Orbital Rotation      ...    4.1085e-05  Tolerance :   1.0000e-04


----------------
ORBITAL ENERGIES
----------------

  NO   OCC          E(Eh)            E(eV) 
   0   2.0000    -101.230828     -2754.6309 
   1   2.0000    -101.229217     -2754.5870 
   2   2.0000     -18.934880      -515.2443 
   3   2.0000     -14.210824      -386.6962 
   4   2.0000     -10.145333      -276.0685 
   5   2.0000     -10.114705      -275.2351 
   6   2.0000     -10.109000      -275.0799 
   7   2.0000     -10.099557      -274.8229 
   8   2.0000     -10.056627      -273.6547 
   9   2.0000     -10.051286      -273.5094 
  10   2.0000     -10.050316      -273.4830 
  11   2.0000     -10.036025      -273.0941 
  12   2.0000     -10.018693      -272.6225 
  13   2.0000      -9.386691      -255.4248 
  14   2.0000      -9.385081      -255.3810 
  15   2.0000      -7.133005      -194.0989 
  16   2.0000      -7.131374      -194.0545 
  17   2.0000      -7.123036      -193.8277 
  18   2.0000      -7.122310      -193.8079 
  19   2.0000      -7.121392      -193.7829 
  20   2.0000      -7.120749      -193.7654 
  21   2.0000      -1.022918       -27.8350 
  22   2.0000      -0.925028       -25.1713 
  23   2.0000      -0.887018       -24.1370 
  24   2.0000      -0.829053       -22.5597 
  25   2.0000      -0.809205       -22.0196 
  26   2.0000      -0.748580       -20.3699 
  27   2.0000      -0.724547       -19.7159 
  28   2.0000      -0.705979       -19.2107 
  29   2.0000      -0.631437       -17.1823 
  30   2.0000      -0.605733       -16.4828 
  31   2.0000      -0.578305       -15.7365 
  32   2.0000      -0.553775       -15.0690 
  33   2.0000      -0.511863       -13.9285 
  34   2.0000      -0.471886       -12.8407 
  35   2.0000      -0.470172       -12.7940 
  36   2.0000      -0.447797       -12.1852 
  37   2.0000      -0.433385       -11.7930 
  38   2.0000      -0.428108       -11.6494 
  39   2.0000      -0.412352       -11.2207 
  40   2.0000      -0.405823       -11.0430 
  41   2.0000      -0.398883       -10.8542 
  42   2.0000      -0.389497       -10.5988 
  43   2.0000      -0.375030       -10.2051 
  44   2.0000      -0.348604        -9.4860 
  45   2.0000      -0.348319        -9.4782 
  46   2.0000      -0.334530        -9.1030 
  47   2.0000      -0.329121        -8.9558 
  48   2.0000      -0.326728        -8.8907 
  49   2.0000      -0.311365        -8.4727 
  50   2.0000      -0.306301        -8.3349 
  51   2.0000      -0.284598        -7.7443 
  52   2.0000      -0.280778        -7.6404 
  53   2.0000      -0.245037        -6.6678 
  54   2.0000      -0.238452        -6.4886 
  55   2.0000      -0.213464        -5.8087 
  56   0.0000      -0.057627        -1.5681 
  57   0.0000      -0.052588        -1.4310 
  58   0.0000      -0.020836        -0.5670 
  59   0.0000       0.003803         0.1035 
  60   0.0000       0.038214         1.0399 
  61   0.0000       0.074537         2.0282 
  62   0.0000       0.102535         2.7901 
  63   0.0000       0.104753         2.8505 
  64   0.0000       0.106352         2.8940 
  65   0.0000       0.116524         3.1708 
  66   0.0000       0.131830         3.5873 
*Only the first 10 virtual orbitals were printed.
Total SCF time: 0 days 0 hours 0 min 21 sec 
Finished LeanSCF after  21.9 sec

Maximum memory used throughout the entire LEANSCF-calculation: 47.6 MB


-------------------------------------------------------------------------------
                          DFT DISPERSION CORRECTION                            
                                                                               
                                DFTD4 V3.4.0                                   
-------------------------------------------------------------------------------
-------------------------   ----------------
Dispersion correction           -0.009001479
-------------------------   ----------------

------------------   -----------------
gCP correction             0.013264281
------------------   -----------------

-------------------------   --------------------
FINAL SINGLE POINT ENERGY     -1398.631617694215
-------------------------   --------------------

------------------------------------------------------------------------------
                         ORCA SCF GRADIENT CALCULATION
------------------------------------------------------------------------------

Nuc. rep. gradient        (SHARK) ... done (  0.0 sec)
HCore & Overlap gradient  (SHARK) ... done (  0.6 sec)
Split-RIJ-J gradient      (SHARK) ... done (  3.9 sec)
XC gradient                       ... done ( 10.9 sec)
CPCM gradient                     ... done (  1.9 sec)
SMD gradient                      ... done (  0.0 sec)
Dispersion correction             ... done (  0.0 sec)

-------------------
DISPERSION GRADIENT
-------------------

   1   C   :    0.000082546   -0.000016379    0.000029122
   2   C   :    0.000090414    0.000006850   -0.000016199
   3   C   :    0.000089216   -0.000025540   -0.000018615
   4   O   :    0.000048548   -0.000082475   -0.000019217
   5   N   :    0.000058840    0.000056149   -0.000018569
   6   C   :    0.000004820    0.000038728   -0.000006228
   7   C   :   -0.000010717    0.000113925    0.000001121
   8   C   :   -0.000057342    0.000093609    0.000005832
   9   C   :   -0.000083015    0.000015655    0.000006291
  10   C   :   -0.000078456   -0.000051744    0.000004432
  11   C   :   -0.000019050   -0.000055028   -0.000003300
  12   Cl  :   -0.000107862   -0.000175496    0.000005240
  13   Cl  :   -0.000180782    0.000018399    0.000012910
  14   H   :    0.000028252   -0.000014240    0.000010383
  15   H   :    0.000036003   -0.000004529    0.000024691
  16   H   :    0.000029613   -0.000001584    0.000009248
  17   H   :    0.000030100   -0.000004281   -0.000016289
  18   H   :    0.000038446    0.000013245   -0.000004814
  19   H   :    0.000014543    0.000021858   -0.000005832
  20   H   :    0.000001960    0.000056370    0.000000522
  21   H   :   -0.000021871    0.000043528    0.000002443
  22   H   :    0.000005794   -0.000047020   -0.000003174

Difference to translation invariance:
           :    0.0000000000    0.0000000000    0.0000000000

Difference to rotation invariance:
           :   -0.0000000000   -0.0000000000    0.0000000000

Norm of the Dispersion gradient    ...    0.0004231845
RMS gradient                       ...    0.0000520904
MAX gradient                       ...    0.0001807816
gCP correction                   ... done

------------------
CARTESIAN GRADIENT
------------------

   1   C   :    0.003930248   -0.000405155    0.002853937
   2   C   :    0.000310479    0.004516004   -0.004313637
   3   C   :   -0.011472953   -0.017629766    0.001963622
   4   O   :    0.003906208    0.017983872    0.000030402
   5   N   :    0.001670306   -0.008075639   -0.000303307
   6   C   :    0.004210774    0.002629660   -0.000274482
   7   C   :   -0.000387650   -0.001012745   -0.000058960
   8   C   :    0.000574052    0.001659780   -0.000046164
   9   C   :    0.000765865    0.001303030    0.000003862
  10   C   :   -0.000338899   -0.002886312    0.000037700
  11   C   :   -0.002354800    0.005412592    0.000305085
  12   Cl  :    0.000715499    0.006655052    0.000017427
  13   Cl  :    0.006956971   -0.002817728   -0.000513546
  14   H   :   -0.001643529    0.004154178   -0.000485078
  15   H   :    0.000645128   -0.001376503   -0.004526443
  16   H   :   -0.004351874   -0.000875570    0.000121302
  17   H   :    0.000223210   -0.000569811    0.003507724
  18   H   :   -0.000099610   -0.003089444    0.001665145
  19   H   :   -0.001828601    0.002086843    0.000163226
  20   H   :   -0.003090155   -0.004609326    0.000084377
  21   H   :    0.001511682   -0.004790869   -0.000172362
  22   H   :    0.000147651    0.001737856   -0.000059829

Difference to translation invariance:
           :   -0.0000000001   -0.0000000000    0.0000000000

Difference to rotation invariance:
           :   -0.0004199136   -0.0004398427    0.0002924636

Norm of the Cartesian gradient     ...    0.0353063923
RMS gradient                       ...    0.0043459165
MAX gradient                       ...    0.0179838724

-------
TIMINGS
-------

Total SCF gradient time     ....       18.920 sec

Densities                   ....       0.002 sec  (  0.0%)
One electron gradient       ....       0.617 sec  (  3.3%)
RI-J Coulomb gradient       ....       3.892 sec  ( 20.6%)
XC gradient                 ....      10.920 sec  ( 57.7%)
CPCM gradient               ....       1.894 sec  ( 10.0%)
   A-Matrix (El+Nuc)        ....       0.102 sec  (  0.5%)
   Potential                ....       1.792 sec  (  9.5%)
SMD gradient                ....       0.014 sec  (  0.1%)

Maximum memory used throughout the entire SCFGRAD-calculation: 43.9 MB

------------------------------------------------------------------------------
                              ORCA PROPERTY CALCULATIONS
------------------------------------------------------------------------------

GBWName                                 ... xtb_opt.gbw
Number of atoms                         ...     22
Number of basis functions               ...    318
Max core memory                         ...   1024 MB

Electric properties:
Dipole moment                           ... YES
Quadrupole moment                       ...  NO
Static polarizability (Dipole/Dipole)   ...  NO
Static polarizability (Dipole/Quad.)    ...  NO
Static polarizability (Quad./Quad.)     ...  NO
Static polarizability (Velocity)        ...  NO

Atomic electric properties:
Dipole moment                           ...  NO
Quadrupole moment                       ...  NO
Static polarizability                   ...  NO

Choice of electric origin               ... Center of mass
Position of electric origin             ...     0.000020     0.000012     0.000001

General magnetic properties:
Magnetizability                         ...  NO

EPR properties:
g-Tensor (aka g-matrix)                 ...  NO
Zero-Field splitting spin-orbit         ...  NO
Zero-field splitting spin-spin          ...  NO
Hyperfine couplings                     ...  NO (   0 nuclei)
Quadrupole couplings                    ...  NO (   0 nuclei)
Contact density                         ...  NO (   0 nuclei)

NMR properties:
Chemical shifts                         ...  NO (   0 nuclei)
Spin-rotation constants                 ...  NO (   0 nuclei)
Spin-spin couplings                     ...  NO (   0 nuclei,    0 pairs)

Choice of magnetic origin               ... GIAO
Position of magnetic origin             ...     0.000000     0.000000     0.000000

Properties with geometric perturbations:
SCF Hessian                             ...  NO
IR spectrum                             ...  NO
VCD spectrum                            ...  NO
X-ray spectroscopy properties:
SCF XES/XAS/RIXS spectra                ...  NO


-------------
DIPOLE MOMENT
-------------

Method             : SCF
Type of density    : Electron Density
Multiplicity       :   1
Irrep              :   0
Energy             : -1398.6358804961937494 Eh
Relativity type    : 
Basis              : AO
                                X                 Y                 Z
Electronic contribution:    -32.214286420      -4.646322874      -0.565120526
Nuclear contribution   :     33.979010671       7.487588714       0.520200426
                        -----------------------------------------
Total Dipole Moment    :      1.764724251       2.841265840      -0.044920100
                        -----------------------------------------
Magnitude (a.u.)       :      3.345005392
Magnitude (Debye)      :      8.502328015



--------------------
Rotational spectrum 
--------------------
 
Rotational constants in cm-1:             0.048032             0.009294             0.007916 
Rotational constants in MHz :          1439.948660           278.625714           237.318562 

Dipole components along the rotational axes: 
x,y,z [a.u.] :    -1.730597     2.862479    -0.017548 
x,y,z [Debye]:    -4.398828     7.275844    -0.044604 

 

Dipole moment calculation done in   0.0 sec 

Maximum memory used throughout the entire PROP-calculation: 23.0 MB

--------------------------------
SUGGESTED CITATIONS FOR THIS RUN
--------------------------------

Below you find a list of papers that are relevant to this ORCA run
We neither can nor want to force you to cite these papers, but we appreciate if you do
You receive ORCA, which is the product of decades of hard work by many enthusiastic individuals, for free
The only thing we kindly ask in return is that you cite our papers,
We deeply appreciate it, if you show your appreciation for ORCA by not just citing the generic ORCA reference.

Please note that relegating all ORCA citations to the supporting information does *not* help us.
SI sections are not indexed - citations you put there will not count into any citation statistics
But we need these citations in order to attract the funding resources that allow us to do what we are doing

Therefore, if you are a happy ORCA user, please consider citing a few of the papers listed below in the main body of your paper

In addition to the list printed below, the program has created the file xtb_opt.bibtex that contains the list in bibtex format
You can import this file easily into all common literature databanks and citation aid programs


List of essential papers. We consider these as the minimum necessary citations

  1. Neese,F.
     Software update: the ORCA program system, version 5.0
     WIRES Comput. Molec. Sci., 2022 12(1)e1606
     doi.org/10.1002/wcms.1606
  2. Grimme,S.; Hansen,A.; Ehlert,S.; Mewes,J.
     r2SCAN-3c: A 'Swiss army knife' composite electronic-structure method
     J. Chem. Phys., 2021 154 064103
     doi.org/10.1063/5.0040021

List of papers to cite with high priority. The work reported in these papers was absolutely
necessary for this run to complete.
Our perspective: the developers of density functionals and basis sets usually get cited in chemistry papers
Good! But without the algorithms to do something with them, the functionals or basis sets would not do anything.
Hence, in our opinion, the algorithm design and method developments papers are equally worthy of getting cited

  1. Neese,F.
     An improvement of the resolution of the identity approximation for the formation of the Coulomb matrix
     J. Comp. Chem., 2003 24(14)1740-1747
     doi.org/10.1002/jcc.10318
  2. Garcia-Rates,M.; Neese,F.
     Effect of the Solute Cavity on the Solvation Energy and its Derivatives within the Framework of the Gaussian Charge Scheme
     J. Comput. Chem., 2020 41 922-939
     doi.org/10.1002/jcc.26139
  3. Neese,F.
     The SHARK Integral Generation and Digestion System
     J. Comp. Chem., 2022  1-16
     doi.org/10.1002/jcc.26942
  4. Lehtola,S.; Steigemann,C.; Oliveira,M.; Marques,M.
     Recent developments in Libxc - A comprehensive library of functionals for density functional theory
     Software X, 2018 7 
     doi.org/10.1016/j.softx.2017.11.002
  5. Caldeweyher,E.; Bannwarth,C.; Grimme,S.
     Extension of the D3 dispersion coefficient model
     J. Chem. Phys., 2017 147 034112-XXXX
     doi.org/10.1063/1.4993215
  6. Caldeweyher,E.; Ehlert,S.; Hansen,A.; Neugebauer,H.; Spicher,S.; Bannwarth,C.; Grimme,S.
     A generally applicable atomic-charge dependent London dispersion correction
     J. Chem. Phys., 2019 150 154122-XXXX
     doi.org/10.1063/1.5090222
  7. Caldeweyher,E.; Mewes,J.; Ehlert,S.; Grimme,S.
     Extension and evaluation of the D4 London-dispersion model for periodic systems
     Phys. Chem. Chem. Phys., 2020 22(16)8499-8512
     doi.org/10.1039/D0CP00502A

List of suggested additional citations. These are papers that are important in the 'surrounding' of 
of this run, or papers that preceded the highly important papers. If you like your results we are grateful for a citation.

  1. Neese,F.
     The ORCA program system
     WIRES Comput. Molec. Sci., 2012 2(1)73-78
     doi.org/10.1002/wcms.81
  2. Neese,F.
     Software update: the ORCA program system, version 4.0
     WIRES Comput. Molec. Sci., 2018 8(1)1-6
     doi.org/10.1002/wcms.1327
  3. Neese,F.; Wennmohs,F.; Becker,U.; Riplinger,C.
     The ORCA quantum chemistry program package
     J. Chem. Phys., 2020 152 Art. No. L224108
     doi.org/10.1063/5.0004608

List of optional additional citations

  1. Neese,F.
     Approximate second-order SCF convergence for spin unrestricted wavefunctions
     Chem. Phys. Lett., 2000 325(1-3)93-98
     doi.org/10.1016/s0009-2614(00)00662-x

Timings for individual modules:

Sum of individual times          ...       43.158 sec (=   0.719 min)
Startup calculation              ...        1.702 sec (=   0.028 min)   3.9 %
SCF iterations                   ...       22.311 sec (=   0.372 min)  51.7 %
Property calculations            ...        0.117 sec (=   0.002 min)   0.3 %
SCF Gradient evaluation          ...       19.028 sec (=   0.317 min)  44.1 %
                             ****ORCA TERMINATED NORMALLY****
TOTAL RUN TIME: 0 days 0 hours 0 minutes 44 seconds 307 msec
  ------------------------------------------------------------------------
          * successful ORCA run, taking over control again...

         :::::::::::::::::::::::::::::::::::::::::::::::::::::
         ::                  ORCA SUMMARY                   ::
         :::::::::::::::::::::::::::::::::::::::::::::::::::::
         :: total energy           -1398.631617694215 Eh    ::
         :: gradient norm              0.035306392329 Eh/a0 ::
         :: HOMO-LUMO gap              0.000000000000 eV    ::
         :::::::::::::::::::::::::::::::::::::::::::::::::::::

      ----------------------------------------------------------- 
     |                       L-ANC optimizer                     |
      ----------------------------------------------------------- 
          low memory version by Sebastian Ehlert

          ...................................................
          :                      SETUP                      :
          :.................................................:
          :   energy convergence        0.5000000E-05 Eh    :
          :   grad. convergence         0.1000000E-02 Eh/a0 :
          :   optimization log               true           :
          :   writing optlog all                1     steps :
          :   Hessian reset                     8     steps :
          :   maximium step len.        1.0000000     a0    :
          :   LBFGS images                      8           :
          ...................................................
 * calculating model hessian...
Using Lindh-Hessian (1995)
 Shifting diagonal of input Hessian by   1.000000000000000E-002
 Lowest  eigenvalues of input Hessian
    0.000000    0.000000    0.000000    0.000000    0.000000    0.000000
    0.011356    0.011984    0.013643    0.015322    0.020412    0.021740
    0.022472    0.026256    0.029438    0.031566    0.032536    0.049804
 Highest eigenvalues
    1.663251    1.877955    1.936715    2.016587    2.171063    2.329753
 

........................................................................
.............................. CYCLE    1 ..............................
........................................................................
                         * ORCA takes the control...
  ------------------------------------------------------------------------

                                 *****************
                                 * O   R   C   A *
                                 *****************

                                            #,                                       
                                            ###                                      
                                            ####                                     
                                            #####                                    
                                            ######                                   
                                           ########,                                 
                                     ,,################,,,,,                         
                               ,,#################################,,                 
                          ,,##########################################,,             
                       ,#########################################, ''#####,          
                    ,#############################################,,   '####,        
                  ,##################################################,,,,####,       
                ,###########''''           ''''###############################       
              ,#####''   ,,,,##########,,,,          '''####'''          '####       
            ,##' ,,,,###########################,,,                        '##       
           ' ,,###''''                  '''############,,,                           
         ,,##''                                '''############,,,,        ,,,,,,###''
      ,#''                                            '''#######################'''  
     '                                                          ''''####''''         
             ,#######,   #######,   ,#######,      ##                                
            ,#'     '#,  ##    ##  ,#'     '#,    #''#        ,####,   ,####,        
            ##       ##  ##   ,#'  ##            #'  '#       #'       #'  '#        
            ##       ##  #######   ##           ,######,      #####,   #    #        
            '#,     ,#'  ##    ##  '#,     ,#' ,#      #,     #,   #   #,  ,#        
             '#######'   ##     ##  '#######'  #'      '#     '####' # '####'        



                #########################################################
                #                        -***-                          #
                #          Department of theory and spectroscopy        #
                #                                                       #
                #                      Frank Neese                      #
                #                                                       #
                #     Directorship, Architecture, Infrastructure        #
                #                    SHARK, DRIVERS                     #
                #        Core code/Algorithms in most modules           #
                #                                                       #
                #        Max Planck Institute fuer Kohlenforschung      #
                #                Kaiser Wilhelm Platz 1                 #
                #                 D-45470 Muelheim/Ruhr                 #
                #                      Germany                          #
                #                                                       #
                #                  All rights reserved                  #
                #                        -***-                          #
                #########################################################


                         Program Version 6.0.0  -   RELEASE  -


 With contributions from (in alphabetic order):
   Daniel Aravena         : Magnetic Suceptibility
   Michael Atanasov       : Ab Initio Ligand Field Theory (pilot matlab implementation)
   Alexander A. Auer      : GIAO ZORA, VPT2 properties, NMR spectrum
   Ute Becker             : All parallelization in ORCA, NUMFREQ, NUMCALC
   Giovanni Bistoni       : ED, misc. LED, open-shell LED, HFLD
   Martin Brehm           : Molecular dynamics
   Dmytro Bykov           : pre 5.0 version of the SCF Hessian
   Marcos Casanova-Páez   : Triplet and SCS-CIS(D). UHF-(DLPNO)-IP/EA/STEOM-CCSD. UHF-CVS-IP/STEOM-CCSD
   Vijay G. Chilkuri      : MRCI spin determinant printing, contributions to CSF-ICE
   Pauline Colinet        : FMM embedding
   Dipayan Datta          : RHF DLPNO-CCSD density
   Achintya Kumar Dutta   : EOM-CC, STEOM-CC
   Nicolas Foglia         : Exact transition moments, OPA infrastructure, MCD improvements
   Dmitry Ganyushin       : Spin-Orbit,Spin-Spin,Magnetic field MRCI
   Miquel Garcia          : C-PCM and meta-GGA Hessian, CCSD/C-PCM, Gaussian charge scheme
   Tiago L. C. Gouveia    : GS-ROHF, GS-ROCIS
   Yang Guo               : DLPNO-NEVPT2, F12-NEVPT2, CIM, IAO-localization
   Andreas Hansen         : Spin unrestricted coupled pair/coupled cluster methods
   Ingolf Harden          : AUTO-CI MPn and infrastructure 
   Benjamin Helmich-Paris : MC-RPA, TRAH-(SCF,CASSCF), AVAS, COSX integrals, SCF dyn. polar.
   Lee Huntington         : MR-EOM, pCC
   Robert Izsak           : Overlap fitted RIJCOSX, COSX-SCS-MP3, EOM
   Riya Kayal             : Wick's Theorem for AUTO-CI, AUTO-CI UHF-CCSDT
   Emily Kempfer          : AUTO-CI, RHF CISDT and CCSDT
   Christian Kollmar      : KDIIS, OOCD, Brueckner-CCSD(T), CCSD density, CASPT2, CASPT2-K, improved NEVPT2
   Axel Koslowski         : Symmetry handling
   Simone Kossmann        : Meta GGA functionals, TD-DFT gradient, OOMP2, (MP2 Hessian; deprecated post 5.0)
   Lucas Lang             : DCDCAS
   Marvin Lechner         : AUTO-CI (C++ implementation), FIC-MRCC
   Spencer Leger          : CASSCF response
   Dagmar Lenk            : GEPOL surface, SMD, ORCA-2-JSON
   Dimitrios Liakos       : Extrapolation schemes; Compound Job, initial MDCI parallelization
   Dimitrios Manganas     : Further ROCIS development; embedding schemes. LFT, Crystal Embedding
   Dimitrios Pantazis     : SARC Basis sets
   Anastasios Papadopoulos: AUTO-CI, single reference methods and gradients
   Taras Petrenko         : pre 6.0 DFT Hessian and TD-DFT gradient, (ASA, deprecated), ECA, 1-Electron XAS/XES, NRVS
   Peter Pinski           : DLPNO-MP2, DLPNO-MP2 Gradient
   Christoph Reimann      : Effective Core Potentials
   Marius Retegan         : Local ZFS, SOC
   Christoph Riplinger    : Optimizer, TS searches, QM/MM, DLPNO-CCSD(T), (RO)-DLPNO pert. Triples
   Michael Roemelt        : Original ROCIS implementation
   Masaaki Saitow         : Open-shell DLPNO-CCSD energy and density
   Barbara Sandhoefer     : DKH picture change effects
   Kantharuban Sivalingam : CASSCF convergence/infrastructure, NEVPT2 and variants, FIC-MRCI
   Bernardo de Souza      : ESD, SOC TD-DFT
   Georgi Stoychev        : AutoAux, RI-MP2 NMR, DLPNO-MP2 response, X2C
   Van Anh Tran           : RI-MP2 g-tensors
   Willem Van den Heuvel  : Paramagnetic NMR
   Zikuan Wang            : NOTCH, Electric field optimization 
   Frank Wennmohs         : Technical directorship and infrastructure
   Hang Xu                : AUTO-CI-Response properties 


 We gratefully acknowledge several colleagues who have allowed us to
 interface, adapt or use parts of their codes:
   Stefan Grimme, W. Hujo, H. Kruse, P. Pracht,  : VdW corrections, initial TS optimization,
                  C. Bannwarth, S. Ehlert,         DFT functionals, gCP, sTDA/sTD-DF
                  L. Wittmann, M. Mueller
   Ed Valeev, F. Pavosevic, A. Kumar             : LibInt (2-el integral package), F12 methods
   Garnet Chan, S. Sharma, J. Yang, R. Olivares  : DMRG
   Ulf Ekstrom                                   : XCFun DFT Library
   Mihaly Kallay                                 : mrcc  (arbitrary order and MRCC methods)
   Frank Weinhold                                : gennbo (NPA and NBO analysis)
   Simon Mueller                                 : openCOSMO-RS
   Christopher J. Cramer and Donald G. Truhlar   : smd solvation model
   Lars Goerigk                                  : TD-DFT with DH, B97 family of functionals
   V. Asgeirsson, H. Jonsson                     : NEB implementation
   FAccTs GmbH                                   : IRC, NEB, NEB-TS, DLPNO-Multilevel, CI-OPT
                                                   MM, QMMM, 2- and 3-layer-ONIOM, Crystal-QMMM,
                                                   LR-CPCM, SF, NACMEs, symmetry and pop. for TD-DFT,
                                                   nearIR, NL-DFT gradient (VV10), updates on ESD,
                                                   ML-optimized integration grids, MBIS, APM,
                                                   GOAT, DOCKER, SOLVATOR, interface openCOSMO-RS
   S Lehtola, MJT Oliveira, MAL Marques          : LibXC Library
   Liviu Ungur et al                             : ANISO software


 Your calculation uses the libint2 library for the computation of 2-el integrals
 For citations please refer to: http://libint.valeyev.net

 Your ORCA version has been built with support for libXC version: 6.2.2
 For citations please refer to: https://libxc.gitlab.io

 This ORCA versions uses:
   CBLAS   interface :  Fast vector & matrix operations
   LAPACKE interface :  Fast linear algebra routines
   SCALAPACK package :  Parallel linear algebra routines
   Shared memory     :  Shared parallel matrices
   BLAS/LAPACK       :  OpenBLAS 0.3.27  USE64BITINT DYNAMIC_ARCH NO_AFFINITY SkylakeX SINGLE_THREADED
        Core in use  :  SkylakeX
   Copyright (c) 2011-2014, The OpenBLAS Project




***************************************
The coordinates will be read from file: xtb_opt.xyz
***************************************


Your calculation utilizes the geometrical counterpoise correction gCP
Please cite in your paper:
H.Kruse, S. Grimme J.Chem.Phys., 136, (2012), 154101 
   

Your calculation utilizes the atom-pairwise dispersion correction
based on EEQ partial charges (D4)


Your calculation utilizes the SMD solvation module
Please cite in your paper:
A.V. Marenich, C.J. Cramer, D.G. Truhlar J. Phys. Chem. B, 113, (2009), 6378 

================================================================================

----- Orbital basis set information -----
Your calculation utilizes the basis: def2-mTZVPP
   Stefan Grimme, Andreas Hansen, Sebastian Ehlert, and Jan-Michael Mewes 
   J. Chem. Phys. 154, 064103 (2021). DOI: 10.1063/5.0040021

----- AuxJ basis set information -----
Your calculation utilizes the auxiliary basis: def2/J
   F. Weigend, Phys. Chem. Chem. Phys. 8, 1057 (2006).

================================================================================
                                        WARNINGS
                       Please study these warnings very carefully!
================================================================================

WARNING: Old DensityContainer found on disk!
         Will remove this file - 
         If you want to keep old densities, please start your calculation with a different basename. 

Using LibXC functional ID 497 : Re-regularized SCAN exchange by Furness et al
[ 1]  J. W. Furness, A. D. Kaplan, J. Ning, J. P. Perdew, and J. Sun.,  J. Phys. Chem. Lett. 11, 8208-8215 (2020)
[ 2]  J. W. Furness, A. D. Kaplan, J. Ning, J. P. Perdew, and J. Sun.,  J. Phys. Chem. Lett. 11, 9248-9248 (2020)
Using LibXC functional ID 498 : Re-regularized SCAN correlation by Furness et al
[ 1]  J. W. Furness, A. D. Kaplan, J. Ning, J. P. Perdew, and J. Sun.,  J. Phys. Chem. Lett. 11, 8208-8215 (2020)
[ 2]  J. W. Furness, A. D. Kaplan, J. Ning, J. P. Perdew, and J. Sun.,  J. Phys. Chem. Lett. 11, 9248-9248 (2020)
Using LibXC functional ID 497 : Re-regularized SCAN exchange by Furness et al
[ 1]  J. W. Furness, A. D. Kaplan, J. Ning, J. P. Perdew, and J. Sun.,  J. Phys. Chem. Lett. 11, 8208-8215 (2020)
[ 2]  J. W. Furness, A. D. Kaplan, J. Ning, J. P. Perdew, and J. Sun.,  J. Phys. Chem. Lett. 11, 9248-9248 (2020)
Using LibXC functional ID 498 : Re-regularized SCAN correlation by Furness et al
[ 1]  J. W. Furness, A. D. Kaplan, J. Ning, J. P. Perdew, and J. Sun.,  J. Phys. Chem. Lett. 11, 8208-8215 (2020)
[ 2]  J. W. Furness, A. D. Kaplan, J. Ning, J. P. Perdew, and J. Sun.,  J. Phys. Chem. Lett. 11, 9248-9248 (2020)

================================================================================
                                       INPUT FILE
================================================================================
NAME = xtb_opt.inp
|  1> ! r2scan-3c def2/J RI DEFGRID2 scfconv7 ENGRAD tightSCF miniprint
|  2> %cpcm
|  3>     smd true
|  4>     smdsolvent "water"
|  5> end
|  6> * xyzfile 0 1 xtb_opt.xyz
|  7> 
|  8>                          ****END OF INPUT****
================================================================================

                     *******************************
                     * Energy+Gradient Calculation *
                     *******************************

---------------------------------
CARTESIAN COORDINATES (ANGSTROEM)
---------------------------------
  C      5.340157   -0.321200    0.701755
  C      4.490165    0.324578   -0.395624
  C      3.057057   -0.153558   -0.305448
  O      2.777059   -1.353021   -0.310477
  N      2.126756    0.842062   -0.208366
  C      0.734997    0.746240   -0.112957
  C      0.008146    1.940649   -0.042960
  C     -1.371125    1.918734    0.049494
  C     -2.054725    0.707295    0.075265
  C     -1.331405   -0.483772    0.007992
  C      0.053065   -0.472517   -0.085343
  Cl    -2.137084   -2.026177    0.039505
  Cl    -3.791380    0.711204    0.191660
  H      5.247435   -1.408877    0.666836
  H      5.021877    0.020748    1.689759
  H      6.390788   -0.059799    0.566025
  H      4.861540    0.015059   -1.378474
  H      4.546859    1.413560   -0.339784
  H      2.482190    1.788712   -0.211319
  H      0.525850    2.893359   -0.062368
  H     -1.928999    2.845039    0.101631
  H      0.595837   -1.403095   -0.135340

----------------------------
CARTESIAN COORDINATES (A.U.)
----------------------------
  NO LB      ZA    FRAG     MASS         X           Y           Z
   0 C     6.0000    0    12.011   10.091434   -0.606980    1.326124
   1 C     6.0000    0    12.011    8.485183    0.613364   -0.747621
   2 C     6.0000    0    12.011    5.777001   -0.290183   -0.577213
   3 O     8.0000    0    15.999    5.247881   -2.556839   -0.586717
   4 N     7.0000    0    14.007    4.018987    1.591267   -0.393755
   5 C     6.0000    0    12.011    1.388943    1.410189   -0.213458
   6 C     6.0000    0    12.011    0.015394    3.667295   -0.081183
   7 C     6.0000    0    12.011   -2.591051    3.625881    0.093530
   8 C     6.0000    0    12.011   -3.882868    1.336593    0.142231
   9 C     6.0000    0    12.011   -2.515991   -0.914197    0.015102
  10 C     6.0000    0    12.011    0.100278   -0.892927   -0.161275
  11 Cl   17.0000    0    35.453   -4.038503   -3.828921    0.074654
  12 Cl   17.0000    0    35.453   -7.164671    1.343981    0.362185
  13 H     1.0000    0     1.008    9.916215   -2.662392    1.260138
  14 H     1.0000    0     1.008    9.489972    0.039208    3.193181
  15 H     1.0000    0     1.008   12.076838   -0.113004    1.069633
  16 H     1.0000    0     1.008    9.186980    0.028457   -2.604938
  17 H     1.0000    0     1.008    8.592317    2.671242   -0.642099
  18 H     1.0000    0     1.008    4.690659    3.380175   -0.399335
  19 H     1.0000    0     1.008    0.993713    5.467656   -0.117859
  20 H     1.0000    0     1.008   -3.645280    5.376345    0.192055
  21 H     1.0000    0     1.008    1.125969   -2.651465   -0.255755

------------------------------------------------------------------------------
                   ___                                                        
                  /   \      - P O W E R E D   B Y -                         
                 /     \                                                     
                 |  |  |   _    _      __       _____    __    __             
                 |  |  |  | |  | |    /  \     |  _  \  |  |  /  |          
                  \  \/   | |  | |   /    \    | | | |  |  | /  /          
                 / \  \   | |__| |  /  /\  \   | |_| |  |  |/  /          
                |  |  |   |  __  | /  /__\  \  |    /   |      \           
                |  |  |   | |  | | |   __   |  |    \   |  |\   \          
                \     /   | |  | | |  |  |  |  | |\  \  |  | \   \       
                 \___/    |_|  |_| |__|  |__|  |_| \__\ |__|  \__/        
                                                                              
                      - O R C A' S   B I G   F R I E N D -                    
                                      &                                       
                       - I N T E G R A L  F E E D E R -                       
                                                                              
 v1 FN, 2020, v2 2021, v3 2022-2024                                           
------------------------------------------------------------------------------


----------------------
SHARK INTEGRAL PACKAGE
----------------------

Number of atoms                             ...     22
Number of basis functions                   ...    318
Number of shells                            ...    150
Maximum angular momentum                    ...      2
Integral batch strategy                     ... SHARK/LIBINT Hybrid
RI-J (if used) integral strategy            ... SPLIT-RIJ (Revised 2003 algorithm where possible)
Printlevel                                  ...      1
Contraction scheme used                     ... SEGMENTED contraction
Prescreening option                         ... SCHWARTZ
   Thresh                                   ... 3.000e-11
   Tcut                                     ... 1.000e-12
   Tpresel                                  ... 1.000e-12 
Coulomb Range Separation                    ... NOT USED
Exchange Range Separation                   ... NOT USED
Multipole approximations                    ... NOT USED
Finite Nucleus Model                        ... NOT USED
CABS basis                                  ... NOT available
Auxiliary Coulomb fitting basis             ... AVAILABLE
   # of basis functions in Aux-J            ...    740
   # of shells in Aux-J                     ...    244
   Maximum angular momentum in Aux-J        ...      4
Auxiliary J/K fitting basis                 ... NOT available
Auxiliary Correlation fitting basis         ... NOT available
Auxiliary 'external' fitting basis          ... NOT available

Checking pre-screening integrals            ... done (  0.0 sec) Dimension = 150
Check shell pair data                       ... done (  0.0 sec)
Shell pair information
Shell pair cut-off parameter TPreSel        ...   1.0e-12
Total number of shell pairs                 ...     11325
Shell pairs after pre-screening             ...      8827
Total number of primitive shell pairs       ...     44009
Primitive shell pairs kept                  ...     22487
          la=0 lb=0:   2585 shell pairs
          la=1 lb=0:   3289 shell pairs
          la=1 lb=1:   1062 shell pairs
          la=2 lb=0:   1080 shell pairs
          la=2 lb=1:    686 shell pairs
          la=2 lb=2:    125 shell pairs

Calculating one electron integrals          ... done (  0.0 sec)
Calculating RI/J V-Matrix + Cholesky decomp.... done (  0.1 sec)
Calculating Nuclear repulsion               ... done (  0.0 sec) ENN=    931.884652637726 Eh

Diagonalization of the overlap matrix:
Smallest eigenvalue                        ... 1.858e-05
Time for diagonalization                   ...    0.010 sec
Threshold for overlap eigenvalues          ... 1.000e-07
Number of eigenvalues below threshold      ... 0
Time for construction of square roots      ...    0.021 sec
Total time needed                          ...    0.043 sec

-------------------
DFT GRID GENERATION
-------------------

General Integration Accuracy     IntAcc      ... 4.388
Radial Grid Type                 RadialGrid  ... OptM3 with GC (2021)
Angular Grid (max. ang.)         AngularGrid ... 4 (Lebedev-302)
Angular grid pruning method      GridPruning ... 4 (adaptive)
Weight generation scheme         WeightScheme... mBecke (2022)
Basis function cutoff            BFCut       ... 1.0000e-11
Integration weight cutoff        WCut        ... 1.0000e-14
Partially contracted basis set               ... off
Rotationally invariant grid construction     ... off
Angular grids for H and He will be reduced by one unit
Diffuse basis detected: some atoms will have their outermost
                        angular grid increased by 1.

Total number of grid points                  ...   109778
Total number of batches                      ...     1729
Average number of points per batch           ...       63
Average number of grid points per atom       ...     4990
Initializing property integral containers    ... done (  0.0 sec)

SHARK setup successfully completed in   1.7 seconds

Maximum memory used throughout the entire STARTUP-calculation: 53.7 MB
Occupation numbers will be reassigned to an Aufbau configuration
             **** ENERGY FILE WAS UPDATED (xtb_opt.en.tmp) ****
Finished Guess after   1.0 sec
Maximum memory used throughout the entire GUESS-calculation: 24.4 MB
--------------------
CPCM SOLVATION MODEL
--------------------
CPCM parameters:
  Epsilon                                         ...      78.3550
  Refrac                                          ...       1.3328
  Rsolv                                           ...       1.3000
  Surface type                                    ... GAUSSIAN VDW
  Discretization scheme                           ... Constant charge density
    Threshold for H atoms                         ...       5.0000 (charges/Ang^2)
    Threshold for non-H atoms                     ...       5.0000 (charges/Ang^2)
  Epsilon function type                           ...         CPCM
Solvent:                                          ... WATER
SMD-CDS solvent descriptors:
  Soln                                            ...       1.3328
  Soln25                                          ...       1.3323
  Sola                                            ...       0.0000
  Solb                                            ...       0.0000
  Solg                                            ...       0.0000
  Solc                                            ...       0.0000
  Solh                                            ...       0.0000
Radii:
  Scheme                                          ... Element-dependent radii
  Radius for C  used is    3.4960 Bohr (=   1.8500 Ang.)
  Radius for O  used is    2.8724 Bohr (=   1.5200 Ang.)
  Radius for N  used is    3.5716 Bohr (=   1.8900 Ang.)
  Radius for Cl used is    4.4975 Bohr (=   2.3800 Ang.)
  Radius for H  used is    2.2677 Bohr (=   1.2000 Ang.)
Calculating surface                               ...        done! (  0.0s)
Cavity surface points                             ...         1850
Cavity Volume                                     ...    1585.7699
Cavity Surface-area                               ...     882.8936
Calculating surface distance matrix               ...        done! (  0.0s)
Performing Cholesky decomposition & store         ...        done! (  0.1s)
Overall time for CPCM initialization              ...                 0.2s

----------------------------------------D-I-I-S--------------------------------------------
Iteration    Energy (Eh)           Delta-E    RMSDP     MaxDP     DIISErr   Damp  Time(sec)
-------------------------------------------------------------------------------------------
               ***  Starting incremental Fock matrix formation  ***
    1    -1398.6443499343831718     0.00e+00  1.01e-04  4.39e-03  5.86e-03  0.700   6.0
    2    -1398.6444941683312209    -1.44e-04  8.94e-05  3.89e-03  4.03e-03  0.700   4.7
                               ***Turning on AO-DIIS***
                              *** Initializing SOSCF ***
---------------------------------------S-O-S-C-F--------------------------------------
Iteration    Energy (Eh)           Delta-E    RMSDP     MaxDP     MaxGrad    Time(sec)
--------------------------------------------------------------------------------------
    3    -1398.6445987602069181    -1.05e-04  2.23e-04  8.60e-03  2.94e-03     5.0
               *** Restarting incremental Fock matrix formation ***
    4    -1398.6448355767406611    -2.37e-04  7.68e-05  3.63e-03  2.83e-04     6.1
    5    -1398.6448169448312910     1.86e-05  5.20e-05  2.10e-03  8.14e-04     4.9
    6    -1398.6448411823930655    -2.42e-05  1.11e-05  2.74e-04  7.92e-05     4.7
    7    -1398.6448407647740169     4.18e-07  6.99e-06  1.82e-04  1.12e-04     4.5
    8    -1398.6448414762630819    -7.11e-07  1.72e-06  5.59e-05  7.70e-06     4.5
                  *** Gradient check signals convergence ***

               *****************************************************
               *                     SUCCESS                       *
               *           SCF CONVERGED AFTER   8 CYCLES          *
               *****************************************************


SMD CDS free energy correction energy :                 4.96312     Kcal/mol
Total Energy after SMD CDS correction =             -1398.636932242 Eh
             **** ENERGY FILE WAS UPDATED (xtb_opt.en.tmp) ****

----------------
TOTAL SCF ENERGY
----------------

Total Energy       :      -1398.63693224152235 Eh          -38058.84580 eV

Components:
Nuclear Repulsion  :        931.88465263772605 Eh           25357.87057 eV
Electronic Energy  :      -2330.50038003461486 Eh          -63416.13935 eV
One Electron Energy:      -3770.89217987470329 Eh         -102611.19287 eV
Two Electron Energy:       1440.39179984008820 Eh           39195.05351 eV
CPCM Dielectric    :         -0.02911407937380 Eh              -0.79223 eV
SMD CDS (Gcds)     :          0.00790923474066 Eh               0.21522 eV

Virial components:
Potential Energy   :      -2793.05099646399322 Eh          -76002.78152 eV
Kinetic Energy     :       1394.41406422247064 Eh           37943.93572 eV
Virial Ratio       :          2.00302841754641

DFT components:
N(Alpha)           :       55.999993935632 electrons
N(Beta)            :       55.999993935632 electrons
N(Total)           :      111.999987871264 electrons
E(X)               :     -120.119226520025 Eh       
E(C)               :       -3.875622803198 Eh       
E(XC)              :     -123.994849323223 Eh       

CPCM Solvation Model Properties:
Surface-charge          :         -0.03423382753167
Corrected charge        :          0.00000000000000
Outlying charge corr.   :          0.00007073375297 Eh               0.00192 eV
Free-energy (cav+disp)  :          0.00790923474066 Eh               0.21522 eV

---------------
SCF CONVERGENCE
---------------

  Last Energy change         ...    7.1149e-07  Tolerance :   1.0000e-07
  Last MAX-Density change    ...    5.5854e-05  Tolerance :   1.0000e-07
  Last RMS-Density change    ...    1.7150e-06  Tolerance :   5.0000e-09
  Last DIIS Error            ...    2.9379e-03  Tolerance :   1.0000e-07
  Last Orbital Gradient      ...    7.7007e-06  Tolerance :   1.0000e-04
  Last Orbital Rotation      ...    4.7152e-05  Tolerance :   1.0000e-04


----------------
ORBITAL ENERGIES
----------------

  NO   OCC          E(Eh)            E(eV) 
   0   2.0000    -101.231514     -2754.6495 
   1   2.0000    -101.230344     -2754.6177 
   2   2.0000     -18.934734      -515.2403 
   3   2.0000     -14.212251      -386.7350 
   4   2.0000     -10.146964      -276.1129 
   5   2.0000     -10.117526      -275.3119 
   6   2.0000     -10.111941      -275.1599 
   7   2.0000     -10.101822      -274.8846 
   8   2.0000     -10.058616      -273.7089 
   9   2.0000     -10.053665      -273.5741 
  10   2.0000     -10.052316      -273.5374 
  11   2.0000     -10.038076      -273.1499 
[...]
  31   2.0000      -0.578969       -15.7545 
  32   2.0000      -0.552299       -15.0288 
  33   2.0000      -0.510936       -13.9033 
  34   2.0000      -0.471497       -12.8301 
  35   2.0000      -0.469493       -12.7756 
  36   2.0000      -0.447105       -12.1664 
  37   2.0000      -0.431812       -11.7502 
  38   2.0000      -0.426940       -11.6176 
  39   2.0000      -0.412063       -11.2128 
  40   2.0000      -0.404361       -11.0032 
  41   2.0000      -0.396538       -10.7903 
  42   2.0000      -0.387848       -10.5539 
  43   2.0000      -0.374749       -10.1974 
  44   2.0000      -0.349118        -9.5000 
  45   2.0000      -0.348147        -9.4735 
  46   2.0000      -0.334017        -9.0891 
  47   2.0000      -0.328757        -8.9459 
  48   2.0000      -0.326635        -8.8882 
  49   2.0000      -0.310507        -8.4493 
  50   2.0000      -0.305783        -8.3208 
  51   2.0000      -0.286719        -7.8020 
  52   2.0000      -0.280219        -7.6251 
  53   2.0000      -0.245829        -6.6894 
  54   2.0000      -0.238416        -6.4876 
  55   2.0000      -0.214804        -5.8451 
  56   0.0000      -0.060330        -1.6417 
  57   0.0000      -0.054556        -1.4846 
  58   0.0000      -0.026615        -0.7242 
  59   0.0000       0.000140         0.0038 
  60   0.0000       0.031583         0.8594 
  61   0.0000       0.073979         2.0131 
  62   0.0000       0.101664         2.7664 
  63   0.0000       0.103023         2.8034 
  64   0.0000       0.103916         2.8277 
  65   0.0000       0.114630         3.1192 
  66   0.0000       0.130775         3.5586 
*Only the first 10 virtual orbitals were printed.
Total SCF time: 0 days 0 hours 0 min 11 sec 
Finished LeanSCF after  11.9 sec

Maximum memory used throughout the entire LEANSCF-calculation: 47.8 MB


-------------------------------------------------------------------------------
                          DFT DISPERSION CORRECTION                            
                                                                               
                                DFTD4 V3.4.0                                   
-------------------------------------------------------------------------------
-------------------------   ----------------
Dispersion correction           -0.008945804
-------------------------   ----------------

------------------   -----------------
gCP correction             0.012996673
------------------   -----------------

-------------------------   --------------------
FINAL SINGLE POINT ENERGY     -1398.633056332497
-------------------------   --------------------

------------------------------------------------------------------------------
                         ORCA SCF GRADIENT CALCULATION
------------------------------------------------------------------------------

Nuc. rep. gradient        (SHARK) ... done (  0.0 sec)
HCore & Overlap gradient  (SHARK) ... done (  0.6 sec)
Split-RIJ-J gradient      (SHARK) ... done (  3.5 sec)
XC gradient                       ... done (  8.7 sec)
CPCM gradient                     ... done (  1.8 sec)
SMD gradient                      ... done (  0.0 sec)
Dispersion correction             ... done (  0.0 sec)

-------------------
DISPERSION GRADIENT
-------------------

   1   C   :    0.000082386   -0.000015756    0.000029150
   2   C   :    0.000089530    0.000007023   -0.000016477
   3   C   :    0.000087919   -0.000025345   -0.000018500
   4   O   :    0.000047445   -0.000082535   -0.000018928
   5   N   :    0.000058057    0.000055331   -0.000018165
   6   C   :    0.000005358    0.000036981   -0.000005855
   7   C   :   -0.000009612    0.000112859    0.000001281
   8   C   :   -0.000056229    0.000093714    0.000005704
   9   C   :   -0.000082304    0.000015974    0.000006033
  10   C   :   -0.000077842   -0.000051716    0.000004261
  11   C   :   -0.000018821   -0.000056627   -0.000003053
  12   Cl  :   -0.000106443   -0.000174913    0.000004969
  13   Cl  :   -0.000180224    0.000022131    0.000012412
  14   H   :    0.000027719   -0.000013500    0.000010223
  15   H   :    0.000035780   -0.000004970    0.000024448
  16   H   :    0.000029229   -0.000000992    0.000009483
  17   H   :    0.000029730   -0.000004180   -0.000016426
  18   H   :    0.000038041    0.000013240   -0.000005071
  19   H   :    0.000014265    0.000021405   -0.000005648
  20   H   :    0.000002284    0.000055945    0.000000631
  21   H   :   -0.000021292    0.000043566    0.000002379
  22   H   :    0.000005026   -0.000047636   -0.000002851

Difference to translation invariance:
           :    0.0000000000    0.0000000000    0.0000000000

Difference to rotation invariance:
           :    0.0000000000    0.0000000000    0.0000000000

Norm of the Dispersion gradient    ...    0.0004207498
RMS gradient                       ...    0.0000517907
MAX gradient                       ...    0.0001802244
gCP correction                   ... done

------------------
CARTESIAN GRADIENT
------------------

   1   C   :    0.000135784    0.000004661    0.000064017
   2   C   :    0.000032317    0.000092963    0.000001305
   3   C   :   -0.000171297   -0.000209708   -0.000258831
   4   O   :    0.000038765    0.000036485    0.000035290
   5   N   :    0.000027510    0.000079383    0.000039680
   6   C   :    0.000165146    0.000032127    0.000032778
   7   C   :   -0.000043289   -0.000075175   -0.000024904
   8   C   :    0.000035823    0.000039791   -0.000020053
   9   C   :   -0.000075600   -0.000062207    0.000002772
  10   C   :    0.000032701    0.000045502   -0.000014474
  11   C   :   -0.000037349    0.000001589    0.000014516
  12   Cl  :   -0.000005101   -0.000028318    0.000004571
  13   Cl  :    0.000070368    0.000001623    0.000003893
  14   H   :   -0.000031477    0.000056180    0.000010097
  15   H   :   -0.000002969    0.000036227    0.000006190
  16   H   :   -0.000031880   -0.000022176    0.000018991
  17   H   :   -0.000008409   -0.000032797    0.000037776
  18   H   :   -0.000050801   -0.000010069    0.000012969
  19   H   :   -0.000110807   -0.000010900    0.000065562
  20   H   :    0.000043346    0.000032485   -0.000020756
  21   H   :    0.000000159    0.000011518   -0.000016471
  22   H   :   -0.000012940   -0.000019185    0.000005080

Difference to translation invariance:
           :    0.0000000000   -0.0000000000    0.0000000000

Difference to rotation invariance:
           :   -0.0003547004   -0.0005590989    0.0004773049

Norm of the Cartesian gradient     ...    0.0005294902
RMS gradient                       ...    0.0000651757
MAX gradient                       ...    0.0002588308

-------
TIMINGS
-------

Total SCF gradient time     ....       16.143 sec

Densities                   ....       0.002 sec  (  0.0%)
One electron gradient       ....       0.572 sec  (  3.5%)
RI-J Coulomb gradient       ....       3.547 sec  ( 22.0%)
XC gradient                 ....       8.705 sec  ( 53.9%)
CPCM gradient               ....       1.784 sec  ( 11.1%)
   A-Matrix (El+Nuc)        ....       0.102 sec  (  0.6%)
   Potential                ....       1.682 sec  ( 10.4%)
SMD gradient                ....       0.012 sec  (  0.1%)

Maximum memory used throughout the entire SCFGRAD-calculation: 43.8 MB

------------------------------------------------------------------------------
                              ORCA PROPERTY CALCULATIONS
------------------------------------------------------------------------------

GBWName                                 ... xtb_opt.gbw
Number of atoms                         ...     22
Number of basis functions               ...    318
Max core memory                         ...   1024 MB

Electric properties:
Dipole moment                           ... YES
Quadrupole moment                       ...  NO
Static polarizability (Dipole/Dipole)   ...  NO
Static polarizability (Dipole/Quad.)    ...  NO
Static polarizability (Quad./Quad.)     ...  NO
Static polarizability (Velocity)        ...  NO

Atomic electric properties:
Dipole moment                           ...  NO
Quadrupole moment                       ...  NO
Static polarizability                   ...  NO

Choice of electric origin               ... Center of mass
Position of electric origin             ...    -0.025137     0.006841    -0.001091

General magnetic properties:
Magnetizability                         ...  NO

EPR properties:
g-Tensor (aka g-matrix)                 ...  NO
Zero-Field splitting spin-orbit         ...  NO
Zero-field splitting spin-spin          ...  NO
Hyperfine couplings                     ...  NO (   0 nuclei)
Quadrupole couplings                    ...  NO (   0 nuclei)
Contact density                         ...  NO (   0 nuclei)

NMR properties:
Chemical shifts                         ...  NO (   0 nuclei)
Spin-rotation constants                 ...  NO (   0 nuclei)
Spin-spin couplings                     ...  NO (   0 nuclei,    0 pairs)

Choice of magnetic origin               ... GIAO
Position of magnetic origin             ...     0.000000     0.000000     0.000000

Properties with geometric perturbations:
SCF Hessian                             ...  NO
IR spectrum                             ...  NO
VCD spectrum                            ...  NO
X-ray spectroscopy properties:
SCF XES/XAS/RIXS spectra                ...  NO


-------------
DIPOLE MOMENT
-------------

Method             : SCF
Type of density    : Electron Density
Multiplicity       :   1
Irrep              :   0
Energy             : -1398.6371072021956934 Eh
Relativity type    : 
Basis              : AO
                                X                 Y                 Z
Electronic contribution:    -32.472523276      -4.517686401      -0.576353198
Nuclear contribution   :     34.259927864       7.421283542       0.531735512
                        -----------------------------------------
Total Dipole Moment    :      1.787404588       2.903597141      -0.044617686
                        -----------------------------------------
Magnitude (a.u.)       :      3.409938746
Magnitude (Debye)      :      8.667375485



--------------------
Rotational spectrum 
--------------------
 
Rotational constants in cm-1:             0.047391             0.009166             0.007805 
Rotational constants in MHz :          1420.757091           274.788081           233.990899 

Dipole components along the rotational axes: 
x,y,z [a.u.] :    -1.739160     2.932998    -0.022907 
x,y,z [Debye]:    -4.420593     7.455090    -0.058226 

 

Dipole moment calculation done in   0.0 sec 

Maximum memory used throughout the entire PROP-calculation: 23.0 MB

--------------------------------
SUGGESTED CITATIONS FOR THIS RUN
--------------------------------

Below you find a list of papers that are relevant to this ORCA run
We neither can nor want to force you to cite these papers, but we appreciate if you do
You receive ORCA, which is the product of decades of hard work by many enthusiastic individuals, for free
The only thing we kindly ask in return is that you cite our papers,
We deeply appreciate it, if you show your appreciation for ORCA by not just citing the generic ORCA reference.

Please note that relegating all ORCA citations to the supporting information does *not* help us.
SI sections are not indexed - citations you put there will not count into any citation statistics
But we need these citations in order to attract the funding resources that allow us to do what we are doing

Therefore, if you are a happy ORCA user, please consider citing a few of the papers listed below in the main body of your paper

In addition to the list printed below, the program has created the file xtb_opt.bibtex that contains the list in bibtex format
You can import this file easily into all common literature databanks and citation aid programs


List of essential papers. We consider these as the minimum necessary citations

  1. Neese,F.
     Software update: the ORCA program system, version 5.0
     WIRES Comput. Molec. Sci., 2022 12(1)e1606
     doi.org/10.1002/wcms.1606
  2. Grimme,S.; Hansen,A.; Ehlert,S.; Mewes,J.
     r2SCAN-3c: A 'Swiss army knife' composite electronic-structure method
     J. Chem. Phys., 2021 154 064103
     doi.org/10.1063/5.0040021

List of papers to cite with high priority. The work reported in these papers was absolutely
necessary for this run to complete.
Our perspective: the developers of density functionals and basis sets usually get cited in chemistry papers
Good! But without the algorithms to do something with them, the functionals or basis sets would not do anything.
Hence, in our opinion, the algorithm design and method developments papers are equally worthy of getting cited

  1. Neese,F.
     An improvement of the resolution of the identity approximation for the formation of the Coulomb matrix
     J. Comp. Chem., 2003 24(14)1740-1747
     doi.org/10.1002/jcc.10318
  2. Garcia-Rates,M.; Neese,F.
     Effect of the Solute Cavity on the Solvation Energy and its Derivatives within the Framework of the Gaussian Charge Scheme
     J. Comput. Chem., 2020 41 922-939
     doi.org/10.1002/jcc.26139
  3. Neese,F.
     The SHARK Integral Generation and Digestion System
     J. Comp. Chem., 2022  1-16
     doi.org/10.1002/jcc.26942
  4. Lehtola,S.; Steigemann,C.; Oliveira,M.; Marques,M.
     Recent developments in Libxc - A comprehensive library of functionals for density functional theory
     Software X, 2018 7 
     doi.org/10.1016/j.softx.2017.11.002
  5. Caldeweyher,E.; Bannwarth,C.; Grimme,S.
     Extension of the D3 dispersion coefficient model
     J. Chem. Phys., 2017 147 034112-XXXX
     doi.org/10.1063/1.4993215
  6. Caldeweyher,E.; Ehlert,S.; Hansen,A.; Neugebauer,H.; Spicher,S.; Bannwarth,C.; Grimme,S.
     A generally applicable atomic-charge dependent London dispersion correction
     J. Chem. Phys., 2019 150 154122-XXXX
     doi.org/10.1063/1.5090222
  7. Caldeweyher,E.; Mewes,J.; Ehlert,S.; Grimme,S.
     Extension and evaluation of the D4 London-dispersion model for periodic systems
     Phys. Chem. Chem. Phys., 2020 22(16)8499-8512
     doi.org/10.1039/D0CP00502A

List of suggested additional citations. These are papers that are important in the 'surrounding' of 
of this run, or papers that preceded the highly important papers. If you like your results we are grateful for a citation.

  1. Neese,F.
     The ORCA program system
     WIRES Comput. Molec. Sci., 2012 2(1)73-78
     doi.org/10.1002/wcms.81
  2. Neese,F.
     Software update: the ORCA program system, version 4.0
     WIRES Comput. Molec. Sci., 2018 8(1)1-6
     doi.org/10.1002/wcms.1327
  3. Neese,F.; Wennmohs,F.; Becker,U.; Riplinger,C.
     The ORCA quantum chemistry program package
     J. Chem. Phys., 2020 152 Art. No. L224108
     doi.org/10.1063/5.0004608

List of optional additional citations

  1. Neese,F.
     Approximate second-order SCF convergence for spin unrestricted wavefunctions
     Chem. Phys. Lett., 2000 325(1-3)93-98
     doi.org/10.1016/s0009-2614(00)00662-x

Timings for individual modules:

Sum of individual times          ...       30.221 sec (=   0.504 min)
Startup calculation              ...        1.581 sec (=   0.026 min)   5.2 %
SCF iterations                   ...       12.275 sec (=   0.205 min)  40.6 %
Property calculations            ...        0.115 sec (=   0.002 min)   0.4 %
SCF Gradient evaluation          ...       16.251 sec (=   0.271 min)  53.8 %
                             ****ORCA TERMINATED NORMALLY****
TOTAL RUN TIME: 0 days 0 hours 0 minutes 31 seconds 139 msec
  ------------------------------------------------------------------------
          * successful ORCA run, taking over control again...

         :::::::::::::::::::::::::::::::::::::::::::::::::::::
         ::                  ORCA SUMMARY                   ::
         :::::::::::::::::::::::::::::::::::::::::::::::::::::
         :: total energy           -1398.633056332497 Eh    ::
         :: gradient norm              0.000529490232 Eh/a0 ::
         :: HOMO-LUMO gap              0.000000000000 eV    ::
         :::::::::::::::::::::::::::::::::::::::::::::::::::::

           -------------------------------------------------
          |                Property Printout                |
           -------------------------------------------------
           -------------------------------------------------
          |                Geometry Summary                 |
           -------------------------------------------------

      molecular mass/u    :      218.0800731
   center of mass at/Å    :       -0.0133163       0.0036101      -0.0005778
  moments of inertia/u·Å² :        0.3557072E+03   0.1839135E+04   0.2159796E+04
rotational constants/cm⁻¹ :        0.4739188E-01   0.9166067E-02   0.7805196E-02

 * 21 selected distances

     #   Z          #   Z                                           value/Å
     1   6 C        2   6 C                                       1.5299003
     3   6 C        4   8 O                                       1.2354010
     3   6 C        5   7 N                                       1.3668493
     5   7 N        6   6 C                                       1.4014653
     6   6 C        7   6 C                                       1.4019888
     7   6 C        8   6 C                                       1.3829184
     8   6 C        9   6 C                                       1.3923218
     9   6 C       10   6 C                                       1.3931853
     6   6 C       11   6 C                                       1.3975639
    10   6 C       11   6 C                                       1.3905345
    10   6 C       12  17 Cl                                      1.7480325 (max)
     9   6 C       13  17 Cl                                      1.7460700
     1   6 C       14   1 H                                       1.0930500
     1   6 C       15   1 H                                       1.0944233
     1   6 C       16   1 H                                       1.0930757
     2   6 C       17   1 H                                       1.0968766
     2   6 C       18   1 H                                       1.0935710
     5   7 N       19   1 H                                       1.0111186 (min)
     7   6 C       20   1 H                                       1.0857736
     8   6 C       21   1 H                                       1.0840248
    11   6 C       22   1 H                                       1.0792110

 * 6 distinct bonds (by element types)

   Z      Z             #   av. dist./Å        max./Å        min./Å
   1 H    6 C           8     1.0900007     1.0968766     1.0792110
   6 C    6 C           7     1.4126304     1.5299003     1.3829184
   1 H    7 N           1     1.0111186     1.0111186     1.0111186
   6 C    7 N           2     1.3841573     1.4014653     1.3668493
   6 C    8 O           1     1.2354010     1.2354010     1.2354010
   6 C   17 Cl          2     1.7470513     1.7480325     1.7460700


optimized geometry written to: xtbopt.coord


           -------------------------------------------------
          | TOTAL ENERGY            -1398.633056332497 Eh   |
          | GRADIENT NORM               0.000529490232 Eh/α |
           -------------------------------------------------

------------------------------------------------------------------------
 * finished run on 2025/04/11 at 12:10:28.809     
------------------------------------------------------------------------
 total:
 * wall-time:     0 d,  0 h,  7 min,  2.112 sec
 *  cpu-time:     0 d,  0 h,  0 min,  2.173 sec
 * ratio c/w:     0.005 speedup
 SCF:
 * wall-time:     0 d,  0 h,  0 min, 44.402 sec
 *  cpu-time:     0 d,  0 h,  0 min,  0.805 sec
 * ratio c/w:     0.018 speedup
 ANC optimizer:
 * wall-time:     0 d,  0 h,  6 min, 17.658 sec
 *  cpu-time:     0 d,  0 h,  0 min,  1.340 sec
 * ratio c/w:     0.004 speedup

