      -----------------------------------------------------------      
     |                   =====================                   |     
     |                           x T B                           |     
     |                   =====================                   |     
     |                         S. Grimme                         |     
     |          Mulliken Center for Theoretical Chemistry        |     
     |                    University of Bonn                     |     
      -----------------------------------------------------------      

   * xtb version 6.7.1 (edcfbbe) compiled by 'albert@albert-system' on 2024-07-22

   xtb is free software: you can redistribute it and/or modify it under
   the terms of the GNU Lesser General Public License as published by
   the Free Software Foundation, either version 3 of the License, or
   (at your option) any later version.
   
   xtb is distributed in the hope that it will be useful,
   but WITHOUT ANY WARRANTY; without even the implied warranty of
   MERCHANTABILITY or FITNESS FOR A PARTICULAR PURPOSE.  See the
   GNU Lesser General Public License for more details.
   
   Cite this work as:
   * C. Bannwarth, E. Caldeweyher, S. Ehlert, A. Hansen, P. Pracht,
     J. Seibert, S. Spicher, S. Grimme, WIREs Comput. Mol. Sci., 2020, 11,
     e01493. DOI: 10.1002/wcms.1493
   
   for GFN2-xTB:
   * C. Bannwarth, S. Ehlert and S. Grimme., J. Chem. Theory Comput., 2019,
     15, 1652-1671. DOI: 10.1021/acs.jctc.8b01176
   for GFN1-xTB:
   * S. Grimme, C. Bannwarth, P. Shushkov, J. Chem. Theory Comput., 2017,
     13, 1989-2009. DOI: 10.1021/acs.jctc.7b00118
   for GFN0-xTB:
   * P. Pracht, E. Caldeweyher, S. Ehlert, S. Grimme, ChemRxiv, 2019, preprint.
     DOI: 10.26434/chemrxiv.8326202.v1
   for GFN-FF:
   * S. Spicher and S. Grimme, Angew. Chem. Int. Ed., 2020, 59, 15665-15673.
     DOI: 10.1002/anie.202004239
   
   for ALPB and GBSA implicit solvation:
   * S. Ehlert, M. Stahn, S. Spicher, S. Grimme, J. Chem. Theory Comput.,
     2021, 17, 4250-4261. DOI: 10.1021/acs.jctc.1c00471
   
   for ddCOSMO and CPCM-X implicit solvation:
   * M. Stahn, S. Ehlert, S. Grimme, J. Phys. Chem. A,
     2023, XX, XXXX-XXXX. DOI: 10.1021/acs.jpca.3c04382
   
   for DFT-D4:
   * E. Caldeweyher, C. Bannwarth and S. Grimme, J. Chem. Phys., 2017,
     147, 034112. DOI: 10.1063/1.4993215
   * E. Caldeweyher, S. Ehlert, A. Hansen, H. Neugebauer, S. Spicher,
     C. Bannwarth and S. Grimme, J. Chem. Phys., 2019, 150, 154122.
     DOI: 10.1063/1.5090222
   * E. Caldeweyher, J.-M. Mewes, S. Ehlert and S. Grimme, Phys. Chem. Chem. Phys.
     2020, 22, 8499-8512. DOI: 10.1039/D0CP00502A
   
   for sTDA-xTB:
   * S. Grimme and C. Bannwarth, J. Chem. Phys., 2016, 145, 054103.
     DOI: 10.1063/1.4959605
   
   in the mass-spec context:
   * V. Asgeirsson, C. Bauer and S. Grimme, Chem. Sci., 2017, 8, 4879.
     DOI: 10.1039/c7sc00601b
   * J. Koopman and S. Grimme, ACS Omega 2019, 4, 12, 15120-15133.
     DOI: 10.1021/acsomega.9b02011
   
   for metadynamics refer to:
   * S. Grimme, J. Chem. Theory Comput., 2019, 155, 2847-2862
     DOI: 10.1021/acs.jctc.9b00143
   
   for SPH calculations refer to:
   * S. Spicher and S. Grimme, J. Chem. Theory Comput., 2021, 17, 1701-1714
     DOI: 10.1021/acs.jctc.0c01306
   
   for ONIOM refer to:
   * C. Plett, A. Katbashev, S. Ehlert, S. Grimme, M. Bursch,
     Phys. Chem. Chem. Phys., 2023, 25, 17860-17868. DOI: 10.1039/D3CP02178E
   
   for DIPRO refer to:
   * J. Kohn, N. Gildemeister, S. Grimme, D. Fazzi, A. Hansen,
     J. Chem. Phys., 2023, just accepted.
   
   for PTB refer to:
   * S. Grimme, M. Mueller, A. Hansen, J. Chem. Phys., 2023, 158, 124111.
     DOI: 10.1063/5.0137838
   
   with help from (in alphabetical order)
   P. Atkinson, C. Bannwarth, F. Bohle, G. Brandenburg, E. Caldeweyher
   M. Checinski, S. Dohm, S. Ehlert, S. Ehrlich, I. Gerasimov, C. Hölzer
   A. Katbashev, J. Kohn, J. Koopman, C. Lavigne, S. Lehtola, F. März, M. Müller,
   F. Musil, H. Neugebauer, J. Pisarek, C. Plett, P. Pracht, F. Pultar,
   J. Seibert, P. Shushkov, S. Spicher, M. Stahn, M. Steiner, T. Strunk,
   J. Stückrath, T. Rose, and J. Unsleber
   
 * started run on 2025/04/11 at 11:55:21.876     
   ID    Z sym.   atoms
    1    6 C      1-8
    2    1 H      9-24

           -------------------------------------------------
          |                Calculation Setup                |
           -------------------------------------------------

          program call               : /srv/scratch/z5358697/.xtb/bin/xtb solv.coord --gfn2 --sp --chrg 0 --norestart --parallel 1 --alpb water reference -I xtb_sp-xcontrol-inp
          hostname                   : k071
          coordinate file            : solv.coord
          omp threads                :                     1


           -------------------------------------------------
          |                 G F N 2 - x T B                 |
           -------------------------------------------------

        Reference                      10.1021/acs.jctc.8b01176
      * Hamiltonian:
        H0-scaling (s, p, d)           1.850000    2.230000    2.230000
        zeta-weighting                 0.500000
      * Dispersion:
        s8                             2.700000
        a1                             0.520000
        a2                             5.000000
        s9                             5.000000
      * Repulsion:
        kExp                           1.500000    1.000000
        rExp                           1.000000
      * Coulomb:
        alpha                          2.000000
        third order                    shell-resolved
        anisotropic                    true
        a3                             3.000000
        a5                             4.000000
        cn-shift                       1.200000
        cn-exp                         4.000000
        max-rad                        5.000000

      * Solvation model:               ALPB
        Solvent                        water
        Parameter file                 internal GFN2-xTB/ALPB
        Dielectric constant                8.0200E+01
        Reference state                gsolv=reference [X=1]
        Free energy shift                  2.8945E-03 Eh       1.8164E+00 kcal/mol
        Temperature                        2.9815E+02 K
        Density                            1.0000E+00 kg/L
        Solvent mass                       1.8000E+01 g/mol
        Interaction kernel             P16
        Born radius scaling (c1)           1.4744E+00
        Born radii integrator          GBOBC
        Born offset                        0.0000E+00 a0       0.0000E+00 AA
        H-bond correction              true
        Ion screening                  false
        Surface tension                    1.0000E-05 Eh       1.5569E+01 dyn/cm
        Grid points                               974 per atom

          ...................................................
          :                      SETUP                      :
          :.................................................:
          :  # basis functions                  48          :
          :  # atomic orbitals                  48          :
          :  # shells                           32          :
          :  # electrons                        48          :
          :  max. iterations                   250          :
          :  Hamiltonian                  GFN2-xTB          :
          :  restarted?                      false          :
          :  GBSA solvation                   true          :
          :  PC potential                    false          :
          :  electronic temp.          300.0000000     K    :
          :  accuracy                    1.0000000          :
          :  -> integral cutoff          0.2500000E+02      :
          :  -> integral neglect         0.1000000E-07      :
          :  -> SCF convergence          0.1000000E-05 Eh   :
          :  -> wf. convergence          0.1000000E-03 e    :
          :  Broyden damping             0.4000000          :
          :  net charge                          0          :
          :  unpaired electrons                  0          :
          ...................................................

 iter      E             dE          RMSdq      gap      omega  full diag
   1    -25.6349726 -0.256350E+02  0.238E+00   12.82       0.0  T
   2    -25.6764938 -0.415211E-01  0.132E+00   12.57       1.0  T
   3    -25.6775204 -0.102657E-02  0.618E-01   12.53       1.0  T
   4    -25.6776639 -0.143558E-03  0.815E-02   12.53       1.0  T
   5    -25.6776784 -0.144974E-04  0.448E-02   12.53       1.0  T
   6    -25.6776796 -0.113942E-05  0.295E-03   12.53       6.9  T
   7    -25.6776796 -0.896243E-07  0.121E-03   12.53      16.8  T
   8    -25.6776796 -0.191936E-08  0.446E-04   12.53      45.8  T
   9    -25.6776796 -0.342322E-09  0.133E-04   12.53     153.3  T

   *** convergence criteria satisfied after 9 iterations ***

         #    Occupation            Energy/Eh            Energy/eV
      -------------------------------------------------------------
         1        2.0000           -0.6321410             -17.2014
       ...           ...                  ...                  ...
        18        2.0000           -0.4359767             -11.8635
        19        2.0000           -0.4346826             -11.8283
        20        2.0000           -0.4338810             -11.8065
        21        2.0000           -0.4184350             -11.3862
        22        2.0000           -0.4158310             -11.3153
        23        2.0000           -0.4147303             -11.2854
        24        2.0000           -0.4035489             -10.9811 (HOMO)
        25                          0.0569219               1.5489 (LUMO)
        26                          0.0660676               1.7978
        27                          0.0720881               1.9616
        28                          0.1015052               2.7621
        29                          0.1088317               2.9615
       ...                                ...                  ...
        48                          0.3487350               9.4896
      -------------------------------------------------------------
                  HL-Gap            0.4604708 Eh           12.5300 eV
             Fermi-level           -0.1733135 Eh           -4.7161 eV

 SCC (total)                   0 d,  0 h,  0 min,  0.021 sec
 SCC setup                      ...        0 min,  0.001 sec (  7.125%)
 Dispersion                     ...        0 min,  0.000 sec (  0.690%)
 classical contributions        ...        0 min,  0.000 sec (  0.137%)
 integral evaluation            ...        0 min,  0.002 sec (  9.194%)
 iterations                     ...        0 min,  0.011 sec ( 52.640%)
 molecular gradient             ...        0 min,  0.006 sec ( 29.457%)
 printout                       ...        0 min,  0.000 sec (  0.696%)

         :::::::::::::::::::::::::::::::::::::::::::::::::::::
         ::                     SUMMARY                     ::
         :::::::::::::::::::::::::::::::::::::::::::::::::::::
         :: total energy             -25.303152049774 Eh    ::
         :: total w/o Gsasa/hb       -25.304720505128 Eh    ::
         :: gradient norm              0.000062621106 Eh/a0 ::
         :: HOMO-LUMO gap             12.530047790284 eV    ::
         ::.................................................::
         :: SCC energy               -25.677551182231 Eh    ::
         :: -> isotropic ES            0.004552287398 Eh    ::
         :: -> anisotropic ES          0.007130481510 Eh    ::
         :: -> anisotropic XC          0.014976906819 Eh    ::
         :: -> dispersion             -0.017067454988 Eh    ::
         :: -> Gsolv                   0.001384929692 Eh    ::
         ::    -> Gelec               -0.000183525662 Eh    ::
         ::    -> Gsasa               -0.000924036190 Eh    ::
         ::    -> Ghb                 -0.000402057617 Eh    ::
         ::    -> Gshift               0.002894549160 Eh    ::
         :: repulsion energy           0.374399132458 Eh    ::
         :: add. restraining           0.000000000000 Eh    ::
         :: total charge              -0.000000000000 e     ::
         :::::::::::::::::::::::::::::::::::::::::::::::::::::

           -------------------------------------------------
          |                Property Printout                |
           -------------------------------------------------

    * Orbital Energies and Occupations

         #    Occupation            Energy/Eh            Energy/eV
      -------------------------------------------------------------
         1        2.0000           -0.6321410             -17.2014
       ...           ...                  ...                  ...
        12        2.0000           -0.4946356             -13.4597
        13        2.0000           -0.4813884             -13.0992
        14        2.0000           -0.4724211             -12.8552
        15        2.0000           -0.4708690             -12.8130
        16        2.0000           -0.4508505             -12.2683
        17        2.0000           -0.4413137             -12.0088
        18        2.0000           -0.4359767             -11.8635
        19        2.0000           -0.4346826             -11.8283
        20        2.0000           -0.4338810             -11.8065
        21        2.0000           -0.4184350             -11.3862
        22        2.0000           -0.4158310             -11.3153
        23        2.0000           -0.4147303             -11.2854
        24        2.0000           -0.4035489             -10.9811 (HOMO)
        25                          0.0569219               1.5489 (LUMO)
        26                          0.0660676               1.7978
        27                          0.0720881               1.9616
        28                          0.1015052               2.7621
        29                          0.1088317               2.9615
        30                          0.1135657               3.0903
        31                          0.1321145               3.5950
        32                          0.1429503               3.8899
        33                          0.1498962               4.0789
        34                          0.1532330               4.1697
        35                          0.1719609               4.6793
       ...                                ...                  ...
        48                          0.3487350               9.4896
      -------------------------------------------------------------
                  HL-Gap            0.4604708 Eh           12.5300 eV
             Fermi-level           -0.1733135 Eh           -4.7161 eV

     #   Z          covCN         q      C6AA      α(0)
     1   6 C        3.751    -0.106    22.581     6.777
     2   6 C        3.798    -0.055    21.572     6.613
     3   6 C        3.799    -0.065    21.743     6.639
     4   6 C        3.869    -0.021    20.911     6.502
     5   6 C        3.818    -0.068    21.780     6.642
     6   6 C        3.825    -0.059    21.617     6.616
     7   6 C        3.828    -0.060    21.626     6.617
     8   6 C        3.830    -0.063    21.688     6.626
     9   1 H        0.925     0.031     2.566     2.505
    10   1 H        0.925     0.042     2.426     2.436
    11   1 H        0.925     0.033     2.550     2.497
    12   1 H        0.924     0.032     2.556     2.500
    13   1 H        0.924     0.028     2.609     2.526
    14   1 H        0.924     0.028     2.612     2.527
    15   1 H        0.924     0.034     2.533     2.489
    16   1 H        0.924     0.024     2.676     2.558
    17   1 H        0.924     0.025     2.659     2.550
    18   1 H        0.925     0.040     2.448     2.447
    19   1 H        0.925     0.027     2.625     2.534
    20   1 H        0.924     0.029     2.605     2.524
    21   1 H        0.924     0.030     2.593     2.518
    22   1 H        0.925     0.028     2.616     2.529
    23   1 H        0.925     0.026     2.648     2.545
    24   1 H        0.925     0.040     2.447     2.446

 Mol. C6AA /au·bohr⁶  :       3946.555890
 Mol. C8AA /au·bohr⁸  :      83630.468668
 Mol. α(0) /au        :         93.164460


Wiberg/Mayer (AO) data.
largest (>0.10) Wiberg bond orders for each atom

 ---------------------------------------------------------------------------
     #   Z sym  total        # sym  WBO       # sym  WBO       # sym  WBO
 ---------------------------------------------------------------------------
     1   6 C    3.997 --     2 C    1.020     9 H    0.987    11 H    0.987
                            10 H    0.984
     2   6 C    3.998 --     1 C    1.020     3 C    1.007    13 H    0.978
                            12 H    0.975
     3   6 C    3.996 --     2 C    1.007     4 C    0.997    14 H    0.978
                            15 H    0.976
     4   6 C    3.994 --     3 C    0.997     8 C    0.996     5 C    0.990
                            16 H    0.973
     5   6 C    3.997 --     6 C    1.004     4 C    0.990    17 H    0.984
                            18 H    0.978
     6   6 C    3.998 --     7 C    1.007     5 C    1.004    19 H    0.982
                            20 H    0.981
     7   6 C    3.998 --     8 C    1.007     6 C    1.007    21 H    0.980
                            22 H    0.980
     8   6 C    3.997 --     7 C    1.007     4 C    0.996    23 H    0.980
                            24 H    0.973
     9   1 H    0.999 --     1 C    0.987
    10   1 H    0.998 --     1 C    0.984
    11   1 H    0.999 --     1 C    0.987
    12   1 H    0.999 --     2 C    0.975
    13   1 H    0.999 --     2 C    0.978
    14   1 H    0.999 --     3 C    0.978
    15   1 H    0.999 --     3 C    0.976
    16   1 H    0.999 --     4 C    0.973
    17   1 H    0.999 --     5 C    0.984
    18   1 H    0.998 --     5 C    0.978
    19   1 H    0.999 --     6 C    0.982
    20   1 H    0.999 --     6 C    0.981
    21   1 H    0.999 --     7 C    0.980
    22   1 H    0.999 --     7 C    0.980
    23   1 H    0.999 --     8 C    0.980
    24   1 H    0.998 --     8 C    0.973
 ---------------------------------------------------------------------------

Topologies differ in total number of bonds
Writing topology from bond orders to xtbtopo.mol

molecular dipole:
                 x           y           z       tot (Debye)
 q only:       -0.064       0.005      -0.035
   full:       -0.052       0.000      -0.011       0.136
molecular quadrupole (traceless):
                xx          xy          yy          xz          yz          zz
 q only:       -0.193       0.029       0.084      -0.099       0.005       0.109
  q+dip:       -0.163      -0.164       0.029       0.848      -0.499       0.134
   full:       -0.103      -0.097      -0.015       0.405      -0.268       0.118


           -------------------------------------------------
          | TOTAL ENERGY              -25.303152049774 Eh   |
          | GRADIENT NORM               0.000062621106 Eh/α |
          | HOMO-LUMO GAP              12.530047790284 eV   |
           -------------------------------------------------

------------------------------------------------------------------------
 * finished run on 2025/04/11 at 11:55:21.940     
------------------------------------------------------------------------
 total:
 * wall-time:     0 d,  0 h,  0 min,  0.064 sec
 *  cpu-time:     0 d,  0 h,  0 min,  0.025 sec
 * ratio c/w:     0.396 speedup
 SCF:
 * wall-time:     0 d,  0 h,  0 min,  0.021 sec
 *  cpu-time:     0 d,  0 h,  0 min,  0.017 sec
 * ratio c/w:     0.825 speedup

