21
 energy: -312.211028420929 gnorm: 0.034377966447 xtb: 6.7.1 (edcfbbe)
C           -2.28021720601042        0.64096166368403        0.72315253782045
C           -1.74109310007152        0.32418193764365       -0.66884398759638
C           -0.55205440284463       -0.64151039098427       -0.69396699320752
C            0.77134644744180       -0.18070164478007       -0.04217698771869
C            1.10061355578771        1.28032241206734       -0.36535938976190
C            1.90473554954404       -1.08129155507915       -0.54850356654306
O            0.74344295122944       -0.38362072506999        1.36896432690662
H           -3.24445904183771        1.13832727670442        0.64246252358469
H           -1.61538984881582        1.30619569737881        1.26944289126252
H           -2.41642962327078       -0.27271501562085        1.29735677317489
H           -2.54090198392594       -0.14509096126429       -1.24703223625259
H           -1.47719466635458        1.25120096045444       -1.17942256302263
H           -0.84148537537288       -1.57424346399759       -0.20257586538977
H           -0.33838009454995       -0.87314968288692       -1.73903522487061
H            0.37433017946588        1.95530238136645        0.07962083903528
H            1.11005798839190        1.43125570443423       -1.44081454663846
H            2.08232050482273        1.52575994567610        0.03316264201470
H            1.65448330353315       -2.12381186134112       -0.37085145196433
H            2.81699420084828       -0.85246709157775       -0.00382830930170
H            2.07172799571804       -0.92615426961040       -1.60958212251325
H            0.05670872252513        0.17406678837713        1.75587239707807
21
 energy: -312.212097784401 gnorm: 0.015432067556 xtb: 6.7.1 (edcfbbe)
C           -2.28264737679716        0.64132339046449        0.72775288996175
C           -1.74334546254195        0.31959484260607       -0.66663162839983
C           -0.54932934674846       -0.64039531240521       -0.70525919937838
C            0.77328379587005       -0.18232391549705       -0.05146395314419
C            1.10120750699295        1.27866459524997       -0.36613413945611
C            1.90688076203564       -1.08672206596583       -0.53858113211939
O            0.73869219253864       -0.37554862973157        1.37515371936007
H           -3.24861771181833        1.14900207705870        0.65880959003598
H           -1.61410897034956        1.30432486117231        1.28473878335826
H           -2.42566488392475       -0.27360073474613        1.31026239585857
H           -2.54573347272138       -0.14360455410356       -1.25153176367717
H           -1.48535329154739        1.24977507631619       -1.18357012385817
H           -0.83273028120416       -1.58477996468781       -0.22408273130789
H           -0.33323382838887       -0.87021111067629       -1.75416877830234
H            0.36814516990183        1.95664162798080        0.07845545477469
H            1.11185190120983        1.44002835170348       -1.44671343869853
H            2.08742156430145        1.52909927845293        0.03402881262789
H            1.65669382140160       -2.13727596798539       -0.36697754205588
H            2.82929793857237       -0.85534125231911        0.00061958923006
H            2.07585085068141       -0.93473721613448       -1.60570244775374
H            0.05059619868281        0.18890375771719        1.74904067252095
21
 energy: -312.212403671335 gnorm: 0.004847681962 xtb: 6.7.1 (edcfbbe)
C           -2.28098691096914        0.63593675320646        0.73331244018543
C           -1.74495721511070        0.31698052894611       -0.66356624626411
C           -0.54724618517350       -0.63796133327866       -0.71225144869806
C            0.77450387661281       -0.18119600193555       -0.05957026242544
C            1.10533447599093        1.27695219189191       -0.37020587290310
C            1.90555355918619       -1.09039339267668       -0.53034613725587
O            0.72699406443792       -0.36722827115667        1.38189953691567
H           -3.24540104962007        1.15299042384423        0.67020284585292
H           -1.60997968056239        1.29561650137709        1.29741211812054
H           -2.43204400383784       -0.27865186882656        1.32032123407377
H           -2.55006541532104       -0.14400893133309       -1.24955609125122
H           -1.49560289061044        1.25086213402480       -1.18354765764244
H           -0.82268718334219       -1.59585299828163       -0.24774185993095
H           -0.33034407089895       -0.85549305367967       -1.76601025720631
H            0.36792143171197        1.95511763423853        0.07344365579459
H            1.11758065789244        1.44828158779315       -1.45270855167677
H            2.09237698871059        1.53120435850392        0.03208119962226
H            1.65490502048263       -2.14382599760258       -0.35878808104382
H            2.83255401839940       -0.85771032688170        0.00574710460465
H            2.08136411317709       -0.94808078536138       -1.60103540264638
H            0.03938559690502        0.20927665218704        1.73895837715032
21
 energy: -312.212464225514 gnorm: 0.002667611855 xtb: 6.7.1 (edcfbbe)
C           -2.28079488419521        0.63280864985147        0.73708246756064
C           -1.74621931970447        0.31589825776133       -0.66013902334149
C           -0.54571896083606       -0.63474478704596       -0.71768771235040
C            0.77487369266275       -0.18004913110045       -0.06433445942874
C            1.10768716676342        1.27668529658501       -0.37293969487263
C            1.90465384886205       -1.09281752005837       -0.52611828229100
O            0.72241243012374       -0.36429101113754        1.38246627111063
H           -3.24426935038333        1.15102420466473        0.67462262475581
H           -1.61054047112741        1.29257764082794        1.30154769857071
H           -2.43249142152256       -0.28198253026750        1.32301129945259
H           -2.55183010026649       -0.14680956775613       -1.24402722989019
H           -1.50182213671691        1.25133907556552       -1.17952533710088
H           -0.81720123304842       -1.59777195657318       -0.26210571460247
H           -0.32942750115003       -0.84206924340855       -1.77391691509957
H            0.37028017977047        1.95531193473805        0.06937894049792
H            1.12142430092003        1.44914208285233       -1.45506049242777
H            2.09399044399810        1.53040670123388        0.03042737436318
H            1.65243410862343       -2.14485046499647       -0.35042761305431
H            2.83055372824151       -0.85913464952477        0.01069374132631
H            2.08442211428438       -0.95680392718565       -1.59702021608908
H            0.03674423783527        0.21894596942195        1.73212654734171
21
 energy: -312.212501915066 gnorm: 0.002186239732 xtb: 6.7.1 (edcfbbe)
C           -2.28017316772227        0.62802306680605        0.74196559796248
C           -1.74822111241569        0.31589432055807       -0.65678765894632
C           -0.54435644499158       -0.62995378662252       -0.72354591628942
C            0.77472861742853       -0.17838082972167       -0.06858389579855
C            1.11160590231806        1.27655993055767       -0.37664295688232
C            1.90326057842533       -1.09548051872806       -0.52183360484984
O            0.71643253615123       -0.36147619089391        1.38191646893332
H           -3.24403498016538        1.14387278263799        0.67942464364954
H           -1.61272614839484        1.29020936832316        1.30545241028278
H           -2.42948138994478       -0.28728798342558        1.32604125206151
H           -2.55374474113921       -0.15047755453865       -1.23722889233877
H           -1.51025429520192        1.25318173939009       -1.17468602967175
H           -0.81175133887555       -1.59873354198350       -0.27960360915958
H           -0.32853892645738       -0.82275767609501       -1.78251827438459
H            0.37471150658794        1.95633968494825        0.06305287889744
H            1.12791017346701        1.44751281018879       -1.45823855801765
H            2.09675495949183        1.52854084983959        0.02853618200213
H            1.64796655764043       -2.14462144398001       -0.33830955433954
H            2.82661433450278       -0.86017516065263        0.01707433637704
H            2.08746474621150       -0.96808566561120       -1.59252823676508
H            0.03499592334461        0.23010992364268        1.72510255847722
21
 energy: -312.212516216914 gnorm: 0.002075899204 xtb: 6.7.1 (edcfbbe)
C           -2.28024003017208        0.62506006525286        0.74481383531695
C           -1.74951343932803        0.31642510555174       -0.65526070157536
C           -0.54360608137039       -0.62682176790363       -0.72724898856358
C            0.77433442419432       -0.17738786677110       -0.06989739897743
C            1.11428619072889        1.27667723371570       -0.37879897934873
C            1.90228491580372       -1.09734892309645       -0.51935460671854
O            0.71286621408980       -0.35974570438289        1.38063481900193
H           -3.24608708946657        1.13680793433508        0.68330632588813
H           -1.61522326633685        1.29005958351456        1.30718917482262
H           -2.42511760938842       -0.29108707296997        1.32794434432862
H           -2.55484166525395       -0.15183533417460       -1.23410600411211
H           -1.51520669211358        1.25502002654659       -1.17177859994445
H           -0.80966765067652       -1.59854878725043       -0.29009370979068
H           -0.32741061506123       -0.81131070437663       -1.78736782443795
H            0.37762928741489        1.95799797258774        0.05822082563256
H            1.13321250085808        1.44531973865195       -1.46037943240722
H            2.09873497022334        1.52732172644338        0.02811766560418
H            1.64516801057972       -2.14477767232970       -0.33054910327065
H            2.82444201899747       -0.86078933653362        0.02046494503480
H            2.08799775764094       -0.97498131412520       -1.58993540996917
H            0.03512278502497        0.23675873286360        1.72214107602783
21
 energy: -312.212534746520 gnorm: 0.001824392081 xtb: 6.7.1 (edcfbbe)
C           -2.28043602916563        0.61840006336239        0.75045172364021
C           -1.75239311500994        0.31815778713524       -0.65296816296926
C           -0.54252911260412       -0.62011339378570       -0.73476351870677
C            0.77327623542394       -0.17563860507928       -0.07140302104136
C            1.12018737366308        1.27656623711754       -0.38313795031576
C            1.90008557744741       -1.10146403608544       -0.51381201220243
O            0.70487636058750       -0.35535807771237        1.37779892002125
H           -3.25219111198443        1.11928577517023        0.69275521567911
H           -1.62119144856734        1.29055468600176        1.31070125754310
H           -2.41334110694987       -0.29998810248645        1.33249152811222
H           -2.55738337566520       -0.15260364299164       -1.22997528587460
H           -1.52503202897377        1.26002187862035       -1.16607127056580
H           -0.80653269762978       -1.59807612648970       -0.31137044932638
H           -0.32473613448121       -0.78860661938416       -1.79699640835457
H            0.38324460225764        1.96175600866623        0.04701568526472
H            1.14594582073677        1.44018670341687       -1.46515731235186
H            2.10307525957231        1.52494087588462        0.02850901032529
H            1.63965708769485       -2.14599304790425       -0.31466370138471
H            2.82121974459950       -0.86222883927304        0.02629153549796
H            2.08739539537679       -0.98920191901330       -1.58474813928896
H            0.03597123970498        0.25221505672477        1.71712132524675
21
 energy: -312.212544686212 gnorm: 0.001006426674 xtb: 6.7.1 (edcfbbe)
C           -2.28094388005115        0.61400528044238        0.75308139796365
C           -1.75362898897711        0.31974516304760       -0.65229507082180
C           -0.54241465736098       -0.61661383529732       -0.73870844209361
C            0.77247693427700       -0.17462723666351       -0.07110400959350
C            1.12386218005341        1.27647533775393       -0.38536945982615
C            1.89813701619205       -1.10407925985336       -0.51046187756185
O            0.70003014330462       -0.35183510915012        1.37588611614196
H           -3.25803046035696        1.10567115489238        0.69918857284156
H           -1.62619962002408        1.29187317940511        1.31235047108052
H           -2.40354736009085       -0.30625219867042        1.33523585119508
H           -2.55839680748268       -0.14999066317737       -1.23062846090875
H           -1.52862277448948        1.26396175991812       -1.16235691580929
H           -0.80659591900817       -1.59733623651341       -0.32176404282285
H           -0.32315164926987       -0.77859021444288       -1.80149369813300
H            0.38582036094714        1.96445145700715        0.03927570432055
H            1.15546351079723        1.43716446557109       -1.46799002241909
H            2.10543002500146        1.52432230025425        0.03058589760387
H            1.63676490143910       -2.14767047914639       -0.30637788889535
H            2.82048559936518       -0.86350905761114        0.02753982379106
H            2.08436945334670       -0.99705015128821       -1.58221289036665
H            0.03786279651486        0.26269652682355        1.71569185607316
21
 energy: -312.212549071324 gnorm: 0.000618092942 xtb: 6.7.1 (edcfbbe)
C           -2.28152202096658        0.61205230346442        0.75310692341543
C           -1.75354598933268        0.32090390400235       -0.65258400557115
C           -0.54297374240582       -0.61583746005900       -0.73897464239573
C            0.77242983243132       -0.17466679973433       -0.07066037813118
C            1.12480612261727        1.27595354899746       -0.38578264454388
C            1.89724474895534       -1.10484244496041       -0.50966640948066
O            0.69883111865227       -0.35006220620544        1.37585783622716
H           -3.26094953093935        1.09925718333588        0.70094046339588
H           -1.62930174406394        1.29234973088788        1.31281713485567
H           -2.39935849589403       -0.30896869474466        1.33547144311370
H           -2.55818406454672       -0.14603323809762       -1.23371378846702
H           -1.52709481146417        1.26633376900834       -1.16033083499664
H           -0.80755100287858       -1.59653721050108       -0.32158227151195
H           -0.32332592435919       -0.77892357067862       -1.80162953931431
H            0.38559354778284        1.96461883583417        0.03624236446156
H            1.15945663621007        1.43640992542626       -1.46854690131745
H            2.10535473056645        1.52450468335738        0.03272908726189
H            1.63616956562153       -2.14865426917484       -0.30518385698466
H            2.82137889017769       -0.86425607058998        0.02573209926087
H            2.08159517806834       -0.99880267877944       -1.58220240263824
H            0.04011858411305        0.26801288685067        1.71603426579125
21
 energy: -312.212549071324 gnorm: 0.000618092942 xtb: 6.7.1 (edcfbbe)
C           -2.28152202096658        0.61205230346442        0.75310692341543
C           -1.75354598933268        0.32090390400235       -0.65258400557115
C           -0.54297374240582       -0.61583746005900       -0.73897464239573
C            0.77242983243132       -0.17466679973433       -0.07066037813118
C            1.12480612261727        1.27595354899746       -0.38578264454388
C            1.89724474895534       -1.10484244496041       -0.50966640948066
O            0.69883111865227       -0.35006220620544        1.37585783622716
H           -3.26094953093935        1.09925718333588        0.70094046339588
H           -1.62930174406394        1.29234973088788        1.31281713485567
H           -2.39935849589403       -0.30896869474466        1.33547144311370
H           -2.55818406454672       -0.14603323809762       -1.23371378846702
H           -1.52709481146417        1.26633376900834       -1.16033083499664
H           -0.80755100287858       -1.59653721050108       -0.32158227151195
H           -0.32332592435919       -0.77892357067862       -1.80162953931431
H            0.38559354778284        1.96461883583417        0.03624236446156
H            1.15945663621007        1.43640992542626       -1.46854690131745
H            2.10535473056645        1.52450468335738        0.03272908726189
H            1.63616956562153       -2.14865426917484       -0.30518385698466
H            2.82137889017769       -0.86425607058998        0.02573209926087
H            2.08159517806834       -0.99880267877944       -1.58220240263824
H            0.04011858411305        0.26801288685067        1.71603426579125
