      -----------------------------------------------------------      
     |                   =====================                   |     
     |                           x T B                           |     
     |                   =====================                   |     
     |                         S. Grimme                         |     
     |          Mulliken Center for Theoretical Chemistry        |     
     |                    University of Bonn                     |     
      -----------------------------------------------------------      

   * xtb version 6.7.1 (edcfbbe) compiled by 'albert@albert-system' on 2024-07-22

   xtb is free software: you can redistribute it and/or modify it under
   the terms of the GNU Lesser General Public License as published by
   the Free Software Foundation, either version 3 of the License, or
   (at your option) any later version.
   
   xtb is distributed in the hope that it will be useful,
   but WITHOUT ANY WARRANTY; without even the implied warranty of
   MERCHANTABILITY or FITNESS FOR A PARTICULAR PURPOSE.  See the
   GNU Lesser General Public License for more details.
   
   Cite this work as:
   * C. Bannwarth, E. Caldeweyher, S. Ehlert, A. Hansen, P. Pracht,
     J. Seibert, S. Spicher, S. Grimme, WIREs Comput. Mol. Sci., 2020, 11,
     e01493. DOI: 10.1002/wcms.1493
   
   for GFN2-xTB:
   * C. Bannwarth, S. Ehlert and S. Grimme., J. Chem. Theory Comput., 2019,
     15, 1652-1671. DOI: 10.1021/acs.jctc.8b01176
   for GFN1-xTB:
   * S. Grimme, C. Bannwarth, P. Shushkov, J. Chem. Theory Comput., 2017,
     13, 1989-2009. DOI: 10.1021/acs.jctc.7b00118
   for GFN0-xTB:
   * P. Pracht, E. Caldeweyher, S. Ehlert, S. Grimme, ChemRxiv, 2019, preprint.
     DOI: 10.26434/chemrxiv.8326202.v1
   for GFN-FF:
   * S. Spicher and S. Grimme, Angew. Chem. Int. Ed., 2020, 59, 15665-15673.
     DOI: 10.1002/anie.202004239
   
   for ALPB and GBSA implicit solvation:
   * S. Ehlert, M. Stahn, S. Spicher, S. Grimme, J. Chem. Theory Comput.,
     2021, 17, 4250-4261. DOI: 10.1021/acs.jctc.1c00471
   
   for ddCOSMO and CPCM-X implicit solvation:
   * M. Stahn, S. Ehlert, S. Grimme, J. Phys. Chem. A,
     2023, XX, XXXX-XXXX. DOI: 10.1021/acs.jpca.3c04382
   
   for DFT-D4:
   * E. Caldeweyher, C. Bannwarth and S. Grimme, J. Chem. Phys., 2017,
     147, 034112. DOI: 10.1063/1.4993215
   * E. Caldeweyher, S. Ehlert, A. Hansen, H. Neugebauer, S. Spicher,
     C. Bannwarth and S. Grimme, J. Chem. Phys., 2019, 150, 154122.
     DOI: 10.1063/1.5090222
   * E. Caldeweyher, J.-M. Mewes, S. Ehlert and S. Grimme, Phys. Chem. Chem. Phys.
     2020, 22, 8499-8512. DOI: 10.1039/D0CP00502A
   
   for sTDA-xTB:
   * S. Grimme and C. Bannwarth, J. Chem. Phys., 2016, 145, 054103.
     DOI: 10.1063/1.4959605
   
   in the mass-spec context:
   * V. Asgeirsson, C. Bauer and S. Grimme, Chem. Sci., 2017, 8, 4879.
     DOI: 10.1039/c7sc00601b
   * J. Koopman and S. Grimme, ACS Omega 2019, 4, 12, 15120-15133.
     DOI: 10.1021/acsomega.9b02011
   
   for metadynamics refer to:
   * S. Grimme, J. Chem. Theory Comput., 2019, 155, 2847-2862
     DOI: 10.1021/acs.jctc.9b00143
   
   for SPH calculations refer to:
   * S. Spicher and S. Grimme, J. Chem. Theory Comput., 2021, 17, 1701-1714
     DOI: 10.1021/acs.jctc.0c01306
   
   for ONIOM refer to:
   * C. Plett, A. Katbashev, S. Ehlert, S. Grimme, M. Bursch,
     Phys. Chem. Chem. Phys., 2023, 25, 17860-17868. DOI: 10.1039/D3CP02178E
   
   for DIPRO refer to:
   * J. Kohn, N. Gildemeister, S. Grimme, D. Fazzi, A. Hansen,
     J. Chem. Phys., 2023, just accepted.
   
   for PTB refer to:
   * S. Grimme, M. Mueller, A. Hansen, J. Chem. Phys., 2023, 158, 124111.
     DOI: 10.1063/5.0137838
   
   with help from (in alphabetical order)
   P. Atkinson, C. Bannwarth, F. Bohle, G. Brandenburg, E. Caldeweyher
   M. Checinski, S. Dohm, S. Ehlert, S. Ehrlich, I. Gerasimov, C. Hölzer
   A. Katbashev, J. Kohn, J. Koopman, C. Lavigne, S. Lehtola, F. März, M. Müller,
   F. Musil, H. Neugebauer, J. Pisarek, C. Plett, P. Pracht, F. Pultar,
   J. Seibert, P. Shushkov, S. Spicher, M. Stahn, M. Steiner, T. Strunk,
   J. Stückrath, T. Rose, and J. Unsleber
   
 * started run on 2025/04/11 at 12:16:50.511     
   ID    Z sym.   atoms
    1    6 C      1, 3, 4, 8-13
    2    7 N      2
    3    9 F      5-7
    4    1 H      14-23

           -------------------------------------------------
          |                Calculation Setup                |
           -------------------------------------------------

          program call               : /srv/scratch/z5358697/.xtb/bin/xtb xtb_rrho.coord --gfn2 --ohess vtight --chrg 0 --enso --norestart -I rrho-xcontrol-inp --parallel 1 --alpb water
          hostname                   : k022
          coordinate file            : xtb_rrho.coord
          omp threads                :                     1


           -------------------------------------------------
          |                 G F N 2 - x T B                 |
           -------------------------------------------------

        Reference                      10.1021/acs.jctc.8b01176
      * Hamiltonian:
        H0-scaling (s, p, d)           1.850000    2.230000    2.230000
        zeta-weighting                 0.500000
      * Dispersion:
        s8                             2.700000
        a1                             0.520000
        a2                             5.000000
        s9                             5.000000
      * Repulsion:
        kExp                           1.500000    1.000000
        rExp                           1.000000
      * Coulomb:
        alpha                          2.000000
        third order                    shell-resolved
        anisotropic                    true
        a3                             3.000000
        a5                             4.000000
        cn-shift                       1.200000
        cn-exp                         4.000000
        max-rad                        5.000000

      * Solvation model:               ALPB
        Solvent                        water
        Parameter file                 internal GFN2-xTB/ALPB
        Dielectric constant                8.0200E+01
        Reference state                gsolv [1 M gas/solution]
        Free energy shift                  1.0808E-03 Eh       6.7819E-01 kcal/mol
        Temperature                        2.9815E+02 K
        Density                            1.0000E+00 kg/L
        Solvent mass                       1.8000E+01 g/mol
        Interaction kernel             P16
        Born radius scaling (c1)           1.4744E+00
        Born radii integrator          GBOBC
        Born offset                        0.0000E+00 a0       0.0000E+00 AA
        H-bond correction              true
        Ion screening                  false
        Surface tension                    1.0000E-05 Eh       1.5569E+01 dyn/cm
        Grid points                               974 per atom

          ...................................................
          :                      SETUP                      :
          :.................................................:
          :  # basis functions                  62          :
          :  # atomic orbitals                  62          :
          :  # shells                           36          :
          :  # electrons                        72          :
          :  max. iterations                   250          :
          :  Hamiltonian                  GFN2-xTB          :
          :  restarted?                      false          :
          :  GBSA solvation                   true          :
          :  PC potential                    false          :
          :  electronic temp.          300.0000000     K    :
          :  accuracy                    1.0000000          :
          :  -> integral cutoff          0.2500000E+02      :
          :  -> integral neglect         0.1000000E-07      :
          :  -> SCF convergence          0.1000000E-05 Eh   :
          :  -> wf. convergence          0.1000000E-03 e    :
          :  Broyden damping             0.4000000          :
          :  net charge                          0          :
          :  unpaired electrons                  0          :
          ...................................................

 iter      E             dE          RMSdq      gap      omega  full diag
   1    -41.8595256 -0.418595E+02  0.388E+00    3.26       0.0  T
   2    -41.9342690 -0.747434E-01  0.229E+00    3.77       1.0  T
   3    -41.9359523 -0.168333E-02  0.111E+00    3.77       1.0  T
   4    -41.9375929 -0.164059E-02  0.289E-01    3.73       1.0  T
   5    -41.9387705 -0.117759E-02  0.716E-02    3.76       1.0  T
   6    -41.9387822 -0.117331E-04  0.323E-02    3.77       1.0  T
   7    -41.9387849 -0.269209E-05  0.114E-02    3.76       1.8  T
   8    -41.9387856 -0.703816E-06  0.435E-03    3.76       4.8  T
   9    -41.9387858 -0.216428E-06  0.157E-03    3.76      13.3  T
  10    -41.9387858 -0.560672E-08  0.639E-04    3.76      32.6  T
  11    -41.9387858 -0.156520E-08  0.227E-04    3.76      91.7  T

   *** convergence criteria satisfied after 11 iterations ***

         #    Occupation            Energy/Eh            Energy/eV
      -------------------------------------------------------------
         1        2.0000           -0.8899127             -24.2158
       ...           ...                  ...                  ...
        30        2.0000           -0.4685848             -12.7508
        31        2.0000           -0.4629564             -12.5977
        32        2.0000           -0.4300698             -11.7028
        33        2.0000           -0.4223651             -11.4931
        34        2.0000           -0.4164797             -11.3330
        35        2.0000           -0.3972882             -10.8108
        36        2.0000           -0.3568940              -9.7116 (HOMO)
        37                         -0.2186013              -5.9484 (LUMO)
        38                         -0.2102620              -5.7215
        39                         -0.0903683              -2.4590
        40                         -0.0464471              -1.2639
        41                          0.0086530               0.2355
       ...                                ...                  ...
        62                          0.6453291              17.5603
      -------------------------------------------------------------
                  HL-Gap            0.1382928 Eh            3.7631 eV
             Fermi-level           -0.2877476 Eh           -7.8300 eV

 SCC (total)                   0 d,  0 h,  0 min,  0.024 sec
 SCC setup                      ...        0 min,  0.001 sec (  5.837%)
 Dispersion                     ...        0 min,  0.000 sec (  0.627%)
 classical contributions        ...        0 min,  0.000 sec (  0.112%)
 integral evaluation            ...        0 min,  0.003 sec ( 11.786%)
 iterations                     ...        0 min,  0.011 sec ( 46.059%)
 molecular gradient             ...        0 min,  0.009 sec ( 34.922%)
 printout                       ...        0 min,  0.000 sec (  0.607%)

         :::::::::::::::::::::::::::::::::::::::::::::::::::::
         ::                     SUMMARY                     ::
         :::::::::::::::::::::::::::::::::::::::::::::::::::::
         :: total energy             -41.496596958264 Eh    ::
         :: total w/o Gsasa/hb       -41.497230414072 Eh    ::
         :: gradient norm              0.029577272415 Eh/a0 ::
         :: HOMO-LUMO gap              3.763137717813 eV    ::
         ::.................................................::
         :: SCC energy               -41.938694720793 Eh    ::
         :: -> isotropic ES            0.054176554357 Eh    ::
         :: -> anisotropic ES          0.005021586190 Eh    ::
         :: -> anisotropic XC         -0.000582247269 Eh    ::
         :: -> dispersion             -0.019792821490 Eh    ::
         :: -> Gsolv                  -0.006525326192 Eh    ::
         ::    -> Gelec               -0.007158782000 Eh    ::
         ::    -> Gsasa                0.001755201454 Eh    ::
         ::    -> Ghb                 -0.002202505344 Eh    ::
         ::    -> Gshift               0.001080759698 Eh    ::
         :: repulsion energy           0.442097762529 Eh    ::
         :: add. restraining           0.000000000000 Eh    ::
         :: total charge              -0.000000000000 e     ::
         :::::::::::::::::::::::::::::::::::::::::::::::::::::

      ----------------------------------------------------------- 
     |                   =====================                   |
     |                        A N C O P T                        |
     |                   =====================                   |
     |               Approximate Normal Coordinate               |
     |                Rational Function Optimizer                |
      ----------------------------------------------------------- 
      ----------------------------------------------------------- 
     |                   =====================                   |
     |                        A N C O P T                        |
     |                   =====================                   |
     |               Approximate Normal Coordinate               |
     |                Rational Function Optimizer                |
      ----------------------------------------------------------- 

          ...................................................
          :                      SETUP                      :
          :.................................................:
          :   optimization level         verytight          :
          :   max. optcycles                   460          :
          :   ANC micro-cycles                  20          :
          :   degrees of freedom                63          :
          :.................................................:
          :   RF solver                   davidson          :
          :   write xtbopt.log                true          :
          :   linear?                        false          :
          :   energy convergence         0.1000000E-06 Eh   :
          :   grad. convergence          0.2000000E-03 Eh/α :
          :   maxmium RF displ.          1.0000000          :
          :   Hlow (freq-cutoff)         0.1000000E-01      :
          :   Hmax (freq-cutoff)         5.0000000          :
          :   S6 in model hess.         20.0000000          :
          ...................................................

generating ANC from exact Hessian ...
Using Lindh-Hessian (1995)
 Shifting diagonal of input Hessian by   8.558299216066580E-003
 Lowest  eigenvalues of input Hessian
    0.000000    0.000000    0.000000    0.000000    0.000000    0.000000
    0.010000    0.011014    0.012294    0.013945    0.017088    0.017962
    0.020559    0.023229    0.026801    0.028836    0.033384    0.038416
 Highest eigenvalues
    1.652706    1.668334    1.744263    1.853800    1.953976    2.035490
 

........................................................................
.............................. CYCLE    1 ..............................
........................................................................

 iter      E             dE          RMSdq      gap      omega  full diag
   1    -41.9387858 -0.419388E+02  0.120E-04    3.76       0.0  T
   2    -41.9387858 -0.317257E-10  0.780E-05    3.76     267.2  T
   3    -41.9387858 -0.547828E-11  0.435E-05    3.76     479.8  T
     SCC iter.                  ...        0 min,  0.003 sec
     gradient                   ...        0 min,  0.008 sec
 * total energy  :   -41.4965970 Eh     change       -0.2573302E-09 Eh
   gradient norm :     0.0295771 Eh/α   predicted     0.0000000E+00 (-100.00%)
   displ. norm   :     0.1431874 α      lambda       -0.2571593E-02
   maximum displ.:     0.0541287 α      in ANC's #35, #13, #4, ...

........................................................................
.............................. CYCLE    2 ..............................
........................................................................

 iter      E             dE          RMSdq      gap      omega  full diag
   1    -41.9576529 -0.419577E+02  0.106E-01    3.80       0.0  T
   2    -41.9576600 -0.711404E-05  0.627E-02    3.81       1.0  T
   3    -41.9576580  0.198688E-05  0.163E-02    3.80       1.3  T
   4    -41.9576612 -0.317710E-05  0.402E-03    3.80       5.2  T
   5    -41.9576613 -0.125102E-06  0.178E-03    3.80      11.7  T
   6    -41.9576614 -0.818848E-08  0.689E-04    3.80      30.3  T
   7    -41.9576614 -0.276645E-08  0.285E-04    3.80      73.2  T
     SCC iter.                  ...        0 min,  0.005 sec
     gradient                   ...        0 min,  0.008 sec
 * total energy  :   -41.4982471 Eh     change       -0.1650180E-02 Eh
   gradient norm :     0.0118100 Eh/α   predicted    -0.1312175E-02 ( -20.48%)
   displ. norm   :     0.1193274 α      lambda       -0.4837804E-03
   maximum displ.:     0.0651368 α      in ANC's #4, #7, #1, ...

........................................................................
.............................. CYCLE    3 ..............................
........................................................................

 iter      E             dE          RMSdq      gap      omega  full diag
   1    -41.9642920 -0.419643E+02  0.662E-02    3.80       0.0  T
   2    -41.9642956 -0.359229E-05  0.388E-02    3.81       1.0  T
   3    -41.9642944  0.119924E-05  0.126E-02    3.80       1.7  T
   4    -41.9642964 -0.203295E-05  0.274E-03    3.81       7.6  T
   5    -41.9642964 -0.341267E-07  0.129E-03    3.81      16.2  T
   6    -41.9642964 -0.215632E-08  0.472E-04    3.81      44.2  T
   7    -41.9642964 -0.260862E-08  0.146E-04    3.81     142.5  T
     SCC iter.                  ...        0 min,  0.005 sec
     gradient                   ...        0 min,  0.008 sec
 * total energy  :   -41.4985578 Eh     change       -0.3106723E-03 Eh
   gradient norm :     0.0046725 Eh/α   predicted    -0.2453829E-03 ( -21.02%)
   displ. norm   :     0.1265804 α      lambda       -0.1835984E-03
   maximum displ.:     0.0746874 α      in ANC's #4, #7, #1, ...

........................................................................
.............................. CYCLE    4 ..............................
........................................................................

 iter      E             dE          RMSdq      gap      omega  full diag
   1    -41.9654018 -0.419654E+02  0.633E-02    3.79       0.0  T
   2    -41.9654039 -0.211845E-05  0.366E-02    3.79       1.0  T
   3    -41.9654032  0.647243E-06  0.946E-03    3.79       2.2  T
   4    -41.9654045 -0.124486E-05  0.243E-03    3.79       8.6  T
   5    -41.9654045 -0.165333E-07  0.112E-03    3.79      18.6  T
   6    -41.9654045 -0.171758E-08  0.348E-04    3.79      59.9  T
   7    -41.9654045 -0.166189E-08  0.124E-04    3.79     168.3  T
     SCC iter.                  ...        0 min,  0.005 sec
     gradient                   ...        0 min,  0.008 sec
 * total energy  :   -41.4986987 Eh     change       -0.1408441E-03 Eh
   gradient norm :     0.0038879 Eh/α   predicted    -0.9340248E-04 ( -33.68%)
   displ. norm   :     0.2050333 α      lambda       -0.2034662E-03
   maximum displ.:     0.1228858 α      in ANC's #4, #3, #1, ...

........................................................................
.............................. CYCLE    5 ..............................
........................................................................

 iter      E             dE          RMSdq      gap      omega  full diag
   1    -41.9644417 -0.419644E+02  0.102E-01    3.77       0.0  T
   2    -41.9644459 -0.417240E-05  0.585E-02    3.77       1.0  T
   3    -41.9644452  0.718640E-06  0.121E-02    3.77       1.7  T
   4    -41.9644471 -0.195646E-05  0.375E-03    3.77       5.6  T
   5    -41.9644472 -0.373869E-07  0.172E-03    3.77      12.1  T
   6    -41.9644472 -0.713418E-08  0.404E-04    3.77      51.6  T
   7    -41.9644472 -0.172101E-08  0.187E-04    3.77     111.8  T
     SCC iter.                  ...        0 min,  0.005 sec
     gradient                   ...        0 min,  0.008 sec
 * total energy  :   -41.4988345 Eh     change       -0.1357966E-03 Eh
   gradient norm :     0.0054257 Eh/α   predicted    -0.1060496E-03 ( -21.91%)
   displ. norm   :     0.1352269 α      lambda       -0.8540984E-04
   maximum displ.:     0.0787767 α      in ANC's #4, #3, #1, ...

........................................................................
.............................. CYCLE    6 ..............................
........................................................................

 iter      E             dE          RMSdq      gap      omega  full diag
   1    -41.9635008 -0.419635E+02  0.681E-02    3.76       0.0  T
   2    -41.9635024 -0.153500E-05  0.392E-02    3.76       1.0  T
   3    -41.9635022  0.134726E-06  0.683E-03    3.76       3.1  T
   4    -41.9635028 -0.583846E-06  0.237E-03    3.76       8.8  T
   5    -41.9635028 -0.161325E-07  0.111E-03    3.76      18.8  T
   6    -41.9635028 -0.355679E-08  0.201E-04    3.76     103.7  T
   7    -41.9635028 -0.302329E-09  0.109E-04    3.76     191.0  T
     SCC iter.                  ...        0 min,  0.005 sec
     gradient                   ...        0 min,  0.008 sec
 * total energy  :   -41.4988956 Eh     change       -0.6115185E-04 Eh
   gradient norm :     0.0046380 Eh/α   predicted    -0.4360293E-04 ( -28.70%)
   displ. norm   :     0.1141129 α      lambda       -0.6226870E-04
   maximum displ.:     0.0648370 α      in ANC's #3, #4, #1, ...

........................................................................
.............................. CYCLE    7 ..............................
........................................................................

 iter      E             dE          RMSdq      gap      omega  full diag
   1    -41.9632411 -0.419632E+02  0.590E-02    3.75       0.0  T
   2    -41.9632420 -0.901795E-06  0.341E-02    3.76       1.0  T
   3    -41.9632419  0.699479E-07  0.526E-03    3.76       4.0  T
   4    -41.9632423 -0.337937E-06  0.188E-03    3.76      11.1  T
   5    -41.9632423 -0.104579E-07  0.847E-04    3.76      24.6  T
   6    -41.9632423 -0.199021E-08  0.149E-04    3.76     139.8  T
     SCC iter.                  ...        0 min,  0.004 sec
     gradient                   ...        0 min,  0.008 sec
 * total energy  :   -41.4989374 Eh     change       -0.4180507E-04 Eh
   gradient norm :     0.0022683 Eh/α   predicted    -0.3155347E-04 ( -24.52%)
   displ. norm   :     0.0669551 α      lambda       -0.2324240E-04
   maximum displ.:     0.0395636 α      in ANC's #3, #4, #2, ...

........................................................................
.............................. CYCLE    8 ..............................
........................................................................

 iter      E             dE          RMSdq      gap      omega  full diag
   1    -41.9636728 -0.419637E+02  0.339E-02    3.76       0.0  T
   2    -41.9636730 -0.206731E-06  0.197E-02    3.76       1.1  T
   3    -41.9636730  0.420876E-08  0.245E-03    3.76       8.5  T
   4    -41.9636730 -0.697260E-07  0.934E-04    3.76      22.3  T
   5    -41.9636730 -0.258385E-08  0.365E-04    3.76      57.1  T
     SCC iter.                  ...        0 min,  0.003 sec
     gradient                   ...        0 min,  0.008 sec
 * total energy  :   -41.4989526 Eh     change       -0.1515947E-04 Eh
   gradient norm :     0.0009602 Eh/α   predicted    -0.1170583E-04 ( -22.78%)
   displ. norm   :     0.0525035 α      lambda       -0.6559331E-05
   maximum displ.:     0.0272039 α      in ANC's #2, #3, #5, ...

........................................................................
.............................. CYCLE    9 ..............................
........................................................................

 iter      E             dE          RMSdq      gap      omega  full diag
   1    -41.9642785 -0.419643E+02  0.248E-02    3.76       0.0  T
   2    -41.9642785 -0.647711E-07  0.145E-02    3.76       1.4  T
   3    -41.9642785 -0.146217E-07  0.959E-04    3.76      21.8  T
   4    -41.9642785 -0.797563E-08  0.478E-04    3.76      43.6  T
     SCC iter.                  ...        0 min,  0.003 sec
     gradient                   ...        0 min,  0.008 sec
 * total energy  :   -41.4989577 Eh     change       -0.5136553E-05 Eh
   gradient norm :     0.0009913 Eh/α   predicted    -0.3296003E-05 ( -35.83%)
   displ. norm   :     0.0143796 α      lambda       -0.1908348E-05
   maximum displ.:     0.0085550 α      in ANC's #2, #5, #6, ...

........................................................................
.............................. CYCLE   10 ..............................
........................................................................

 iter      E             dE          RMSdq      gap      omega  full diag
   1    -41.9643494 -0.419643E+02  0.582E-03    3.76       0.0  T
   2    -41.9643495 -0.149046E-07  0.344E-03    3.76       6.1  T
   3    -41.9643494  0.500065E-08  0.881E-04    3.76      23.7  T
   4    -41.9643495 -0.956830E-08  0.219E-04    3.76      95.2  T
     SCC iter.                  ...        0 min,  0.003 sec
     gradient                   ...        0 min,  0.008 sec
 * total energy  :   -41.4989600 Eh     change       -0.2311262E-05 Eh
   gradient norm :     0.0004942 Eh/α   predicted    -0.9583544E-06 ( -58.54%)
   displ. norm   :     0.0369130 α      lambda       -0.3024689E-05
   maximum displ.:     0.0210921 α      in ANC's #5, #2, #4, ...

........................................................................
.............................. CYCLE   11 ..............................
........................................................................

 iter      E             dE          RMSdq      gap      omega  full diag
   1    -41.9642379 -0.419642E+02  0.127E-02    3.76       0.0  T
   2    -41.9642379 -0.590396E-07  0.758E-03    3.76       2.8  T
   3    -41.9642379  0.157809E-07  0.171E-03    3.76      12.2  T
   4    -41.9642379 -0.388129E-07  0.425E-04    3.76      49.1  T
   5    -41.9642379 -0.569813E-09  0.198E-04    3.76     105.5  T
     SCC iter.                  ...        0 min,  0.003 sec
     gradient                   ...        0 min,  0.008 sec
 * total energy  :   -41.4989630 Eh     change       -0.2946557E-05 Eh
   gradient norm :     0.0004011 Eh/α   predicted    -0.1517092E-05 ( -48.51%)
   displ. norm   :     0.0256535 α      lambda       -0.1003886E-05
   maximum displ.:     0.0141850 α      in ANC's #5, #2, #4, ...

........................................................................
.............................. CYCLE   12 ..............................
........................................................................

 iter      E             dE          RMSdq      gap      omega  full diag
   1    -41.9641989 -0.419642E+02  0.719E-03    3.76       0.0  T
   2    -41.9641989 -0.165903E-07  0.436E-03    3.76       4.8  T
   3    -41.9641989 -0.821058E-08  0.379E-04    3.76      55.0  T
   4    -41.9641989 -0.113528E-08  0.199E-04    3.76     104.7  T
     SCC iter.                  ...        0 min,  0.003 sec
     gradient                   ...        0 min,  0.008 sec
 * total energy  :   -41.4989641 Eh     change       -0.1155616E-05 Eh
   gradient norm :     0.0004066 Eh/α   predicted    -0.5058358E-06 ( -56.23%)
   displ. norm   :     0.0335195 α      lambda       -0.1100627E-05
   maximum displ.:     0.0178223 α      in ANC's #5, #4, #7, ...

........................................................................
.............................. CYCLE   13 ..............................
........................................................................

 iter      E             dE          RMSdq      gap      omega  full diag
   1    -41.9641662 -0.419642E+02  0.820E-03    3.76       0.0  T
   2    -41.9641662 -0.329330E-07  0.503E-03    3.76       4.1  T
   3    -41.9641663 -0.168368E-07  0.566E-04    3.76      36.8  T
   4    -41.9641663 -0.327947E-08  0.258E-04    3.76      80.7  T
     SCC iter.                  ...        0 min,  0.003 sec
     gradient                   ...        0 min,  0.008 sec
 * total energy  :   -41.4989653 Eh     change       -0.1161249E-05 Eh
   gradient norm :     0.0002914 Eh/α   predicted    -0.5539625E-06 ( -52.30%)
   displ. norm   :     0.0226285 α      lambda       -0.7430787E-06
   maximum displ.:     0.0118819 α      in ANC's #4, #5, #3, ...

........................................................................
.............................. CYCLE   14 ..............................
........................................................................

 iter      E             dE          RMSdq      gap      omega  full diag
   1    -41.9642005 -0.419642E+02  0.577E-03    3.76       0.0  T
   2    -41.9642006 -0.232643E-07  0.355E-03    3.76       5.9  T
   3    -41.9642006 -0.476314E-08  0.786E-04    3.76      26.5  T
   4    -41.9642006 -0.812162E-08  0.207E-04    3.76     100.8  T
     SCC iter.                  ...        0 min,  0.003 sec
     gradient                   ...        0 min,  0.008 sec
 * total energy  :   -41.4989661 Eh     change       -0.7877242E-06 Eh
   gradient norm :     0.0002297 Eh/α   predicted    -0.3730446E-06 ( -52.64%)
   displ. norm   :     0.0229722 α      lambda       -0.5899593E-06
   maximum displ.:     0.0133356 α      in ANC's #4, #3, #7, ...

........................................................................
.............................. CYCLE   15 ..............................
........................................................................

 iter      E             dE          RMSdq      gap      omega  full diag
   1    -41.9642131 -0.419642E+02  0.656E-03    3.76       0.0  T
   2    -41.9642132 -0.237914E-07  0.401E-03    3.76       5.2  T
   3    -41.9642132 -0.745463E-08  0.702E-04    3.76      29.7  T
   4    -41.9642132 -0.673114E-08  0.234E-04    3.76      89.3  T
     SCC iter.                  ...        0 min,  0.003 sec
     gradient                   ...        0 min,  0.008 sec
 * total energy  :   -41.4989667 Eh     change       -0.6002556E-06 Eh
   gradient norm :     0.0002594 Eh/α   predicted    -0.2968446E-06 ( -50.55%)
   displ. norm   :     0.0112981 α      lambda       -0.2744359E-06
   maximum displ.:     0.0065229 α      in ANC's #2, #4, #3, ...

........................................................................
.............................. CYCLE   16 ..............................
........................................................................

 iter      E             dE          RMSdq      gap      omega  full diag
   1    -41.9642359 -0.419642E+02  0.341E-03    3.76       0.0  T
   2    -41.9642359 -0.534919E-08  0.209E-03    3.76      10.0  T
   3    -41.9642359 -0.308074E-08  0.171E-04    3.76     121.8  T
   4    -41.9642359 -0.245770E-09  0.941E-05    3.76     221.5  T
     SCC iter.                  ...        0 min,  0.003 sec
     gradient                   ...        0 min,  0.008 sec
 * total energy  :   -41.4989670 Eh     change       -0.3646722E-06 Eh
   gradient norm :     0.0001858 Eh/α   predicted    -0.1387365E-06 ( -61.96%)
   displ. norm   :     0.0183761 α      lambda       -0.4347993E-06
   maximum displ.:     0.0105348 α      in ANC's #4, #2, #6, ...

........................................................................
.............................. CYCLE   17 ..............................
........................................................................

 iter      E             dE          RMSdq      gap      omega  full diag
   1    -41.9642470 -0.419642E+02  0.491E-03    3.76       0.0  T
   2    -41.9642471 -0.145308E-07  0.303E-03    3.76       6.9  T
   3    -41.9642471 -0.581877E-08  0.481E-04    3.76      43.3  T
   4    -41.9642471 -0.298985E-08  0.146E-04    3.76     143.2  T
     SCC iter.                  ...        0 min,  0.003 sec
     gradient                   ...        0 min,  0.008 sec
 * total energy  :   -41.4989676 Eh     change       -0.5327935E-06 Eh
   gradient norm :     0.0001408 Eh/α   predicted    -0.2188899E-06 ( -58.92%)
   displ. norm   :     0.0254540 α      lambda       -0.4458739E-06
   maximum displ.:     0.0144102 α      in ANC's #2, #4, #6, ...

........................................................................
.............................. CYCLE   18 ..............................
........................................................................

 iter      E             dE          RMSdq      gap      omega  full diag
   1    -41.9642419 -0.419642E+02  0.652E-03    3.76       0.0  T
   2    -41.9642420 -0.275537E-07  0.404E-03    3.76       5.2  T
   3    -41.9642420 -0.110376E-07  0.670E-04    3.76      31.1  T
   4    -41.9642420 -0.583614E-08  0.193E-04    3.76     108.1  T
     SCC iter.                  ...        0 min,  0.003 sec
     gradient                   ...        0 min,  0.008 sec
 * total energy  :   -41.4989681 Eh     change       -0.5142805E-06 Eh
   gradient norm :     0.0002012 Eh/α   predicted    -0.2263005E-06 ( -56.00%)
   displ. norm   :     0.0204978 α      lambda       -0.2357863E-06
   maximum displ.:     0.0114111 α      in ANC's #2, #4, #6, ...

........................................................................
.............................. CYCLE   19 ..............................
........................................................................

 iter      E             dE          RMSdq      gap      omega  full diag
   1    -41.9642266 -0.419642E+02  0.537E-03    3.76       0.0  T
   2    -41.9642266 -0.180159E-07  0.331E-03    3.76       6.3  T
   3    -41.9642266 -0.833423E-08  0.452E-04    3.76      46.1  T
   4    -41.9642266 -0.227983E-08  0.172E-04    3.76     121.0  T
     SCC iter.                  ...        0 min,  0.003 sec
     gradient                   ...        0 min,  0.008 sec
 * total energy  :   -41.4989683 Eh     change       -0.2342403E-06 Eh
   gradient norm :     0.0001529 Eh/α   predicted    -0.1198388E-06 ( -48.84%)
   displ. norm   :     0.0078211 α      lambda       -0.6661094E-07
   maximum displ.:     0.0039210 α      in ANC's #4, #2, #6, ...

........................................................................
.............................. CYCLE   20 ..............................
........................................................................

 iter      E             dE          RMSdq      gap      omega  full diag
   1    -41.9642180 -0.419642E+02  0.236E-03    3.76       0.0  T
   2    -41.9642180 -0.342477E-08  0.143E-03    3.76      14.5  T
   3    -41.9642180 -0.891376E-09  0.263E-04    3.76      79.2  T
   4    -41.9642180 -0.824514E-09  0.895E-05    3.76     232.9  T
     SCC iter.                  ...        0 min,  0.003 sec
     gradient                   ...        0 min,  0.008 sec
 * total energy  :   -41.4989684 Eh     change       -0.5901697E-07 Eh
   gradient norm :     0.0000723 Eh/α   predicted    -0.3495931E-07 ( -40.76%)
   displ. norm   :     0.0020998 α      lambda       -0.1225865E-07
   maximum displ.:     0.0010784 α      in ANC's #1, #6, #4, ...

   *** GEOMETRY OPTIMIZATION CONVERGED AFTER 20 ITERATIONS ***

------------------------------------------------------------------------
 total energy gain   :        -0.0023714 Eh       -1.4881 kcal/mol
 total RMSD          :         0.1900735 a0        0.1006 Å
 total power (kW/mol):        -0.3113074 (step)  -19.5835 (real)
------------------------------------------------------------------------

 ANCopt (total)                0 d,  0 h,  0 min,  0.318 sec
 optimizer setup                ...        0 min,  0.000 sec (  0.154%)
 model hessian                  ...        0 min,  0.006 sec (  1.767%)
 ANC generation                 ...        0 min,  0.001 sec (  0.174%)
 coordinate transformation      ...        0 min,  0.000 sec (  0.034%)
 single point calculation       ...        0 min,  0.302 sec ( 94.892%)
 optimization log               ...        0 min,  0.008 sec (  2.479%)
 hessian update                 ...        0 min,  0.000 sec (  0.038%)
 rational function              ...        0 min,  0.001 sec (  0.231%)

================
 final structure:
================
$coord
       -0.91872519244470        2.30997907051507       -3.70489661429330      C
       -0.29477589446366        0.48723832268469       -1.76142632174349      N
       -2.18112966523440       -1.37227539326190       -1.20620888022005      C
       -4.02626599403316       -0.52829796254212        0.86319226279963      C
       -2.90655023352942        0.07458731002410        3.05591903493305      F
       -5.40631531857783        1.50045806779804        0.19854569537845      F
       -5.70978462417671       -2.36533678649194        1.41066809729662      F
        2.16136716426727        0.23798395058247       -0.89582911729674      C
        4.16475043539487        1.43500204200435       -2.13918628176719      C
        6.61245000054989        1.20834533738669       -1.26097501668131      C
        7.14824424962317       -0.22064619832733        0.86328753053491      C
        5.18208730221286       -1.41281499454336        2.11033896418927      C
        2.72458044487828       -1.18734367340810        1.25910109598977      C
       -2.94739919705522        2.63765276631431       -3.69619060407942      H
       -0.35280415153856        1.65525201366640       -5.58413892318766      H
        0.00903918288656        4.09980729584258       -3.29978872745215      H
       -3.33595902876735       -1.76140489070331       -2.88024466004783      H
       -1.32841677227463       -3.14178751788166       -0.56708774667674      H
        3.82817232166533        2.53294675039388       -3.81886043061234      H
        8.12093544941037        2.15142620575072       -2.26145738183557      H
        9.06314984344333       -0.39731451448297        1.54097325163465      H
        5.55652755337746       -2.52290427521190        3.78187025410550      H
        1.24616680369226       -2.09466245056591        2.32895418177065      H
$end
 
 Bond Distances (Angstroems)
 ---------------------------
C1-N2=1.4481         C1-H14=1.0875        C1-H15=1.0948        C1-H16=1.0881        N2-C1=1.4481         N2-C3=1.4321         
N2-C8=1.3844         C3-N2=1.4321         C3-C4=1.5336         C3-H17=1.0957        C3-H18=1.0931        C4-C3=1.5336         
C4-F5=1.3414         C4-F6=1.3452         C4-F7=1.3500         F5-C4=1.3414         F6-C4=1.3452         F7-C4=1.3500         
C8-N2=1.3844         C8-C9=1.3993         C8-C13=1.3993        C9-C8=1.3993         C9-C10=1.3813        C9-H19=1.0767        
C10-C9=1.3813        C10-C11=1.3841       C10-H20=1.0801       C11-C10=1.3841       C11-C12=1.3842       C11-H21=1.0790       
C12-C11=1.3842       C12-C13=1.3814       C12-H22=1.0802       C13-C8=1.3993        C13-C12=1.3814       C13-H23=1.0785       
H14-C1=1.0875        H15-C1=1.0948        H16-C1=1.0881        H17-C3=1.0957        H18-C3=1.0931        H19-C9=1.0767        
H20-C10=1.0801       H21-C11=1.0790       H22-C12=1.0802       H23-C13=1.0785       
 C  H  Rav=1.0854 sigma=0.0070  Rmin=1.0767  Rmax=1.0957    10
 C  C  Rav=1.4091 sigma=0.0514  Rmin=1.3813  Rmax=1.5336     7
 N  C  Rav=1.4216 sigma=0.0271  Rmin=1.3844  Rmax=1.4481     3
 F  C  Rav=1.3455 sigma=0.0035  Rmin=1.3414  Rmax=1.3500     3
 
 selected bond angles (degree)
 --------------------
H14-C1-N2=109.16               H15-C1-N2=111.83               H15-C1-H14=108.93              H16-C1-N2=109.69               
H16-C1-H14=107.81              H16-C1-H15=109.33              C3-N2-C1=116.39                C8-N2-C1=120.83                
C8-N2-C3=121.40                C4-C3-N2=112.96                H17-C3-N2=110.61               H17-C3-C4=106.08               
H18-C3-N2=111.37               H18-C3-C4=106.94               H18-C3-H17=108.63              F5-C4-C3=113.94                
F6-C4-C3=113.04                F6-C4-F5=106.03                F7-C4-C3=111.33                F7-C4-F5=106.09                
F7-C4-F6=105.81                C9-C8-N2=120.84                C13-C8-N2=121.40               C13-C8-C9=117.76               
C10-C9-C8=120.86               H19-C9-C8=120.47               H19-C9-C10=118.67              C11-C10-C9=120.85              
H20-C10-C9=119.21              H20-C10-C11=119.94             
 
 selected dihedral angles (degree)
 ---------------------------------
C3-N2-C1-H14= 31.00           C3-N2-C1-H15=270.39           C3-N2-C1-H16=148.92           C8-N2-C1-H14=197.77           
C8-N2-C1-H15= 77.17           C8-N2-C1-H16=315.69           C4-C3-N2-C1=270.38            C4-C3-N2-C8=103.69            
H17-C3-N2-C1= 29.11           H17-C3-N2-C8=222.42           H18-C3-N2-C1=150.01           H18-C3-N2-C8=343.32           
F5-C4-C3-N2=302.50            F5-C4-C3-H17=181.17           F5-C4-C3-H18= 65.36           F6-C4-C3-N2= 63.64            
F6-C4-C3-H17=302.30           F6-C4-C3-H18=186.50           F7-C4-C3-N2=182.58            F7-C4-C3-H17= 61.25           
F7-C4-C3-H18=305.45           C9-C8-N2-C1=349.70            C9-C8-N2-C3=155.80            C13-C8-N2-C1=168.94           
C13-C8-N2-C3=335.04           C10-C9-C8-N2=179.32           C10-C9-C8-C13=  0.06          H19-C9-C8-N2=358.48           
H19-C9-C8-C13=179.22          C11-C10-C9-C8=  0.37          C11-C10-C9-H19=181.20         H20-C10-C9-C8=179.91          
H20-C10-C9-H19=  0.73         
           -------------------------------------------------
          |                Final Singlepoint                |
           -------------------------------------------------

          ...................................................
          :                      SETUP                      :
          :.................................................:
          :  # basis functions                  62          :
          :  # atomic orbitals                  62          :
          :  # shells                           36          :
          :  # electrons                        72          :
          :  max. iterations                   250          :
          :  Hamiltonian                  GFN2-xTB          :
          :  restarted?                      false          :
          :  GBSA solvation                   true          :
          :  PC potential                    false          :
          :  electronic temp.          300.0000000     K    :
          :  accuracy                    1.0000000          :
          :  -> integral cutoff          0.2500000E+02      :
          :  -> integral neglect         0.1000000E-07      :
          :  -> SCF convergence          0.1000000E-05 Eh   :
          :  -> wf. convergence          0.1000000E-03 e    :
          :  Broyden damping             0.4000000          :
          :  net charge                          0          :
          :  unpaired electrons                  0          :
          ...................................................

 iter      E             dE          RMSdq      gap      omega  full diag
   1    -41.9642180 -0.419642E+02  0.426E-05    3.76       0.0  T
   2    -41.9642180 -0.407141E-11  0.248E-05    3.76     841.7  T
   3    -41.9642180 -0.660805E-12  0.153E-05    3.76    1367.0  T

   *** convergence criteria satisfied after 3 iterations ***

         #    Occupation            Energy/Eh            Energy/eV
      -------------------------------------------------------------
         1        2.0000           -0.8923107             -24.2810
       ...           ...                  ...                  ...
        30        2.0000           -0.4713265             -12.8254
        31        2.0000           -0.4640963             -12.6287
        32        2.0000           -0.4288762             -11.6703
        33        2.0000           -0.4233472             -11.5199
        34        2.0000           -0.4157075             -11.3120
        35        2.0000           -0.3983305             -10.8391
        36        2.0000           -0.3542998              -9.6410 (HOMO)
        37                         -0.2162048              -5.8832 (LUMO)
        38                         -0.2066751              -5.6239
        39                         -0.0836099              -2.2751
        40                         -0.0362236              -0.9857
        41                          0.0233971               0.6367
       ...                                ...                  ...
        62                          0.6742277              18.3467
      -------------------------------------------------------------
                  HL-Gap            0.1380950 Eh            3.7578 eV
             Fermi-level           -0.2852523 Eh           -7.7621 eV

 SCC (total)                   0 d,  0 h,  0 min,  0.014 sec
 SCC setup                      ...        0 min,  0.001 sec (  9.546%)
 Dispersion                     ...        0 min,  0.000 sec (  0.550%)
 classical contributions        ...        0 min,  0.000 sec (  0.163%)
 integral evaluation            ...        0 min,  0.003 sec ( 18.648%)
 iterations                     ...        0 min,  0.002 sec ( 15.970%)
 molecular gradient             ...        0 min,  0.008 sec ( 54.254%)
 printout                       ...        0 min,  0.000 sec (  0.786%)

         :::::::::::::::::::::::::::::::::::::::::::::::::::::
         ::                     SUMMARY                     ::
         :::::::::::::::::::::::::::::::::::::::::::::::::::::
         :: total energy             -41.498968372648 Eh    ::
         :: total w/o Gsasa/hb       -41.499576900170 Eh    ::
         :: gradient norm              0.000072730956 Eh/a0 ::
         :: HOMO-LUMO gap              3.757757352188 eV    ::
         ::.................................................::
         :: SCC energy               -41.964124017859 Eh    ::
         :: -> isotropic ES            0.053729732058 Eh    ::
         :: -> anisotropic ES          0.004440401240 Eh    ::
         :: -> anisotropic XC         -0.002448790302 Eh    ::
         :: -> dispersion             -0.019939165973 Eh    ::
         :: -> Gsolv                  -0.006546860506 Eh    ::
         ::    -> Gelec               -0.007155388028 Eh    ::
         ::    -> Gsasa                0.001736277238 Eh    ::
         ::    -> Ghb                 -0.002208509414 Eh    ::
         ::    -> Gshift               0.001080759698 Eh    ::
         :: repulsion energy           0.465155645211 Eh    ::
         :: add. restraining           0.000000000000 Eh    ::
         :: total charge               0.000000000000 e     ::
         :::::::::::::::::::::::::::::::::::::::::::::::::::::

           ------------------------------------------------- 
          |                Numerical Hessian                |
           ------------------------------------------------- 
step length          :   0.00500
SCC accuracy         :   0.30000
Hessian scale factor :   1.00000
frozen atoms in %    :   0.00000    0
RMS gradient         :   0.00007
estimated CPU  time      0.04 min
estimated wall time      0.04 min

writing file <hessian>.

 projected vibrational frequencies (cm⁻¹)
eigval :       -0.00    -0.00    -0.00     0.00     0.00     0.00
eigval :       23.76    26.24    78.40   107.46   157.61   187.01
eigval :      206.97   243.14   298.80   309.75   377.20   411.65
eigval :      443.50   468.23   474.92   497.10   534.89   587.25
eigval :      597.67   655.15   746.17   763.43   783.93   853.97
eigval :      868.12   896.29   919.20   922.79   961.33  1003.39
eigval :     1005.16  1038.86  1091.68  1095.84  1132.08  1135.42
eigval :     1152.41  1183.14  1195.97  1218.01  1255.84  1287.14
eigval :     1298.20  1329.57  1360.55  1407.44  1422.72  1438.64
eigval :     1476.24  1489.41  1494.33  1576.18  1602.62  2928.61
eigval :     2939.82  2974.00  3025.34  3039.47  3070.00  3072.16
eigval :     3089.16  3099.79  3120.06
           -------------------------------------------------
          |                Property Printout                |
           -------------------------------------------------

    * Orbital Energies and Occupations

         #    Occupation            Energy/Eh            Energy/eV
      -------------------------------------------------------------
         1        2.0000           -0.8923108             -24.2810
       ...           ...                  ...                  ...
        24        2.0000           -0.5101042             -13.8806
        25        2.0000           -0.5000313             -13.6065
        26        2.0000           -0.4987778             -13.5724
        27        2.0000           -0.4840777             -13.1724
        28        2.0000           -0.4809441             -13.0872
        29        2.0000           -0.4736937             -12.8899
        30        2.0000           -0.4713265             -12.8254
        31        2.0000           -0.4640964             -12.6287
        32        2.0000           -0.4288763             -11.6703
        33        2.0000           -0.4233472             -11.5199
        34        2.0000           -0.4157075             -11.3120
        35        2.0000           -0.3983305             -10.8391
        36        2.0000           -0.3542999              -9.6410 (HOMO)
        37                         -0.2162048              -5.8832 (LUMO)
        38                         -0.2066751              -5.6239
        39                         -0.0836099              -2.2751
        40                         -0.0362236              -0.9857
        41                          0.0233970               0.6367
        42                          0.0275195               0.7488
        43                          0.0477359               1.2990
        44                          0.1054396               2.8692
        45                          0.1135222               3.0891
        46                          0.1287935               3.5046
        47                          0.1324317               3.6037
       ...                                ...                  ...
        62                          0.6742277              18.3467
      -------------------------------------------------------------
                  HL-Gap            0.1380951 Eh            3.7578 eV
             Fermi-level           -0.2852523 Eh           -7.7621 eV

     #   Z          covCN         q      C6AA      α(0)
     1   6 C        3.696    -0.067    21.964     6.704
     2   7 N        2.736    -0.100    23.200     7.154
     3   6 C        3.749    -0.027    21.124     6.555
     4   6 C        3.327     0.489    17.360     6.617
     5   9 F        0.790    -0.217    11.409     3.990
     6   9 F        0.790    -0.220    11.439     3.995
     7   9 F        0.790    -0.230    11.545     4.014
     8   6 C        2.910     0.060    26.658     8.466
     9   6 C        2.924    -0.065    29.619     8.925
    10   6 C        2.920    -0.036    28.905     8.816
    11   6 C        2.917    -0.051    29.275     8.873
    12   6 C        2.920    -0.036    28.891     8.814
    13   6 C        2.923    -0.066    29.653     8.930
    14   1 H        0.925     0.067     2.123     2.279
    15   1 H        0.924     0.059     2.208     2.324
    16   1 H        0.925     0.072     2.060     2.245
    17   1 H        0.924     0.107     1.721     2.052
    18   1 H        0.924     0.105     1.736     2.060
    19   1 H        0.926     0.043     2.405     2.425
    20   1 H        0.926     0.032     2.555     2.500
    21   1 H        0.926     0.026     2.649     2.545
    22   1 H        0.926     0.028     2.611     2.527
    23   1 H        0.926     0.026     2.645     2.543

 Mol. C6AA /au·bohr⁶  :       5670.217290
 Mol. C8AA /au·bohr⁸  :     130254.209924
 Mol. α(0) /au        :        115.352347


Wiberg/Mayer (AO) data.
largest (>0.10) Wiberg bond orders for each atom

 ---------------------------------------------------------------------------
     #   Z sym  total        # sym  WBO       # sym  WBO       # sym  WBO
 ---------------------------------------------------------------------------
     1   6 C    3.965 --     2 N    0.998    14 H    0.980    16 H    0.977
                            15 H    0.974
     2   7 N    3.377 --     8 C    1.126     3 C    1.027     1 C    0.998
     3   6 C    3.964 --     2 N    1.027    17 H    0.952    18 H    0.951
                             4 C    0.933
     4   6 C    3.794 --     5 F    0.947     6 F    0.941     3 C    0.933
                             7 F    0.933
     5   9 F    1.068 --     4 C    0.947
     6   9 F    1.062 --     4 C    0.941
     7   9 F    1.050 --     4 C    0.933
     8   6 C    3.969 --    13 C    1.346     9 C    1.344     2 N    1.126
     9   6 C    3.986 --    10 C    1.461     8 C    1.344    19 H    0.966
                            12 C    0.104
    10   6 C    3.992 --     9 C    1.461    11 C    1.428    20 H    0.971
                            13 C    0.104
    11   6 C    3.987 --    10 C    1.428    12 C    1.427    21 H    0.972
    12   6 C    3.992 --    13 C    1.461    11 C    1.427    22 H    0.971
                             9 C    0.104
    13   6 C    3.988 --    12 C    1.461     8 C    1.346    23 H    0.966
                            10 C    0.104
    14   1 H    0.995 --     1 C    0.980
    15   1 H    0.995 --     1 C    0.974
    16   1 H    0.995 --     1 C    0.977
    17   1 H    0.987 --     3 C    0.952
    18   1 H    0.989 --     3 C    0.951
    19   1 H    0.998 --     9 C    0.966
    20   1 H    0.998 --    10 C    0.971
    21   1 H    0.999 --    11 C    0.972
    22   1 H    0.999 --    12 C    0.971
    23   1 H    0.999 --    13 C    0.966
 ---------------------------------------------------------------------------

Topologies differ in total number of bonds
Writing topology from bond orders to xtbtopo.mol

molecular dipole:
                 x           y           z       tot (Debye)
 q only:        0.328      -0.117      -1.437
   full:        0.289      -0.200      -1.411       3.695
molecular quadrupole (traceless):
                xx          xy          yy          xz          yz          zz
 q only:       -8.462       1.049       3.967       5.311      -1.394       4.495
  q+dip:       -7.039       1.385       2.010       5.526      -3.151       5.029
   full:       -8.062       1.209       3.307       5.528      -1.906       4.755

           -------------------------------------------------
          |                Geometry Summary                 |
           -------------------------------------------------

      molecular mass/u    :      189.1779433
   center of mass at/Å    :        0.0003151       0.0017865       0.0000260
  moments of inertia/u·Å² :        0.3015512E+03   0.1080617E+04   0.1274624E+04
rotational constants/cm⁻¹ :        0.5590305E-01   0.1560000E-01   0.1322557E-01

 * 23 selected distances

     #   Z          #   Z                                           value/Å
     1   6 C        2   7 N                                       1.4481266
     2   7 N        3   6 C                                       1.4321445
     3   6 C        4   6 C                                       1.5336327 (max)
     4   6 C        5   9 F                                       1.3413662
     4   6 C        6   9 F                                       1.3452080
     4   6 C        7   9 F                                       1.3500427
     2   7 N        8   6 C                                       1.3843853
     8   6 C        9   6 C                                       1.3993046
     9   6 C       10   6 C                                       1.3813312
    10   6 C       11   6 C                                       1.3841383
    11   6 C       12   6 C                                       1.3841983
     8   6 C       13   6 C                                       1.3993204
    12   6 C       13   6 C                                       1.3814246
     1   6 C       14   1 H                                       1.0874514
     1   6 C       15   1 H                                       1.0948326
     1   6 C       16   1 H                                       1.0881439
     3   6 C       17   1 H                                       1.0957226
     3   6 C       18   1 H                                       1.0930769
     9   6 C       19   1 H                                       1.0767259 (min)
    10   6 C       20   1 H                                       1.0800785
    11   6 C       21   1 H                                       1.0789680
    12   6 C       22   1 H                                       1.0801596
    13   6 C       23   1 H                                       1.0784731

 * 4 distinct bonds (by element types)

   Z      Z             #   av. dist./Å        max./Å        min./Å
   1 H    6 C          10     1.0853633     1.0957226     1.0767259
   6 C    6 C           7     1.4090500     1.5336327     1.3813312
   6 C    7 N           3     1.4215521     1.4481266     1.3843853
   6 C    9 F           3     1.3455390     1.3500427     1.3413662

           -------------------------------------------------
          |               Frequency Printout                |
           -------------------------------------------------
 projected vibrational frequencies (cm⁻¹)
eigval :       -0.00    -0.00    -0.00     0.00     0.00     0.00
eigval :       23.76    26.24    78.40   107.46   157.61   187.01
eigval :      206.97   243.14   298.80   309.75   377.20   411.65
eigval :      443.50   468.23   474.92   497.10   534.89   587.25
eigval :      597.67   655.15   746.17   763.43   783.93   853.97
eigval :      868.12   896.29   919.20   922.79   961.33  1003.39
eigval :     1005.16  1038.86  1091.68  1095.84  1132.08  1135.42
eigval :     1152.41  1183.14  1195.97  1218.01  1255.84  1287.14
eigval :     1298.20  1329.57  1360.55  1407.44  1422.72  1438.64
eigval :     1476.24  1489.41  1494.33  1576.18  1602.62  2928.61
eigval :     2939.82  2974.00  3025.34  3039.47  3070.00  3072.16
eigval :     3089.16  3099.79  3120.06
 reduced masses (amu)
   1: 12.58   2: 14.52   3: 12.30   4: 13.16   5: 15.80   6: 12.62   7: 14.23   8: 15.75
   9: 12.45  10:  9.83  11: 12.74  12:  4.63  13: 13.47  14: 13.53  15: 15.59  16:  9.89
  17:  9.14  18: 10.24  19: 13.07  20: 15.97  21: 13.32  22:  9.79  23: 12.60  24: 11.55
  25: 14.37  26: 10.21  27:  4.12  28: 11.23  29: 14.70  30:  3.37  31:  3.68  32:  9.60
  33:  3.86  34:  2.88  35: 10.99  36:  9.41  37: 13.20  38:  7.45  39:  6.57  40:  4.52
  41:  6.93  42:  5.01  43: 12.68  44:  1.33  45:  4.47  46:  1.87  47:  9.74  48:  3.82
  49:  4.39  50: 11.82  51:  9.45  52:  2.29  53:  2.58  54:  8.86  55:  1.98  56:  2.12
  57:  8.67  58: 11.43  59: 11.48  60:  1.74  61:  1.72  62:  1.75  63:  1.76  64:  1.61
  65:  1.76  66:  1.80  67:  1.87  68:  1.86  69:  1.84
 IR intensities (km·mol⁻¹)
   1:  0.14   2:  0.09   3:  0.40   4:  0.34   5:  0.35   6:  1.04   7:  2.15   8:  1.65
   9:  1.65  10:  2.66  11:  1.49  12:  1.18  13:  4.38  14:  1.67  15:  3.54  16:  2.33
  17:  1.97  18:  1.99  19:  8.78  20:  9.61  21:  5.21  22:  2.41  23: 33.85  24:  6.72
  25: 38.30  26:  0.10  27: 44.10  28: 17.14  29: 22.89  30:  0.44  31:  1.25  32: 49.23
  33:  0.42  34:  0.51  35: 23.65  36:134.08  37:398.61  38:136.18  39:  3.03  40: 10.29
  41:141.14  42: 46.12  43:178.22  44:  0.48  45: 26.95  46: 14.69  47: 59.57  48:  7.89
  49:  8.28  50: 10.83  51:249.27  52: 22.09  53:  7.67  54: 15.19  55:  9.28  56:  3.32
  57:280.11  58:  4.20  59:231.39  60: 73.89  61: 10.57  62:  5.33  63: 19.32  64: 30.31
  65: 25.20  66: 87.87  67:211.08  68:109.32  69: 51.58
 Raman intensities (Ä⁴*amu⁻¹)
   1:  0.00   2:  0.00   3:  0.00   4:  0.00   5:  0.00   6:  0.00   7:  0.00   8:  0.00
   9:  0.00  10:  0.00  11:  0.00  12:  0.00  13:  0.00  14:  0.00  15:  0.00  16:  0.00
  17:  0.00  18:  0.00  19:  0.00  20:  0.00  21:  0.00  22:  0.00  23:  0.00  24:  0.00
  25:  0.00  26:  0.00  27:  0.00  28:  0.00  29:  0.00  30:  0.00  31:  0.00  32:  0.00
  33:  0.00  34:  0.00  35:  0.00  36:  0.00  37:  0.00  38:  0.00  39:  0.00  40:  0.00
  41:  0.00  42:  0.00  43:  0.00  44:  0.00  45:  0.00  46:  0.00  47:  0.00  48:  0.00
  49:  0.00  50:  0.00  51:  0.00  52:  0.00  53:  0.00  54:  0.00  55:  0.00  56:  0.00
  57:  0.00  58:  0.00  59:  0.00  60:  0.00  61:  0.00  62:  0.00  63:  0.00  64:  0.00
  65:  0.00  66:  0.00  67:  0.00  68:  0.00  69:  0.00
 output can be read by thermo (or use thermo option).
 writing <g98.out> molden fake output.
 recommended (thermochemical) frequency scaling factor: 1.0
           -------------------------------------------------
          |             Thermodynamic Functions             |
           -------------------------------------------------

Molecule has no symmetry elements
It seems to be the C1 point group
c1  symmetry found (for desy threshold:  0.10E+00) used in thermo

          ...................................................
          :                      SETUP                      :
          :.................................................:
          :  # frequencies                          63      :
          :  # imaginary freq.                       0      :
          :  linear?                             false      :
          :  only rotor calc.                    false      :
          :  symmetry                               c1      :
          :  rotational number                       1      :
          :  scaling factor                  1.0000000      :
          :  rotor cutoff                    0.0000000 cm⁻¹ :
          :  imag. cutoff                 -100.0000000 cm⁻¹ :
          :.................................................:

    mode    ω/cm⁻¹     T·S(HO)/kcal·mol⁻¹    T·S(FR)/kcal·mol⁻¹   T·S(vib)
   ------------------------------------------------------------------------
       1     23.76    -1.87593 (100.00%)    -1.27668 (  0.00%)    -1.87593
       2     26.24    -1.81715 (100.00%)    -1.24728 (  0.00%)    -1.81715
       3     78.40    -1.17192 (100.00%)    -0.92324 (  0.00%)    -1.17192
       4    107.46    -0.98817 (100.00%)    -0.82985 (  0.00%)    -0.98817
       5    157.61    -0.76870 (100.00%)    -0.71639 (  0.00%)    -0.76870
       6    187.01    -0.67301 (100.00%)    -0.66574 (  0.00%)    -0.67301
       7    206.97    -0.61723 (100.00%)    -0.63569 (  0.00%)    -0.61723
       8    243.14    -0.53063 (100.00%)    -0.58798 (  0.00%)    -0.53063
       9    298.80    -0.42444 (100.00%)    -0.52692 (  0.00%)    -0.42444
   ------------------------------------------------------------------------

   temp. (K)  partition function   enthalpy   heat capacity  entropy
                                   cal/mol     cal/K/mol   cal/K/mol   J/K/mol
 298.15  VIB  0.254E+05             6022.716     40.470     40.353
         ROT  0.156E+07              888.752      2.981     31.316
         INT  0.395E+11             6911.468     43.451     71.668
         TR   0.252E+28             1481.254      4.968     41.599
         TOT                        8392.7220    48.4191   113.2676   473.9117

       T/K    H(0)-H(T)+PV         H(T)/Eh          T*S/Eh         G(T)/Eh
   ------------------------------------------------------------------------
    298.15    0.133747E-01    0.185265E+00    0.538171E-01    0.131448E+00
   ------------------------------------------------------------------------

         :::::::::::::::::::::::::::::::::::::::::::::::::::::
         ::                  THERMODYNAMIC                  ::
         :::::::::::::::::::::::::::::::::::::::::::::::::::::
         :: total free energy         -41.367520374884 Eh   ::
         ::.................................................::
         :: total energy              -41.498968372795 Eh   ::
         :: zero point energy           0.171890446293 Eh   ::
         :: G(RRHO) w/o ZPVE           -0.040442448382 Eh   ::
         :: G(RRHO) contrib.            0.131447997911 Eh   ::
         :::::::::::::::::::::::::::::::::::::::::::::::::::::

optimized geometry written to: xtbopt.coord


           -------------------------------------------------
          | TOTAL ENERGY              -41.498968372795 Eh   |
          | TOTAL ENTHALPY            -41.313703272596 Eh   |
          | TOTAL FREE ENERGY         -41.367520374884 Eh   |
          | GRADIENT NORM               0.000072810429 Eh/α |
          | HOMO-LUMO GAP               3.757758540713 eV   |
           -------------------------------------------------

------------------------------------------------------------------------
 * finished run on 2025/04/11 at 12:16:53.065     
------------------------------------------------------------------------
 total:
 * wall-time:     0 d,  0 h,  0 min,  2.553 sec
 *  cpu-time:     0 d,  0 h,  0 min,  2.469 sec
 * ratio c/w:     0.967 speedup
 SCF:
 * wall-time:     0 d,  0 h,  0 min,  0.025 sec
 *  cpu-time:     0 d,  0 h,  0 min,  0.024 sec
 * ratio c/w:     0.994 speedup
 ANC optimizer:
 * wall-time:     0 d,  0 h,  0 min,  0.344 sec
 *  cpu-time:     0 d,  0 h,  0 min,  0.326 sec
 * ratio c/w:     0.947 speedup
 analytical hessian:
 * wall-time:     0 d,  0 h,  0 min,  2.119 sec
 *  cpu-time:     0 d,  0 h,  0 min,  2.104 sec
 * ratio c/w:     0.993 speedup

