      -----------------------------------------------------------      
     |                   =====================                   |     
     |                           x T B                           |     
     |                   =====================                   |     
     |                         S. Grimme                         |     
     |          Mulliken Center for Theoretical Chemistry        |     
     |                    University of Bonn                     |     
      -----------------------------------------------------------      

   * xtb version 6.7.1 (edcfbbe) compiled by 'albert@albert-system' on 2024-07-22

   xtb is free software: you can redistribute it and/or modify it under
   the terms of the GNU Lesser General Public License as published by
   the Free Software Foundation, either version 3 of the License, or
   (at your option) any later version.
   
   xtb is distributed in the hope that it will be useful,
   but WITHOUT ANY WARRANTY; without even the implied warranty of
   MERCHANTABILITY or FITNESS FOR A PARTICULAR PURPOSE.  See the
   GNU Lesser General Public License for more details.
   
   Cite this work as:
   * C. Bannwarth, E. Caldeweyher, S. Ehlert, A. Hansen, P. Pracht,
     J. Seibert, S. Spicher, S. Grimme, WIREs Comput. Mol. Sci., 2020, 11,
     e01493. DOI: 10.1002/wcms.1493
   
   for GFN2-xTB:
   * C. Bannwarth, S. Ehlert and S. Grimme., J. Chem. Theory Comput., 2019,
     15, 1652-1671. DOI: 10.1021/acs.jctc.8b01176
   for GFN1-xTB:
   * S. Grimme, C. Bannwarth, P. Shushkov, J. Chem. Theory Comput., 2017,
     13, 1989-2009. DOI: 10.1021/acs.jctc.7b00118
   for GFN0-xTB:
   * P. Pracht, E. Caldeweyher, S. Ehlert, S. Grimme, ChemRxiv, 2019, preprint.
     DOI: 10.26434/chemrxiv.8326202.v1
   for GFN-FF:
   * S. Spicher and S. Grimme, Angew. Chem. Int. Ed., 2020, 59, 15665-15673.
     DOI: 10.1002/anie.202004239
   
   for ALPB and GBSA implicit solvation:
   * S. Ehlert, M. Stahn, S. Spicher, S. Grimme, J. Chem. Theory Comput.,
     2021, 17, 4250-4261. DOI: 10.1021/acs.jctc.1c00471
   
   for ddCOSMO and CPCM-X implicit solvation:
   * M. Stahn, S. Ehlert, S. Grimme, J. Phys. Chem. A,
     2023, XX, XXXX-XXXX. DOI: 10.1021/acs.jpca.3c04382
   
   for DFT-D4:
   * E. Caldeweyher, C. Bannwarth and S. Grimme, J. Chem. Phys., 2017,
     147, 034112. DOI: 10.1063/1.4993215
   * E. Caldeweyher, S. Ehlert, A. Hansen, H. Neugebauer, S. Spicher,
     C. Bannwarth and S. Grimme, J. Chem. Phys., 2019, 150, 154122.
     DOI: 10.1063/1.5090222
   * E. Caldeweyher, J.-M. Mewes, S. Ehlert and S. Grimme, Phys. Chem. Chem. Phys.
     2020, 22, 8499-8512. DOI: 10.1039/D0CP00502A
   
   for sTDA-xTB:
   * S. Grimme and C. Bannwarth, J. Chem. Phys., 2016, 145, 054103.
     DOI: 10.1063/1.4959605
   
   in the mass-spec context:
   * V. Asgeirsson, C. Bauer and S. Grimme, Chem. Sci., 2017, 8, 4879.
     DOI: 10.1039/c7sc00601b
   * J. Koopman and S. Grimme, ACS Omega 2019, 4, 12, 15120-15133.
     DOI: 10.1021/acsomega.9b02011
   
   for metadynamics refer to:
   * S. Grimme, J. Chem. Theory Comput., 2019, 155, 2847-2862
     DOI: 10.1021/acs.jctc.9b00143
   
   for SPH calculations refer to:
   * S. Spicher and S. Grimme, J. Chem. Theory Comput., 2021, 17, 1701-1714
     DOI: 10.1021/acs.jctc.0c01306
   
   for ONIOM refer to:
   * C. Plett, A. Katbashev, S. Ehlert, S. Grimme, M. Bursch,
     Phys. Chem. Chem. Phys., 2023, 25, 17860-17868. DOI: 10.1039/D3CP02178E
   
   for DIPRO refer to:
   * J. Kohn, N. Gildemeister, S. Grimme, D. Fazzi, A. Hansen,
     J. Chem. Phys., 2023, just accepted.
   
   for PTB refer to:
   * S. Grimme, M. Mueller, A. Hansen, J. Chem. Phys., 2023, 158, 124111.
     DOI: 10.1063/5.0137838
   
   with help from (in alphabetical order)
   P. Atkinson, C. Bannwarth, F. Bohle, G. Brandenburg, E. Caldeweyher
   M. Checinski, S. Dohm, S. Ehlert, S. Ehrlich, I. Gerasimov, C. Hölzer
   A. Katbashev, J. Kohn, J. Koopman, C. Lavigne, S. Lehtola, F. März, M. Müller,
   F. Musil, H. Neugebauer, J. Pisarek, C. Plett, P. Pracht, F. Pultar,
   J. Seibert, P. Shushkov, S. Spicher, M. Stahn, M. Steiner, T. Strunk,
   J. Stückrath, T. Rose, and J. Unsleber
   
 * started run on 2025/04/11 at 11:19:21.906     
   ID    Z sym.   atoms
    1    6 C      1-3
    2    8 O      4-6
    3    1 H      7-14

           -------------------------------------------------
          |                Calculation Setup                |
           -------------------------------------------------

          program call               : /srv/scratch/z5358697/.xtb/bin/xtb solv.coord --gfn2 --sp --chrg 0 --norestart --parallel 1 --alpb water reference -I xtb_sp-xcontrol-inp
          hostname                   : k022
          coordinate file            : solv.coord
          omp threads                :                     1


           -------------------------------------------------
          |                 G F N 2 - x T B                 |
           -------------------------------------------------

        Reference                      10.1021/acs.jctc.8b01176
      * Hamiltonian:
        H0-scaling (s, p, d)           1.850000    2.230000    2.230000
        zeta-weighting                 0.500000
      * Dispersion:
        s8                             2.700000
        a1                             0.520000
        a2                             5.000000
        s9                             5.000000
      * Repulsion:
        kExp                           1.500000    1.000000
        rExp                           1.000000
      * Coulomb:
        alpha                          2.000000
        third order                    shell-resolved
        anisotropic                    true
        a3                             3.000000
        a5                             4.000000
        cn-shift                       1.200000
        cn-exp                         4.000000
        max-rad                        5.000000

      * Solvation model:               ALPB
        Solvent                        water
        Parameter file                 internal GFN2-xTB/ALPB
        Dielectric constant                8.0200E+01
        Reference state                gsolv=reference [X=1]
        Free energy shift                  2.8945E-03 Eh       1.8164E+00 kcal/mol
        Temperature                        2.9815E+02 K
        Density                            1.0000E+00 kg/L
        Solvent mass                       1.8000E+01 g/mol
        Interaction kernel             P16
        Born radius scaling (c1)           1.4744E+00
        Born radii integrator          GBOBC
        Born offset                        0.0000E+00 a0       0.0000E+00 AA
        H-bond correction              true
        Ion screening                  false
        Surface tension                    1.0000E-05 Eh       1.5569E+01 dyn/cm
        Grid points                               974 per atom

          ...................................................
          :                      SETUP                      :
          :.................................................:
          :  # basis functions                  32          :
          :  # atomic orbitals                  32          :
          :  # shells                           20          :
          :  # electrons                        38          :
          :  max. iterations                   250          :
          :  Hamiltonian                  GFN2-xTB          :
          :  restarted?                      false          :
          :  GBSA solvation                   true          :
          :  PC potential                    false          :
          :  electronic temp.          300.0000000     K    :
          :  accuracy                    1.0000000          :
          :  -> integral cutoff          0.2500000E+02      :
          :  -> integral neglect         0.1000000E-07      :
          :  -> SCF convergence          0.1000000E-05 Eh   :
          :  -> wf. convergence          0.1000000E-03 e    :
          :  Broyden damping             0.4000000          :
          :  net charge                          0          :
          :  unpaired electrons                  0          :
          ...................................................

 iter      E             dE          RMSdq      gap      omega  full diag
   1    -22.8457880 -0.228458E+02  0.472E+00   11.21       0.0  T
   2    -22.8631688 -0.173808E-01  0.254E+00   11.10       1.0  T
   3    -22.8645683 -0.139952E-02  0.514E-01   11.08       1.0  T
   4    -22.8646457 -0.773745E-04  0.175E-01   11.09       1.0  T
   5    -22.8646712 -0.255360E-04  0.450E-02   11.11       1.0  T
   6    -22.8646758 -0.460531E-05  0.234E-02   11.11       1.1  T
   7    -22.8646766 -0.764439E-06  0.418E-03   11.11       6.4  T
   8    -22.8646766 -0.290435E-07  0.216E-03   11.11      12.4  T
   9    -22.8646766 -0.772636E-08  0.539E-04   11.11      49.6  T
  10    -22.8646766 -0.607223E-09  0.220E-04   11.11     121.6  T

   *** convergence criteria satisfied after 10 iterations ***

         #    Occupation            Energy/Eh            Energy/eV
      -------------------------------------------------------------
         1        2.0000           -0.6979711             -18.9928
       ...           ...                  ...                  ...
        13        2.0000           -0.5053665             -13.7517
        14        2.0000           -0.4865488             -13.2397
        15        2.0000           -0.4750888             -12.9278
        16        2.0000           -0.4453790             -12.1194
        17        2.0000           -0.4258559             -11.5881
        18        2.0000           -0.4158472             -11.3158
        19        2.0000           -0.4069199             -11.0729 (HOMO)
        20                          0.0012409               0.0338 (LUMO)
        21                          0.0593551               1.6151
        22                          0.0737374               2.0065
        23                          0.0988279               2.6892
        24                          0.1215331               3.3071
       ...                                ...                  ...
        32                          0.2883720               7.8470
      -------------------------------------------------------------
                  HL-Gap            0.4081608 Eh           11.1066 eV
             Fermi-level           -0.2028395 Eh           -5.5195 eV

 SCC (total)                   0 d,  0 h,  0 min,  0.018 sec
 SCC setup                      ...        0 min,  0.001 sec (  5.349%)
 Dispersion                     ...        0 min,  0.000 sec (  0.363%)
 classical contributions        ...        0 min,  0.000 sec (  0.091%)
 integral evaluation            ...        0 min,  0.001 sec (  6.168%)
 iterations                     ...        0 min,  0.012 sec ( 70.438%)
 molecular gradient             ...        0 min,  0.003 sec ( 16.649%)
 printout                       ...        0 min,  0.000 sec (  0.859%)

         :::::::::::::::::::::::::::::::::::::::::::::::::::::
         ::                     SUMMARY                     ::
         :::::::::::::::::::::::::::::::::::::::::::::::::::::
         :: total energy             -22.690810252148 Eh    ::
         :: total w/o Gsasa/hb       -22.679686241759 Eh    ::
         :: gradient norm              0.000201872961 Eh/a0 ::
         :: HOMO-LUMO gap             11.106621136402 eV    ::
         ::.................................................::
         :: SCC energy               -22.864663725111 Eh    ::
         :: -> isotropic ES            0.093835246883 Eh    ::
         :: -> anisotropic ES         -0.000202988980 Eh    ::
         :: -> anisotropic XC         -0.002481309210 Eh    ::
         :: -> dispersion             -0.007160394282 Eh    ::
         :: -> Gsolv                  -0.022471726239 Eh    ::
         ::    -> Gelec               -0.011347715849 Eh    ::
         ::    -> Gsasa                0.002799285762 Eh    ::
         ::    -> Ghb                 -0.016817845311 Eh    ::
         ::    -> Gshift               0.002894549160 Eh    ::
         :: repulsion energy           0.173853472962 Eh    ::
         :: add. restraining           0.000000000000 Eh    ::
         :: total charge              -0.000000000000 e     ::
         :::::::::::::::::::::::::::::::::::::::::::::::::::::

           -------------------------------------------------
          |                Property Printout                |
           -------------------------------------------------

    * Orbital Energies and Occupations

         #    Occupation            Energy/Eh            Energy/eV
      -------------------------------------------------------------
         1        2.0000           -0.6979711             -18.9928
       ...           ...                  ...                  ...
         7        2.0000           -0.5813717             -15.8199
         8        2.0000           -0.5628362             -15.3156
         9        2.0000           -0.5559355             -15.1278
        10        2.0000           -0.5478397             -14.9075
        11        2.0000           -0.5269713             -14.3396
        12        2.0000           -0.5129106             -13.9570
        13        2.0000           -0.5053665             -13.7517
        14        2.0000           -0.4865488             -13.2397
        15        2.0000           -0.4750888             -12.9278
        16        2.0000           -0.4453790             -12.1194
        17        2.0000           -0.4258559             -11.5881
        18        2.0000           -0.4158472             -11.3158
        19        2.0000           -0.4069199             -11.0729 (HOMO)
        20                          0.0012409               0.0338 (LUMO)
        21                          0.0593551               1.6151
        22                          0.0737374               2.0065
        23                          0.0988279               2.6892
        24                          0.1215331               3.3071
        25                          0.1278417               3.4787
        26                          0.1379553               3.7540
        27                          0.1777957               4.8381
        28                          0.1837809               5.0009
        29                          0.2187596               5.9528
        30                          0.2379566               6.4751
       ...                                ...                  ...
        32                          0.2883720               7.8470
      -------------------------------------------------------------
                  HL-Gap            0.4081608 Eh           11.1066 eV
             Fermi-level           -0.2028395 Eh           -5.5195 eV

     #   Z          covCN         q      C6AA      α(0)
     1   6 C        3.673     0.069    19.644     6.352
     2   6 C        3.722     0.100    19.038     6.231
     3   6 C        3.675     0.073    19.580     6.340
     4   8 O        1.655    -0.497    22.838     6.451
     5   8 O        1.656    -0.517    23.262     6.511
     6   8 O        1.655    -0.518    23.274     6.513
     7   1 H        0.924     0.037     2.491     2.468
     8   1 H        0.923     0.033     2.545     2.495
     9   1 H        0.923     0.036     2.501     2.473
    10   1 H        0.923     0.033     2.539     2.492
    11   1 H        0.924     0.058     2.223     2.331
    12   1 H        0.805     0.354     0.580     1.196
    13   1 H        0.805     0.368     0.547     1.162
    14   1 H        0.805     0.371     0.542     1.157

 Mol. C6AA /au·bohr⁶  :       1414.888701
 Mol. C8AA /au·bohr⁸  :      29076.839929
 Mol. α(0) /au        :         54.171774


Wiberg/Mayer (AO) data.
largest (>0.10) Wiberg bond orders for each atom

 ---------------------------------------------------------------------------
     #   Z sym  total        # sym  WBO       # sym  WBO       # sym  WBO
 ---------------------------------------------------------------------------
     1   6 C    3.956 --     6 O    0.999     2 C    0.979     7 H    0.971
                             8 H    0.967
     2   6 C    3.954 --     5 O    0.994     1 C    0.979     3 C    0.978
                             9 H    0.960
     3   6 C    3.955 --     4 O    1.008     2 C    0.978    11 H    0.970
                            10 H    0.968
     4   8 O    1.926 --     3 C    1.008    12 H    0.860
     5   8 O    1.911 --     2 C    0.994    13 H    0.849
     6   8 O    1.902 --     1 C    0.999    14 H    0.850
     7   1 H    0.999 --     1 C    0.971
     8   1 H    0.999 --     1 C    0.967
     9   1 H    0.999 --     2 C    0.960
    10   1 H    0.999 --     3 C    0.968
    11   1 H    0.997 --     3 C    0.970
    12   1 H    0.875 --     4 O    0.860
    13   1 H    0.864 --     5 O    0.849
    14   1 H    0.863 --     6 O    0.850
 ---------------------------------------------------------------------------

Topologies differ in total number of bonds
Writing topology from bond orders to xtbtopo.mol

molecular dipole:
                 x           y           z       tot (Debye)
 q only:       -0.973       0.224       0.266
   full:       -1.241       0.316       0.347       3.372
molecular quadrupole (traceless):
                xx          xy          yy          xz          yz          zz
 q only:        0.909       0.141       0.042       3.872       0.342      -0.952
  q+dip:        1.950      -0.986      -2.934       5.390       1.264       0.984
   full:        1.580      -0.444      -1.749       5.187       0.869       0.169


           -------------------------------------------------
          | TOTAL ENERGY              -22.690810252148 Eh   |
          | GRADIENT NORM               0.000201872961 Eh/α |
          | HOMO-LUMO GAP              11.106621136402 eV   |
           -------------------------------------------------

------------------------------------------------------------------------
 * finished run on 2025/04/11 at 11:19:21.959     
------------------------------------------------------------------------
 total:
 * wall-time:     0 d,  0 h,  0 min,  0.052 sec
 *  cpu-time:     0 d,  0 h,  0 min,  0.018 sec
 * ratio c/w:     0.336 speedup
 SCF:
 * wall-time:     0 d,  0 h,  0 min,  0.018 sec
 *  cpu-time:     0 d,  0 h,  0 min,  0.010 sec
 * ratio c/w:     0.558 speedup

