 Entering Gaussian System
 *********************************************
 Gaussian 98:
 frequency output generated by the xtb code
 *********************************************
                         Standard orientation:
 --------------------------------------------------------------------
  Center     Atomic     Atomic              Coordinates (Angstroms)
  Number     Number      Type              X           Y           Z
 --------------------------------------------------------------------
    1          6             0       -3.251856    0.876054    0.275460
    2          6             0       -3.027866   -0.327429    0.921409
    3          6             0       -1.878005   -1.053019    0.658906
    4          6             0       -0.947103   -0.584326   -0.256819
    5          6             0       -1.177539    0.624977   -0.901757
    6          6             0       -2.323645    1.352026   -0.636343
    7          6             0        0.322780   -1.352434   -0.537751
    8          7             0        1.480200   -0.569081   -0.177803
    9          6             0        1.847856   -0.219638    1.089344
   10          6             0        2.952118    0.571159    0.958070
   11          7             0        3.265377    0.718820   -0.358453
   12          6             0        2.361107    0.028766   -1.005737
   13          1             0       -4.146353    1.443469    0.482209
   14          1             0       -3.747064   -0.701046    1.634311
   15          1             0       -1.706233   -1.990282    1.167616
   16          1             0       -0.451405    0.999267   -1.609242
   17          1             0       -2.493084    2.290673   -1.141729
   18          1             0        0.331532   -2.285461    0.032151
   19          1             0        0.396047   -1.586123   -1.603023
   20          1             0        1.308546   -0.552455    1.951160
   21          1             0        3.542486    1.041361    1.718634
   22          1             0        2.323888   -0.067821   -2.072431
 --------------------------------------------------------------------
     1 basis functions        1 primitive gaussians
     1 alpha electrons        1 beta electrons
 
 Harmonic frequencies (cm**-1), IR intensities (km*mol⁻¹),
 Raman scattering activities (A**4/amu), Raman depolarization ratios,
 reduced masses (AMU), force constants (mDyne/A) and normal coordinates:
                      1                      2                      3
                        a                      a                      a 
 Frequencies --    14.5193                33.4965                60.9596
 Red. masses --     9.9406                10.2514                11.1952
 Frc consts  --     0.0000                 0.0000                 0.0000
 IR Inten    --     0.7922                 2.5633                 2.2743
 Raman Activ --     0.0000                 0.0000                 0.0000
 Depolar     --     0.0000                 0.0000                 0.0000
 Atom AN      X      Y      Z        X      Y      Z        X      Y      Z
   1   6     0.05   0.02   0.06    -0.01   0.04  -0.17    -0.31  -0.17  -0.13
   2   6     0.24   0.17   0.27    -0.10   0.05  -0.12    -0.15  -0.09  -0.04
   3   6     0.22   0.17   0.18    -0.09   0.02   0.02    -0.02   0.08   0.06
   4   6     0.00   0.01  -0.12     0.01  -0.03   0.10    -0.05   0.17   0.08
   5   6    -0.19  -0.14  -0.33     0.10  -0.03   0.05    -0.19   0.10   0.02
   6   6    -0.16  -0.13  -0.24     0.09  -0.00  -0.08    -0.33  -0.06  -0.09
   7   6    -0.00   0.03  -0.19     0.00  -0.08   0.21    -0.01   0.23   0.07
   8   7    -0.02  -0.01  -0.05     0.02  -0.07   0.10     0.04   0.18   0.04
   9   6    -0.02  -0.23   0.02     0.35  -0.33   0.07     0.21   0.02   0.03
  10   6    -0.04  -0.18   0.16     0.19  -0.13  -0.05     0.37  -0.22  -0.01
  11   7    -0.06   0.09   0.20    -0.25   0.29  -0.12     0.33  -0.23  -0.03
  12   6    -0.04   0.18   0.06    -0.32   0.30  -0.02     0.11   0.01   0.01
  13   1     0.02   0.01   0.04    -0.01   0.02  -0.08    -0.12  -0.09  -0.07
  14   1     0.12   0.09   0.15    -0.05   0.02  -0.05    -0.04  -0.05  -0.02
  15   1     0.11   0.08   0.10    -0.05   0.01   0.02     0.03   0.04   0.03
  16   1    -0.10  -0.07  -0.16     0.05  -0.02   0.03    -0.06   0.05   0.01
  17   1    -0.09  -0.07  -0.12     0.05  -0.00  -0.04    -0.13  -0.03  -0.04
  18   1    -0.00  -0.01  -0.09    -0.00   0.00   0.10    -0.00   0.06   0.01
  19   1     0.01   0.05  -0.06    -0.00  -0.07   0.07    -0.01   0.07   0.02
  20   1    -0.00  -0.12  -0.01     0.19  -0.19   0.04     0.06   0.02   0.01
  21   1    -0.02  -0.09   0.07     0.10  -0.07  -0.03     0.15  -0.11  -0.01
  22   1    -0.01   0.11   0.01    -0.18   0.16  -0.01     0.01   0.02   0.00
                      4                      5                      6
                        a                      a                      a 
 Frequencies --   184.4503               243.0403               302.4526
 Red. masses --    10.5940                10.9064                11.1047
 Frc consts  --     0.0000                 0.0000                 0.0000
 IR Inten    --     1.0792                 1.2513                 0.6881
 Raman Activ --     0.0000                 0.0000                 0.0000
 Depolar     --     0.0000                 0.0000                 0.0000
 Atom AN      X      Y      Z        X      Y      Z        X      Y      Z
   1   6     0.20   0.17   0.25     0.03  -0.02  -0.19    -0.08   0.22   0.15
   2   6    -0.01   0.00   0.00    -0.07   0.07   0.02    -0.23   0.10  -0.02
   3   6    -0.20  -0.21  -0.24    -0.07  -0.04   0.27    -0.29  -0.04  -0.03
   4   6    -0.16  -0.21  -0.20    -0.02  -0.18   0.24    -0.07  -0.07   0.14
   5   6    -0.14  -0.24  -0.24     0.18  -0.17   0.21    -0.19  -0.18  -0.01
   6   6     0.06  -0.02   0.01     0.21  -0.07  -0.03    -0.11  -0.03  -0.01
   7   6     0.03   0.00   0.10    -0.01  -0.01  -0.05     0.05  -0.02   0.07
   8   7    -0.17   0.33   0.12    -0.17   0.33  -0.29     0.33  -0.17  -0.24
   9   6     0.05   0.19   0.09    -0.23   0.07  -0.20     0.14  -0.16  -0.16
  10   6     0.23  -0.07   0.01    -0.02  -0.19   0.05    -0.05   0.12   0.06
  11   7     0.14  -0.10  -0.02     0.14  -0.06   0.11     0.14   0.22   0.12
  12   6    -0.09   0.13   0.05     0.03   0.26  -0.11     0.39   0.02  -0.07
  13   1     0.12   0.12   0.16    -0.01  -0.00  -0.12     0.02   0.11   0.08
  14   1     0.00   0.02   0.02    -0.05   0.06  -0.01    -0.08   0.03  -0.02
  15   1    -0.09  -0.08  -0.10    -0.05   0.00   0.11    -0.14  -0.02  -0.01
  16   1    -0.05  -0.10  -0.10     0.09  -0.08   0.08    -0.07  -0.08  -0.03
  17   1     0.04   0.01   0.02     0.10  -0.03  -0.03    -0.01  -0.02  -0.03
  18   1     0.05   0.03   0.08     0.11  -0.00  -0.01     0.03   0.01   0.05
  19   1     0.07  -0.06   0.05    -0.07   0.00  -0.02    -0.05  -0.05   0.03
  20   1     0.02   0.08   0.04    -0.12   0.01  -0.09     0.02  -0.09  -0.07
  21   1     0.12  -0.07  -0.01     0.00  -0.13   0.05    -0.08   0.07   0.05
  22   1    -0.06   0.05   0.02     0.04   0.13  -0.04     0.18   0.02  -0.02
                      7                      8                      9
                        a                      a                      a 
 Frequencies --   352.8075               369.8302               452.4141
 Red. masses --     6.9697                 8.8336                 9.7761
 Frc consts  --     0.0000                 0.0000                 0.0000
 IR Inten    --     0.4367                 0.0500                 2.3236
 Raman Activ --     0.0000                 0.0000                 0.0000
 Depolar     --     0.0000                 0.0000                 0.0000
 Atom AN      X      Y      Z        X      Y      Z        X      Y      Z
   1   6     0.00   0.08  -0.06     0.00   0.01   0.00    -0.34  -0.07  -0.22
   2   6    -0.10   0.08  -0.00     0.20   0.20   0.31     0.05   0.22   0.17
   3   6    -0.14  -0.09   0.12    -0.20  -0.21  -0.31    -0.03   0.11  -0.01
   4   6    -0.08  -0.16   0.13     0.00  -0.00   0.01    -0.18  -0.35  -0.44
   5   6    -0.02  -0.17   0.09     0.20   0.20   0.31    -0.05  -0.02   0.10
   6   6     0.08  -0.03  -0.04    -0.20  -0.21  -0.31     0.03   0.10   0.25
   7   6     0.01   0.17  -0.43     0.01  -0.00  -0.00     0.09  -0.21  -0.09
   8   7     0.03  -0.07   0.21    -0.00   0.00  -0.00     0.02   0.01   0.02
   9   6     0.15   0.05   0.15    -0.00   0.00  -0.00     0.10   0.02   0.01
  10   6     0.10   0.12  -0.04     0.00  -0.00  -0.00     0.07   0.06   0.02
  11   7    -0.02   0.03  -0.08     0.00  -0.00  -0.00     0.07   0.06   0.02
  12   6    -0.04  -0.09   0.10    -0.00   0.00  -0.00     0.08   0.01   0.04
  13   1     0.01   0.04  -0.04     0.00   0.00   0.00    -0.13  -0.05  -0.12
  14   1    -0.05   0.05  -0.01     0.13   0.13   0.20     0.10   0.11   0.16
  15   1    -0.08  -0.03   0.05    -0.13  -0.13  -0.20     0.01   0.09   0.10
  16   1     0.01  -0.09   0.02     0.13   0.13   0.20     0.02   0.08   0.11
  17   1     0.06  -0.01  -0.03    -0.13  -0.13  -0.20     0.11   0.10   0.17
  18   1     0.02  -0.14  -0.43     0.00  -0.00  -0.00     0.03  -0.02   0.04
  19   1     0.01   0.40  -0.20     0.00   0.00  -0.00     0.12  -0.13  -0.00
  20   1     0.08   0.03   0.07    -0.00   0.00  -0.00     0.04   0.01   0.01
  21   1     0.04   0.07  -0.04     0.00  -0.00   0.00     0.01   0.02   0.01
  22   1    -0.04  -0.06   0.03    -0.00   0.00  -0.00     0.03   0.00   0.01
                     10                     11                     12
                        a                      a                      a 
 Frequencies --   546.3446               589.6002               610.1720
 Red. masses --    10.6485                11.1361                11.2973
 Frc consts  --     0.0000                 0.0000                 0.0000
 IR Inten    --     0.9071                 0.0701                 2.1856
 Raman Activ --     0.0000                 0.0000                 0.0000
 Depolar     --     0.0000                 0.0000                 0.0000
 Atom AN      X      Y      Z        X      Y      Z        X      Y      Z
   1   6     0.24  -0.27  -0.19     0.03   0.14  -0.12    -0.07   0.10   0.12
   2   6     0.03  -0.11   0.22     0.39   0.06  -0.29    -0.06   0.01  -0.09
   3   6    -0.11  -0.21   0.10     0.19  -0.37   0.11     0.07   0.15  -0.02
   4   6    -0.38   0.07  -0.05    -0.03  -0.13   0.10     0.12  -0.05  -0.04
   5   6     0.05   0.07  -0.18    -0.36  -0.04   0.25     0.08  -0.01   0.08
   6   6     0.18   0.14  -0.05    -0.19   0.41  -0.14    -0.04  -0.16   0.01
   7   6    -0.31   0.27   0.10     0.04   0.01   0.05     0.14   0.02  -0.03
   8   7    -0.08   0.10  -0.04    -0.03   0.06  -0.00    -0.31   0.50  -0.00
   9   6     0.18  -0.19  -0.02     0.02  -0.06   0.01     0.21  -0.39   0.05
  10   6    -0.05   0.14   0.01    -0.05   0.02  -0.01    -0.24   0.22  -0.04
  11   7     0.03   0.07   0.02    -0.02  -0.02  -0.00    -0.00  -0.14  -0.02
  12   6     0.16  -0.12   0.01     0.01  -0.04  -0.01     0.06  -0.21  -0.02
  13   1     0.07  -0.07  -0.06    -0.04  -0.07   0.07    -0.01   0.04   0.02
  14   1    -0.00   0.08   0.11     0.08   0.07  -0.08    -0.01  -0.05  -0.05
  15   1     0.06  -0.04   0.03    -0.00  -0.09   0.07    -0.01   0.04  -0.01
  16   1     0.09  -0.03   0.01    -0.06  -0.05   0.08    -0.01   0.02   0.01
  17   1     0.02   0.09   0.08     0.01   0.11  -0.07    -0.01  -0.06  -0.04
  18   1    -0.09   0.10   0.06     0.02   0.02   0.05     0.11   0.02   0.02
  19   1    -0.10   0.03   0.04     0.01  -0.04   0.02     0.07  -0.01  -0.00
  20   1     0.08  -0.09  -0.00     0.01  -0.03  -0.00     0.12  -0.22   0.01
  21   1    -0.04   0.07   0.01    -0.02   0.01  -0.00    -0.09   0.10  -0.02
  22   1     0.09  -0.06   0.00     0.00  -0.02  -0.00     0.04  -0.13   0.00
                     13                     14                     15
                        a                      a                      a 
 Frequencies --   641.6391               660.3904               714.5318
 Red. masses --    11.7598                10.3692                 6.5738
 Frc consts  --     0.0000                 0.0000                 0.0000
 IR Inten    --    11.7910                 1.5610                22.8526
 Raman Activ --     0.0000                 0.0000                 0.0000
 Depolar     --     0.0000                 0.0000                 0.0000
 Atom AN      X      Y      Z        X      Y      Z        X      Y      Z
   1   6    -0.00  -0.03  -0.03    -0.22  -0.11  -0.21     0.05   0.01   0.04
   2   6     0.02   0.01   0.04     0.18   0.20   0.22     0.09   0.05   0.09
   3   6    -0.02  -0.03  -0.02    -0.12  -0.11  -0.28     0.04   0.02   0.04
   4   6     0.00   0.02   0.03     0.26   0.17   0.29     0.02   0.04   0.04
   5   6    -0.02  -0.01  -0.03    -0.13  -0.19  -0.22     0.02   0.07   0.03
   6   6     0.02   0.03   0.02     0.17   0.10   0.30     0.04   0.12   0.08
   7   6    -0.02  -0.02   0.00     0.16   0.13   0.10    -0.28  -0.39  -0.17
   8   7     0.12  -0.19   0.00     0.02   0.10   0.01    -0.24   0.01  -0.04
   9   6     0.09  -0.10   0.00    -0.06  -0.06   0.03     0.14   0.07  -0.06
  10   6    -0.24   0.36  -0.01    -0.07  -0.07  -0.02     0.14   0.12   0.04
  11   7     0.38  -0.50   0.03    -0.10  -0.02  -0.03     0.12   0.09   0.05
  12   6    -0.28   0.41  -0.01    -0.02  -0.07  -0.06     0.07   0.01   0.14
  13   1    -0.01  -0.01  -0.02    -0.11  -0.08  -0.14    -0.15  -0.17  -0.23
  14   1     0.00   0.01   0.01     0.05   0.01   0.03    -0.13  -0.14  -0.21
  15   1    -0.01  -0.01  -0.01    -0.10  -0.09  -0.16    -0.13  -0.15  -0.22
  16   1    -0.01  -0.01  -0.02    -0.11  -0.09  -0.15    -0.14  -0.13  -0.22
  17   1     0.00   0.01   0.01     0.04   0.00   0.04    -0.15  -0.12  -0.21
  18   1    -0.02  -0.01  -0.01     0.07   0.01  -0.01    -0.08  -0.08  -0.00
  19   1    -0.02   0.00  -0.00    -0.00   0.09   0.01    -0.07  -0.14  -0.04
  20   1     0.03  -0.02   0.00    -0.04  -0.04  -0.02     0.12   0.02   0.04
  21   1    -0.12   0.18  -0.01    -0.01  -0.02  -0.02     0.03   0.02   0.03
  22   1    -0.13   0.19  -0.01    -0.02  -0.04  -0.01     0.06   0.03   0.04
                     16                     17                     18
                        a                      a                      a 
 Frequencies --   761.9482               772.1869               798.3492
 Red. masses --     3.2861                 7.5558                 2.8774
 Frc consts  --     0.0000                 0.0000                 0.0000
 IR Inten    --     4.5123                 6.8535                 6.3630
 Raman Activ --     0.0000                 0.0000                 0.0000
 Depolar     --     0.0000                 0.0000                 0.0000
 Atom AN      X      Y      Z        X      Y      Z        X      Y      Z
   1   6     0.02   0.01   0.02    -0.14  -0.04  -0.09    -0.00  -0.00  -0.00
   2   6    -0.00   0.01   0.02     0.07  -0.00  -0.14    -0.00  -0.00  -0.00
   3   6     0.01   0.01   0.02     0.00  -0.04  -0.18    -0.00  -0.00  -0.00
   4   6    -0.03  -0.03  -0.04     0.20   0.16   0.25     0.00   0.01   0.01
   5   6     0.01   0.01   0.02    -0.05  -0.09  -0.10    -0.00   0.00  -0.00
   6   6     0.01   0.01   0.01    -0.03  -0.10  -0.00    -0.00   0.00  -0.00
   7   6     0.03   0.03   0.01    -0.29  -0.29  -0.06    -0.00  -0.01  -0.01
   8   7     0.01   0.03   0.01    -0.25   0.02  -0.06     0.03  -0.05   0.00
   9   6     0.24  -0.35   0.03     0.15  -0.01  -0.09    -0.02   0.03  -0.01
  10   6    -0.05   0.05  -0.01     0.10   0.12   0.04    -0.00   0.01  -0.00
  11   7    -0.04   0.04  -0.01     0.08   0.07   0.05     0.02  -0.03   0.00
  12   6    -0.05   0.07  -0.02     0.03   0.00   0.13    -0.24   0.33  -0.02
  13   1    -0.03  -0.03  -0.05     0.14   0.16   0.26     0.00   0.00   0.01
  14   1    -0.03  -0.02  -0.04     0.19   0.11   0.18     0.00   0.00   0.01
  15   1    -0.02  -0.02  -0.03     0.11   0.11   0.13     0.00   0.00   0.00
  16   1    -0.02  -0.02  -0.03     0.08   0.10   0.13     0.00  -0.00   0.00
  17   1    -0.03  -0.02  -0.04     0.15   0.11   0.20     0.00   0.00   0.00
  18   1     0.01   0.01   0.01    -0.08  -0.11  -0.07     0.00  -0.00  -0.00
  19   1     0.02  -0.00   0.00    -0.17  -0.01  -0.04    -0.00  -0.00  -0.00
  20   1    -0.52   0.69  -0.05     0.02   0.14   0.02     0.10  -0.13   0.01
  21   1     0.07  -0.09  -0.00     0.03  -0.02   0.04     0.11  -0.15   0.01
  22   1     0.07  -0.11   0.00     0.06   0.03   0.03     0.52  -0.71   0.05
                     19                     20                     21
                        a                      a                      a 
 Frequencies --   822.3652               830.2884               876.4858
 Red. masses --    10.2866                 3.3345                 3.3263
 Frc consts  --     0.0000                 0.0000                 0.0000
 IR Inten    --     1.0799                 1.8762                 0.1222
 Raman Activ --     0.0000                 0.0000                 0.0000
 Depolar     --     0.0000                 0.0000                 0.0000
 Atom AN      X      Y      Z        X      Y      Z        X      Y      Z
   1   6     0.20  -0.17  -0.09     0.01  -0.02  -0.01     0.01   0.01   0.01
   2   6    -0.28  -0.13   0.24    -0.02  -0.01   0.02    -0.10  -0.10  -0.15
   3   6    -0.17  -0.02   0.07    -0.01  -0.00   0.00    -0.12  -0.12  -0.19
   4   6     0.10   0.08   0.12     0.02   0.01   0.02    -0.00  -0.00  -0.01
   5   6    -0.10   0.18  -0.10    -0.01   0.02  -0.01     0.11   0.11   0.18
   6   6    -0.10   0.36  -0.19    -0.01   0.03  -0.02     0.10   0.10   0.16
   7   6     0.37  -0.38  -0.12     0.03  -0.05  -0.02     0.00   0.00   0.01
   8   7    -0.02   0.10   0.02    -0.05   0.06  -0.00     0.00  -0.00  -0.00
   9   6    -0.01  -0.03   0.04     0.02  -0.02   0.00     0.00   0.00  -0.00
  10   6    -0.05   0.02  -0.02     0.25  -0.34   0.02     0.00  -0.00   0.00
  11   7    -0.00  -0.01  -0.02    -0.02   0.02   0.00    -0.00  -0.00   0.00
  12   6     0.00  -0.02  -0.00    -0.07   0.09  -0.00    -0.00  -0.00  -0.00
  13   1     0.11   0.01   0.07     0.01   0.00   0.01    -0.01  -0.01  -0.02
  14   1    -0.10   0.08   0.10    -0.01   0.01   0.01     0.19   0.20   0.30
  15   1     0.00   0.01   0.03     0.00   0.00   0.00     0.23   0.24   0.36
  16   1    -0.00   0.05  -0.01     0.00   0.01   0.00    -0.21  -0.22  -0.33
  17   1    -0.10   0.15   0.05    -0.01   0.01   0.01    -0.20  -0.21  -0.32
  18   1     0.17  -0.12  -0.06     0.02  -0.01  -0.01    -0.00  -0.00  -0.00
  19   1     0.13  -0.06  -0.04     0.01  -0.01  -0.01     0.00   0.00   0.00
  20   1    -0.01  -0.01   0.01    -0.06   0.08  -0.00     0.00   0.00  -0.00
  21   1     0.05  -0.07  -0.01    -0.51   0.70  -0.04    -0.00   0.00   0.00
  22   1    -0.03  -0.00   0.00     0.09  -0.13   0.01     0.00   0.00  -0.00
                     22                     23                     24
                        a                      a                      a 
 Frequencies --   893.7307               901.7408               928.2344
 Red. masses --    11.4998                 3.6764                 4.1342
 Frc consts  --     0.0000                 0.0000                 0.0000
 IR Inten    --    25.8245                 0.1330                 0.0369
 Raman Activ --     0.0000                 0.0000                 0.0000
 Depolar     --     0.0000                 0.0000                 0.0000
 Atom AN      X      Y      Z        X      Y      Z        X      Y      Z
   1   6    -0.02  -0.00  -0.02     0.15   0.14   0.23     0.04   0.04   0.06
   2   6     0.01   0.00  -0.02     0.04   0.04   0.06    -0.15  -0.16  -0.24
   3   6     0.01  -0.00   0.01    -0.12  -0.11  -0.20     0.12   0.12   0.17
   4   6    -0.00   0.01   0.01     0.03   0.02   0.04     0.01   0.00   0.01
   5   6     0.01  -0.00   0.01    -0.11  -0.10  -0.19    -0.12  -0.11  -0.19
   6   6     0.00  -0.02   0.01     0.00   0.03   0.01     0.10   0.12   0.16
   7   6    -0.03   0.00  -0.01     0.00  -0.07   0.06    -0.00  -0.02   0.03
   8   7    -0.04  -0.02   0.18    -0.03   0.01   0.01    -0.01   0.00   0.00
   9   6    -0.25  -0.18   0.14    -0.01  -0.01  -0.02    -0.00  -0.00  -0.00
  10   6    -0.24  -0.20  -0.42    -0.01  -0.01  -0.03    -0.00  -0.00  -0.00
  11   7     0.45   0.31  -0.24     0.04   0.03  -0.01     0.01   0.00  -0.00
  12   6     0.15   0.13   0.25     0.01   0.01   0.02     0.00   0.00  -0.00
  13   1     0.02   0.02   0.03    -0.23  -0.24  -0.35    -0.08  -0.08  -0.11
  14   1     0.01   0.01   0.01    -0.10  -0.11  -0.15     0.26   0.26   0.39
  15   1    -0.01  -0.01  -0.02     0.23   0.24   0.35    -0.18  -0.19  -0.30
  16   1    -0.01  -0.02  -0.02     0.22   0.23   0.34     0.17   0.18   0.27
  17   1     0.01  -0.00   0.00    -0.07  -0.05  -0.08    -0.17  -0.16  -0.25
  18   1    -0.03   0.02   0.03     0.02  -0.06  -0.05     0.01  -0.02  -0.02
  19   1     0.01  -0.03   0.01    -0.03   0.06  -0.00    -0.02   0.03  -0.00
  20   1     0.06   0.05   0.16     0.01   0.00   0.01    -0.00  -0.00  -0.00
  21   1    -0.19  -0.13   0.03    -0.02  -0.01   0.01    -0.00  -0.00   0.00
  22   1    -0.11  -0.08   0.08     0.00  -0.00   0.01     0.00   0.00  -0.00
                     25                     26                     27
                        a                      a                      a 
 Frequencies --   932.2368               947.4868               985.9068
 Red. masses --     3.1084                 6.0950                10.7945
 Frc consts  --     0.0000                 0.0000                 0.0000
 IR Inten    --     0.0464                 2.4654                 0.4960
 Raman Activ --     0.0000                 0.0000                 0.0000
 Depolar     --     0.0000                 0.0000                 0.0000
 Atom AN      X      Y      Z        X      Y      Z        X      Y      Z
   1   6    -0.13  -0.13  -0.20     0.06   0.05   0.02    -0.32   0.20   0.08
   2   6     0.06   0.07   0.11    -0.09  -0.03   0.02     0.08   0.09  -0.11
   3   6     0.00  -0.00   0.02    -0.06  -0.08   0.02    -0.00  -0.47   0.31
   4   6    -0.02  -0.02  -0.04     0.12   0.12   0.11    -0.13   0.10   0.06
   5   6    -0.06  -0.07  -0.07    -0.07  -0.12   0.04     0.31   0.28  -0.39
   6   6     0.14   0.12   0.21     0.02  -0.06  -0.01    -0.02  -0.13   0.09
   7   6    -0.00   0.03  -0.07     0.02   0.20  -0.54     0.10  -0.10  -0.07
   8   7     0.01  -0.01  -0.00     0.03  -0.03  -0.03     0.03   0.03   0.00
   9   6     0.00   0.00   0.01     0.02   0.02   0.11    -0.01  -0.00   0.06
  10   6     0.00   0.00   0.00     0.03   0.02   0.02    -0.01  -0.00   0.00
  11   7    -0.01  -0.00   0.00    -0.04  -0.03   0.00    -0.01  -0.01  -0.00
  12   6    -0.01  -0.01   0.01    -0.07  -0.05   0.08     0.01   0.00  -0.03
  13   1     0.26   0.26   0.39    -0.03  -0.01  -0.11    -0.09   0.05   0.02
  14   1    -0.17  -0.16  -0.25    -0.00   0.07   0.07    -0.03   0.10  -0.04
  15   1     0.04   0.05   0.08    -0.01   0.01   0.07    -0.05  -0.12   0.12
  16   1     0.14   0.13   0.22     0.03  -0.01   0.08     0.06   0.12  -0.11
  17   1    -0.26  -0.27  -0.41     0.08   0.01   0.02    -0.09  -0.02   0.07
  18   1    -0.02   0.05   0.04    -0.12   0.34   0.33     0.07  -0.02  -0.00
  19   1     0.02  -0.06  -0.00     0.09  -0.48  -0.01     0.05  -0.05  -0.01
  20   1     0.00   0.00   0.01     0.04   0.04   0.06    -0.02  -0.01   0.00
  21   1     0.01   0.00  -0.00     0.04   0.03  -0.04     0.02   0.01  -0.03
  22   1    -0.01  -0.00   0.00    -0.06  -0.03   0.03    -0.01   0.00  -0.01
                     28                     29                     30
                        a                      a                      a 
 Frequencies --  1012.6486              1072.1066              1083.8014
 Red. masses --     9.3570                 2.8034                 6.7923
 Frc consts  --     0.0000                 0.0000                 0.0000
 IR Inten    --    17.6643                14.9597                 0.3253
 Raman Activ --     0.0000                 0.0000                 0.0000
 Depolar     --     0.0000                 0.0000                 0.0000
 Atom AN      X      Y      Z        X      Y      Z        X      Y      Z
   1   6    -0.02   0.02  -0.00    -0.03   0.02   0.00     0.37  -0.23  -0.09
   2   6    -0.03   0.00   0.02    -0.02  -0.01   0.02     0.16   0.22  -0.25
   3   6     0.00  -0.05   0.04     0.01  -0.02   0.01    -0.13   0.08   0.03
   4   6     0.01  -0.01  -0.02     0.01  -0.01  -0.01    -0.01   0.02   0.00
   5   6     0.02   0.02  -0.02     0.01   0.00  -0.01    -0.14   0.07   0.04
   6   6    -0.00   0.01   0.00     0.00   0.02  -0.01    -0.06  -0.29   0.23
   7   6     0.22   0.18   0.06     0.09   0.06   0.03     0.04  -0.02  -0.00
   8   7    -0.17  -0.14  -0.02    -0.06  -0.05  -0.06     0.00   0.01   0.00
   9   6     0.10   0.04  -0.59     0.07   0.05  -0.02     0.01   0.00  -0.01
  10   6     0.10   0.07   0.02    -0.14  -0.10  -0.05    -0.01  -0.01   0.00
  11   7     0.04   0.03   0.02    -0.16  -0.11   0.11    -0.01  -0.01   0.00
  12   6    -0.22  -0.14   0.40     0.04   0.02  -0.18     0.00   0.00  -0.02
  13   1    -0.00   0.02  -0.01    -0.01   0.01  -0.01     0.11  -0.06  -0.03
  14   1    -0.02   0.02   0.00    -0.00  -0.01   0.01    -0.13   0.31  -0.12
  15   1    -0.01  -0.02   0.00     0.02  -0.01  -0.02    -0.27   0.06   0.14
  16   1    -0.01   0.01  -0.02     0.00  -0.00  -0.00    -0.20   0.24  -0.03
  17   1    -0.00   0.00  -0.00     0.01   0.00  -0.01    -0.28  -0.05   0.21
  18   1     0.07   0.05   0.03     0.02   0.01   0.00    -0.02  -0.01  -0.00
  19   1     0.13   0.04   0.02     0.02   0.03   0.00     0.04   0.01  -0.00
  20   1     0.07   0.04  -0.13     0.53   0.43   0.47     0.03   0.02   0.02
  21   1    -0.22  -0.14   0.29    -0.18  -0.12   0.15    -0.02  -0.02   0.03
  22   1    -0.15  -0.09   0.12     0.24   0.17  -0.07     0.01  -0.00  -0.01
                     31                     32                     33
                        a                      a                      a 
 Frequencies --  1113.4066              1122.3064              1136.8170
 Red. masses --     5.3033                 4.2270                 2.4653
 Frc consts  --     0.0000                 0.0000                 0.0000
 IR Inten    --     3.2721                 0.0960                 0.5631
 Raman Activ --     0.0000                 0.0000                 0.0000
 Depolar     --     0.0000                 0.0000                 0.0000
 Atom AN      X      Y      Z        X      Y      Z        X      Y      Z
   1   6     0.01   0.01  -0.02     0.04   0.14  -0.12     0.03   0.02  -0.03
   2   6    -0.02  -0.00   0.01    -0.14  -0.06   0.13    -0.03   0.02   0.02
   3   6     0.01  -0.03   0.01     0.14  -0.22   0.05     0.07  -0.02  -0.02
   4   6     0.02   0.01  -0.02     0.07   0.12  -0.09    -0.06  -0.06  -0.04
   5   6    -0.03  -0.00   0.01    -0.21   0.01   0.12    -0.06   0.05   0.02
   6   6     0.00  -0.02   0.01     0.04  -0.15   0.07     0.02  -0.05   0.02
   7   6     0.10   0.08   0.07    -0.05  -0.07   0.06     0.05   0.01   0.01
   8   7    -0.16  -0.11  -0.00    -0.02   0.03   0.07     0.07  -0.02  -0.20
   9   6    -0.10  -0.09  -0.16     0.02   0.01   0.01    -0.04  -0.02   0.01
  10   6     0.00  -0.02  -0.34     0.00   0.00   0.04    -0.02  -0.01   0.02
  11   7    -0.07  -0.04   0.20     0.02   0.01  -0.06     0.01   0.02   0.13
  12   6     0.01   0.03   0.32     0.03   0.02  -0.11    -0.03  -0.02   0.15
  13   1     0.02   0.04  -0.04     0.13   0.32  -0.29     0.05   0.10  -0.10
  14   1    -0.03   0.03  -0.00    -0.18   0.17   0.00    -0.05   0.06  -0.01
  15   1     0.02  -0.01  -0.01     0.33  -0.10  -0.14     0.19  -0.03  -0.11
  16   1    -0.03   0.03  -0.00    -0.25   0.28  -0.01    -0.13   0.15  -0.03
  17   1     0.01  -0.01  -0.00     0.24  -0.07  -0.10     0.03  -0.02  -0.02
  18   1    -0.03   0.01   0.01    -0.18  -0.06  -0.05     0.44   0.02   0.03
  19   1     0.14   0.05   0.02     0.17   0.04   0.01    -0.52  -0.02  -0.03
  20   1    -0.00  -0.00  -0.02    -0.06  -0.05  -0.05     0.14   0.11   0.14
  21   1     0.31   0.20  -0.47    -0.07  -0.04   0.10     0.18   0.11  -0.21
  22   1     0.39   0.28   0.06     0.05   0.03  -0.03    -0.31  -0.22   0.07
                     34                     35                     36
                        a                      a                      a 
 Frequencies --  1179.8172              1180.7462              1198.1807
 Red. masses --     2.0430                 2.7386                 2.0252
 Frc consts  --     0.0000                 0.0000                 0.0000
 IR Inten    --     0.5762                 1.7878                 0.9631
 Raman Activ --     0.0000                 0.0000                 0.0000
 Depolar     --     0.0000                 0.0000                 0.0000
 Atom AN      X      Y      Z        X      Y      Z        X      Y      Z
   1   6     0.02   0.05  -0.05     0.01   0.04  -0.03    -0.02   0.02   0.00
   2   6     0.02  -0.00  -0.01     0.02  -0.05   0.02    -0.00   0.10  -0.06
   3   6     0.07  -0.02  -0.03     0.01  -0.04   0.02     0.07   0.03  -0.07
   4   6    -0.05  -0.06   0.04     0.05   0.00   0.01    -0.11   0.10   0.03
   5   6    -0.05   0.04   0.01    -0.03   0.01   0.01     0.02  -0.11   0.05
   6   6    -0.03  -0.00   0.02    -0.02   0.02  -0.00    -0.08  -0.05   0.09
   7   6     0.03   0.02  -0.03    -0.04  -0.03   0.06     0.03  -0.05  -0.00
   8   7    -0.01  -0.03   0.01     0.01   0.04  -0.01    -0.00   0.00   0.02
   9   6     0.03   0.04   0.13    -0.05  -0.05  -0.19    -0.01  -0.01  -0.05
  10   6     0.03   0.02  -0.03    -0.05  -0.03   0.05    -0.01  -0.01   0.01
  11   7    -0.02  -0.02  -0.15     0.03   0.03   0.21     0.01   0.01   0.04
  12   6    -0.07  -0.05   0.09     0.10   0.07  -0.13     0.03   0.02  -0.04
  13   1     0.17   0.41  -0.38     0.11   0.27  -0.24    -0.00   0.00   0.00
  14   1     0.20  -0.28   0.05     0.18  -0.26   0.06    -0.21   0.32  -0.07
  15   1    -0.03   0.00   0.02    -0.20   0.01   0.12     0.45  -0.04  -0.26
  16   1     0.07  -0.11   0.02     0.04  -0.06   0.02     0.30  -0.44   0.10
  17   1    -0.37   0.04   0.21    -0.17   0.03   0.10    -0.34   0.02   0.20
  18   1     0.20   0.03   0.04    -0.30  -0.05  -0.05    -0.02  -0.03  -0.03
  19   1    -0.20  -0.04  -0.01     0.27   0.05   0.02     0.14  -0.01   0.01
  20   1    -0.10  -0.08  -0.06     0.14   0.11   0.09     0.02   0.02   0.01
  21   1    -0.11  -0.07   0.14     0.16   0.11  -0.20     0.03   0.02  -0.03
  22   1     0.26   0.19  -0.00    -0.38  -0.28   0.00    -0.08  -0.05  -0.00
                     37                     38                     39
                        a                      a                      a 
 Frequencies --  1220.5649              1278.9642              1287.4218
 Red. masses --     8.1576                 4.2651                11.2960
 Frc consts  --     0.0000                 0.0000                 0.0000
 IR Inten    --     3.6629                 1.9604                15.0357
 Raman Activ --     0.0000                 0.0000                 0.0000
 Depolar     --     0.0000                 0.0000                 0.0000
 Atom AN      X      Y      Z        X      Y      Z        X      Y      Z
   1   6    -0.08   0.03   0.03     0.03   0.09  -0.08     0.01   0.03  -0.02
   2   6    -0.19  -0.02   0.14    -0.06   0.09  -0.03    -0.01   0.01  -0.00
   3   6     0.16  -0.13  -0.02    -0.10   0.04   0.03    -0.03   0.01   0.02
   4   6     0.51  -0.35  -0.14     0.04  -0.21   0.18    -0.00  -0.02   0.03
   5   6     0.16  -0.06  -0.06     0.11  -0.10  -0.01     0.02  -0.03   0.00
   6   6    -0.07   0.19  -0.08     0.08   0.05  -0.09     0.01   0.01  -0.01
   7   6    -0.16   0.17   0.07    -0.32   0.05  -0.05     0.09   0.10   0.08
   8   7    -0.02   0.00  -0.02     0.07  -0.01   0.09    -0.23  -0.17  -0.24
   9   6    -0.00  -0.00   0.02     0.01   0.01  -0.04    -0.12  -0.08   0.06
  10   6     0.01   0.01   0.01    -0.00  -0.01  -0.08    -0.06  -0.01   0.58
  11   7     0.01   0.01  -0.02    -0.02  -0.00   0.09     0.14   0.07  -0.54
  12   6    -0.00   0.00   0.01     0.02   0.01  -0.06     0.04   0.03   0.10
  13   1    -0.03   0.01   0.01    -0.06  -0.13   0.13    -0.01  -0.03   0.03
  14   1    -0.24   0.25  -0.01     0.15  -0.20   0.04     0.03  -0.04   0.01
  15   1    -0.11  -0.03   0.08     0.31  -0.03  -0.17     0.05  -0.01  -0.03
  16   1    -0.02   0.07  -0.04    -0.23   0.35  -0.07    -0.04   0.06  -0.01
  17   1    -0.29   0.09   0.12    -0.27   0.05   0.14    -0.05   0.01   0.03
  18   1    -0.21   0.05   0.02     0.27   0.05   0.04     0.01   0.00  -0.01
  19   1    -0.22   0.05   0.00     0.35  -0.03   0.02     0.18   0.04   0.02
  20   1    -0.01  -0.01  -0.00    -0.01  -0.01  -0.02     0.07   0.06   0.12
  21   1     0.00   0.00   0.00    -0.02  -0.02   0.00     0.20   0.14  -0.09
  22   1     0.01   0.00   0.00    -0.02  -0.01  -0.01     0.07   0.05   0.01
                     40                     41                     42
                        a                      a                      a 
 Frequencies --  1302.0063              1325.2519              1384.1026
 Red. masses --     5.0747                10.6954                11.9287
 Frc consts  --     0.0000                 0.0000                 0.0000
 IR Inten    --     1.6737                 0.4743                 0.1319
 Raman Activ --     0.0000                 0.0000                 0.0000
 Depolar     --     0.0000                 0.0000                 0.0000
 Atom AN      X      Y      Z        X      Y      Z        X      Y      Z
   1   6    -0.08  -0.19   0.18     0.09   0.24  -0.21     0.00   0.01  -0.01
   2   6    -0.06   0.04   0.01     0.23  -0.34   0.08     0.02  -0.03   0.01
   3   6     0.23  -0.02  -0.15    -0.28   0.05   0.15    -0.01   0.01  -0.00
   4   6     0.07  -0.06   0.05     0.17   0.25  -0.26     0.01   0.00  -0.00
   5   6    -0.13   0.19  -0.04     0.22  -0.28   0.04     0.03  -0.02  -0.01
   6   6     0.05   0.01  -0.04    -0.36   0.07   0.19    -0.04   0.02   0.01
   7   6    -0.37   0.02   0.00    -0.18  -0.01   0.03     0.12   0.10  -0.06
   8   7     0.03  -0.06   0.01     0.04   0.00  -0.03    -0.36  -0.25   0.45
   9   6    -0.01  -0.01  -0.01     0.01   0.01   0.02    -0.22  -0.17  -0.15
  10   6    -0.02  -0.01   0.04    -0.01  -0.01  -0.01     0.21   0.16   0.07
  11   7     0.00   0.01  -0.03    -0.01  -0.01  -0.01     0.21   0.16   0.14
  12   6     0.02   0.00  -0.02    -0.01  -0.01   0.03     0.02  -0.02  -0.47
  13   1     0.05   0.12  -0.11     0.02   0.05  -0.04     0.01   0.01  -0.01
  14   1    -0.14   0.19  -0.03    -0.05   0.06  -0.01    -0.01   0.02  -0.00
  15   1    -0.23   0.04   0.13    -0.09   0.02   0.05    -0.02   0.01   0.01
  16   1     0.12  -0.16   0.03     0.04  -0.04   0.00    -0.01   0.01  -0.01
  17   1     0.16  -0.02  -0.09     0.04   0.00  -0.02     0.01   0.00  -0.01
  18   1     0.51   0.03   0.03     0.29  -0.00  -0.01     0.17   0.06   0.06
  19   1     0.37   0.03   0.02     0.09   0.05   0.00    -0.16  -0.05  -0.01
  20   1     0.01   0.01   0.01     0.00   0.00   0.01    -0.02  -0.01   0.01
  21   1     0.01   0.01  -0.01    -0.01  -0.00   0.00     0.07   0.05   0.02
  22   1    -0.00  -0.00  -0.01     0.00   0.00   0.01     0.03   0.02  -0.14
                     43                     44                     45
                        a                      a                      a 
 Frequencies --  1401.3654              1435.9240              1440.2542
 Red. masses --    12.1098                 4.4171                 6.8826
 Frc consts  --     0.0000                 0.0000                 0.0000
 IR Inten    --     0.4354                 9.3181                 6.4452
 Raman Activ --     0.0000                 0.0000                 0.0000
 Depolar     --     0.0000                 0.0000                 0.0000
 Atom AN      X      Y      Z        X      Y      Z        X      Y      Z
   1   6     0.00  -0.01   0.00    -0.04  -0.15   0.12     0.10   0.22  -0.21
   2   6     0.02  -0.01  -0.01     0.16  -0.05  -0.07    -0.25   0.09   0.10
   3   6    -0.02   0.01   0.00    -0.11   0.12  -0.01     0.15  -0.19   0.03
   4   6    -0.00  -0.01   0.00    -0.03  -0.17   0.14     0.11   0.24  -0.23
   5   6     0.01   0.01  -0.01     0.13  -0.00  -0.08    -0.21   0.03   0.11
   6   6    -0.02   0.00   0.01    -0.15   0.12   0.02     0.19  -0.19   0.00
   7   6    -0.07  -0.10  -0.12     0.02   0.26   0.06    -0.05   0.11   0.09
   8   7     0.21   0.18   0.53    -0.06  -0.03   0.03    -0.04  -0.02   0.05
   9   6     0.03  -0.00  -0.43     0.05   0.04  -0.00     0.03   0.02  -0.02
  10   6    -0.22  -0.14   0.20    -0.03  -0.02  -0.02    -0.02  -0.01  -0.00
  11   7    -0.19  -0.16  -0.28    -0.06  -0.04  -0.01    -0.04  -0.03  -0.01
  12   6     0.24   0.18   0.10     0.09   0.07   0.02     0.07   0.05  -0.00
  13   1     0.01   0.01  -0.01     0.06   0.13  -0.13    -0.09  -0.21   0.19
  14   1     0.00   0.00  -0.00    -0.03   0.09  -0.04     0.05  -0.15   0.07
  15   1     0.01   0.00  -0.01     0.06   0.02  -0.06    -0.12  -0.04   0.10
  16   1     0.00   0.00  -0.00    -0.02   0.08  -0.04     0.03  -0.12   0.06
  17   1     0.01  -0.00  -0.01     0.10   0.02  -0.08    -0.12  -0.04   0.10
  18   1     0.02   0.05   0.08    -0.03  -0.26  -0.46     0.15  -0.19  -0.32
  19   1    -0.19  -0.01  -0.03     0.00  -0.56   0.13    -0.04  -0.33   0.08
  20   1     0.07   0.05  -0.08    -0.01  -0.01  -0.03    -0.00  -0.00  -0.02
  21   1     0.05   0.03  -0.09    -0.01  -0.01  -0.00    -0.00  -0.00  -0.00
  22   1     0.06   0.04   0.04    -0.02  -0.02   0.01    -0.01  -0.01   0.00
                     46                     47                     48
                        a                      a                      a 
 Frequencies --  1471.1811              1476.2574              1514.9889
 Red. masses --    10.9342                 9.2723                11.5312
 Frc consts  --     0.0000                 0.0000                 0.0000
 IR Inten    --   182.2900                40.6185                45.1703
 Raman Activ --     0.0000                 0.0000                 0.0000
 Depolar     --     0.0000                 0.0000                 0.0000
 Atom AN      X      Y      Z        X      Y      Z        X      Y      Z
   1   6     0.09  -0.05  -0.02     0.21  -0.11  -0.06     0.00  -0.00  -0.00
   2   6    -0.05   0.13  -0.05    -0.14   0.29  -0.10    -0.00   0.00   0.00
   3   6    -0.09  -0.04   0.08    -0.19  -0.09   0.18     0.00  -0.00  -0.00
   4   6     0.13  -0.09  -0.04     0.31  -0.19  -0.07     0.00  -0.00   0.00
   5   6    -0.03   0.11  -0.05    -0.05   0.25  -0.13     0.00  -0.00  -0.00
   6   6    -0.11  -0.03   0.09    -0.28  -0.05   0.21    -0.00   0.00   0.00
   7   6    -0.14  -0.01   0.01    -0.02   0.06   0.01     0.02   0.02  -0.02
   8   7     0.39   0.28   0.03    -0.18  -0.13  -0.02    -0.07  -0.05   0.07
   9   6    -0.27  -0.20  -0.14     0.11   0.08   0.07     0.42   0.30  -0.03
  10   6     0.10   0.08   0.10    -0.03  -0.03  -0.04    -0.46  -0.33   0.12
  11   7     0.20   0.14   0.00    -0.08  -0.05   0.00     0.31   0.23   0.12
  12   6    -0.42  -0.30  -0.00     0.18   0.13  -0.01    -0.27  -0.21  -0.15
  13   1     0.03  -0.02  -0.00     0.06  -0.05  -0.01     0.00  -0.00   0.00
  14   1     0.07  -0.08   0.01     0.15  -0.18   0.02     0.00  -0.00   0.00
  15   1     0.09  -0.03  -0.04     0.20  -0.06  -0.08     0.00  -0.00   0.00
  16   1     0.07  -0.08   0.01     0.16  -0.18   0.01    -0.00   0.00  -0.00
  17   1     0.09  -0.02  -0.04     0.21  -0.05  -0.10     0.00  -0.00  -0.00
  18   1    -0.07  -0.07  -0.11     0.00   0.07   0.09     0.02   0.01  -0.00
  19   1    -0.01  -0.10   0.02    -0.02   0.10  -0.02    -0.03  -0.02  -0.00
  20   1     0.10   0.08   0.12    -0.04  -0.03  -0.05    -0.01  -0.02  -0.15
  21   1     0.06   0.05  -0.00    -0.03  -0.02   0.00     0.05   0.02  -0.19
  22   1     0.15   0.11  -0.02    -0.07  -0.05   0.01     0.07   0.05  -0.06
                     49                     50                     51
                        a                      a                      a 
 Frequencies --  1592.8339              1601.9901              2963.9709
 Red. masses --    11.5005                11.4902                 1.8927
 Frc consts  --     0.0000                 0.0000                 0.0000
 IR Inten    --     0.1254                 4.0670                25.9391
 Raman Activ --     0.0000                 0.0000                 0.0000
 Depolar     --     0.0000                 0.0000                 0.0000
 Atom AN      X      Y      Z        X      Y      Z        X      Y      Z
   1   6    -0.14  -0.39   0.34    -0.18   0.08   0.06    -0.00  -0.00   0.00
   2   6    -0.04   0.30  -0.17     0.31  -0.29  -0.01    -0.00   0.00   0.00
   3   6    -0.18  -0.13   0.21    -0.42   0.12   0.19     0.00  -0.00   0.00
   4   6     0.14   0.35  -0.33     0.25  -0.12  -0.08    -0.00   0.01  -0.01
   5   6     0.06  -0.29   0.15    -0.33   0.31   0.01    -0.00  -0.00   0.00
   6   6     0.16   0.15  -0.20     0.40  -0.13  -0.17     0.00   0.00  -0.00
   7   6    -0.02  -0.02   0.03    -0.02   0.02   0.01     0.00   0.19  -0.21
   8   7    -0.01  -0.00   0.01    -0.02  -0.01  -0.00     0.01   0.01  -0.01
   9   6     0.00   0.00  -0.00     0.00   0.00   0.00    -0.00  -0.00   0.00
  10   6    -0.00  -0.00   0.00    -0.00  -0.00  -0.00     0.00   0.00  -0.00
  11   7    -0.00  -0.00  -0.00     0.00   0.00   0.00     0.00  -0.00   0.00
  12   6     0.00   0.00  -0.00     0.00   0.00  -0.00    -0.00   0.00   0.00
  13   1     0.04   0.08  -0.08    -0.04   0.03   0.01     0.00  -0.00  -0.00
  14   1     0.07  -0.04  -0.02    -0.03   0.08  -0.03     0.00  -0.00   0.00
  15   1     0.06  -0.05  -0.01     0.09   0.00  -0.06    -0.00   0.01  -0.00
  16   1    -0.07   0.05   0.01     0.04  -0.10   0.04     0.00   0.00  -0.00
  17   1    -0.05   0.05  -0.00    -0.08  -0.01   0.06     0.00  -0.00   0.00
  18   1     0.07  -0.02  -0.02     0.00   0.00   0.00     0.00  -0.77   0.47
  19   1    -0.03   0.01  -0.00    -0.02   0.01  -0.00    -0.02   0.09   0.29
  20   1    -0.00  -0.00  -0.00    -0.00  -0.00  -0.00     0.00   0.00  -0.00
  21   1    -0.00   0.00  -0.00     0.00   0.00  -0.00    -0.00  -0.00  -0.00
  22   1     0.00   0.00  -0.00    -0.00  -0.00  -0.00    -0.00  -0.00  -0.00
                     52                     53                     54
                        a                      a                      a 
 Frequencies --  2972.2458              3071.6322              3074.4438
 Red. masses --     1.5635                 1.7903                 1.7727
 Frc consts  --     0.0000                 0.0000                 0.0000
 IR Inten    --    26.3928                35.9181                36.7179
 Raman Activ --     0.0000                 0.0000                 0.0000
 Depolar     --     0.0000                 0.0000                 0.0000
 Atom AN      X      Y      Z        X      Y      Z        X      Y      Z
   1   6     0.00  -0.00   0.00    -0.01   0.00   0.00    -0.04   0.02   0.01
   2   6     0.00   0.00   0.00    -0.02  -0.01   0.02     0.08   0.04  -0.08
   3   6    -0.00  -0.00   0.00    -0.02   0.08  -0.04     0.03  -0.19   0.10
   4   6     0.00  -0.00  -0.00     0.01   0.00  -0.00     0.01  -0.01  -0.00
   5   6    -0.00   0.00   0.00     0.15   0.08  -0.15     0.05   0.03  -0.05
   6   6     0.00  -0.00  -0.00     0.02  -0.08   0.04     0.01  -0.05   0.03
   7   6     0.02  -0.12  -0.19    -0.00   0.00  -0.00     0.00  -0.00  -0.00
   8   7    -0.01  -0.01  -0.01    -0.00  -0.00  -0.00    -0.00  -0.00  -0.00
   9   6    -0.00  -0.00   0.00     0.00   0.00  -0.00     0.00   0.00  -0.00
  10   6     0.00   0.00  -0.00    -0.00  -0.00   0.00    -0.00  -0.00  -0.00
  11   7    -0.00  -0.00   0.00     0.00   0.00  -0.00    -0.00   0.00  -0.00
  12   6     0.00   0.00   0.00    -0.00  -0.00  -0.00     0.00   0.00  -0.00
  13   1    -0.00   0.00   0.00     0.04  -0.02  -0.01     0.15  -0.09  -0.03
  14   1    -0.00  -0.00   0.00     0.08   0.04  -0.08    -0.30  -0.15   0.29
  15   1     0.00  -0.00   0.00     0.05  -0.28   0.15    -0.12   0.67  -0.36
  16   1     0.01   0.00  -0.01    -0.55  -0.29   0.54    -0.18  -0.09   0.17
  17   1    -0.00   0.00  -0.00    -0.06   0.32  -0.17    -0.03   0.18  -0.10
  18   1     0.00   0.26  -0.20     0.00  -0.01   0.00    -0.00   0.00  -0.00
  19   1    -0.05   0.18   0.90    -0.00   0.00   0.01    -0.00   0.00   0.00
  20   1     0.00   0.00  -0.00    -0.00  -0.00   0.00    -0.00  -0.00   0.00
  21   1     0.00   0.00   0.00     0.00   0.00  -0.00     0.00   0.00   0.00
  22   1    -0.00  -0.00  -0.00     0.00  -0.00   0.00     0.00  -0.00   0.00
                     55                     56                     57
                        a                      a                      a 
 Frequencies --  3081.3240              3087.4225              3098.5547
 Red. masses --     1.8038                 1.8708                 1.9237
 Frc consts  --     0.0000                 0.0000                 0.0000
 IR Inten    --    34.0425               197.5945                77.0913
 Raman Activ --     0.0000                 0.0000                 0.0000
 Depolar     --     0.0000                 0.0000                 0.0000
 Atom AN      X      Y      Z        X      Y      Z        X      Y      Z
   1   6    -0.16   0.10   0.04    -0.02   0.01   0.00    -0.15   0.10   0.04
   2   6     0.05   0.03  -0.05     0.12   0.06  -0.12    -0.10  -0.05   0.10
   3   6    -0.01   0.08  -0.05    -0.01   0.08  -0.04     0.01  -0.05   0.03
   4   6    -0.01   0.00   0.00    -0.00  -0.00   0.00     0.00  -0.00  -0.00
   5   6    -0.06  -0.03   0.06     0.05   0.03  -0.05     0.04   0.02  -0.04
   6   6     0.02  -0.09   0.05    -0.03   0.16  -0.08    -0.02   0.12  -0.07
   7   6    -0.00  -0.00   0.00     0.00   0.00  -0.00     0.00  -0.00  -0.00
   8   7     0.00   0.00   0.00     0.00  -0.00  -0.00    -0.00  -0.00  -0.00
   9   6    -0.00  -0.00  -0.00     0.00   0.00  -0.00     0.00   0.00   0.00
  10   6     0.00   0.00   0.00    -0.00  -0.00   0.00    -0.00  -0.00  -0.00
  11   7     0.00   0.00   0.00     0.00   0.00   0.00    -0.00  -0.00  -0.00
  12   6    -0.00  -0.00   0.00    -0.00  -0.00  -0.00     0.00   0.00  -0.00
  13   1     0.59  -0.37  -0.14     0.05  -0.03  -0.01     0.51  -0.33  -0.12
  14   1    -0.19  -0.10   0.19    -0.41  -0.21   0.41     0.33   0.17  -0.33
  15   1     0.05  -0.28   0.15     0.05  -0.25   0.14    -0.03   0.18  -0.10
  16   1     0.20   0.10  -0.19    -0.17  -0.09   0.16    -0.12  -0.06   0.11
  17   1    -0.06   0.34  -0.18     0.10  -0.54   0.29     0.07  -0.40   0.22
  18   1     0.00  -0.00   0.00     0.00  -0.00   0.00    -0.00   0.00  -0.00
  19   1     0.00  -0.00  -0.00    -0.00   0.00   0.00    -0.00   0.00   0.00
  20   1     0.00   0.00   0.00    -0.00  -0.00   0.00    -0.00  -0.00   0.00
  21   1    -0.00  -0.00  -0.00     0.00  -0.00  -0.00     0.00   0.00   0.00
  22   1    -0.00   0.00  -0.00     0.00   0.00   0.00     0.00  -0.00  -0.00
                     58                     59                     60
                        a                      a                      a 
 Frequencies --  3163.3901              3167.1153              3189.2900
 Red. masses --     1.8345                 1.8583                 1.9399
 Frc consts  --     0.0000                 0.0000                 0.0000
 IR Inten    --    72.9236                25.3526                35.7147
 Raman Activ --     0.0000                 0.0000                 0.0000
 Depolar     --     0.0000                 0.0000                 0.0000
 Atom AN      X      Y      Z        X      Y      Z        X      Y      Z
   1   6     0.00  -0.00  -0.00     0.00   0.00  -0.00    -0.00   0.00  -0.00
   2   6    -0.00  -0.00   0.00     0.00   0.00  -0.00     0.00   0.00  -0.00
   3   6     0.00  -0.00   0.00    -0.00   0.00  -0.00    -0.00   0.00  -0.00
   4   6    -0.00   0.00  -0.00     0.00  -0.00  -0.00     0.00  -0.00   0.00
   5   6     0.00   0.00  -0.00     0.00   0.00  -0.00     0.00   0.00  -0.00
   6   6     0.00   0.00  -0.00     0.00  -0.00   0.00    -0.00   0.00  -0.00
   7   6    -0.00  -0.00  -0.00    -0.00  -0.00   0.00     0.00  -0.00   0.00
   8   7     0.00   0.00  -0.00     0.01   0.00   0.01    -0.01  -0.01  -0.00
   9   6     0.03   0.02  -0.05    -0.02  -0.01   0.03    -0.14  -0.09   0.22
  10   6     0.15   0.12   0.17    -0.04  -0.03  -0.05     0.06   0.05   0.06
  11   7     0.00   0.00   0.00    -0.01  -0.01   0.00     0.00   0.00  -0.00
  12   6     0.00   0.01   0.08     0.01   0.03   0.26    -0.00  -0.00  -0.02
  13   1    -0.00   0.00   0.00    -0.00   0.00   0.00     0.00  -0.00   0.00
  14   1     0.00   0.00  -0.00    -0.00  -0.00   0.00    -0.00  -0.00   0.00
  15   1    -0.00   0.00  -0.00     0.00  -0.00   0.00     0.00   0.00  -0.00
  16   1    -0.00  -0.00   0.00    -0.00  -0.00   0.00    -0.00  -0.00   0.00
  17   1    -0.00   0.00  -0.00    -0.00   0.00  -0.00     0.00  -0.00   0.00
  18   1    -0.00   0.00  -0.00    -0.00   0.00  -0.00     0.00   0.00  -0.00
  19   1    -0.00   0.00   0.00    -0.00  -0.00  -0.00     0.00   0.00  -0.00
  20   1    -0.13  -0.08   0.21     0.07   0.04  -0.11     0.46   0.28  -0.74
  21   1    -0.49  -0.39  -0.63     0.13   0.11   0.17    -0.15  -0.12  -0.20
  22   1    -0.01  -0.02  -0.27    -0.03  -0.08  -0.92     0.00   0.01   0.06
