17
 energy: -346.942965773161 gnorm: 0.009507786882 xtb: 6.7.1 (edcfbbe)
C           -2.28818083117470        1.23981533978527       -0.14557674666804
C           -1.86630330371319       -0.07173338179360        0.53214102741252
C           -0.55067868898311       -0.57739588908277        0.00999385606186
O           -0.40594414412902       -1.62167801930974       -0.61499919838368
O            0.46323635039736        0.25986141936595        0.28412849210224
C            1.77907525092552       -0.14098073140109       -0.19879918794870
C            2.76758863376695        0.90881733084077        0.24559168738408
H           -1.60602968776325        2.05757873405130        0.10978388095738
H           -2.30419161079055        1.13007203392264       -1.23686852496191
H           -3.29427947487973        1.52259463088456        0.18228741923579
H           -2.60481622512097       -0.85586757950066        0.35490277441510
H           -1.77505161905740        0.07856139328833        1.61450712065461
H            2.01737929520669       -1.12254308318427        0.22263132493849
H            1.73904297010953       -0.22214037500483       -1.28963571082008
H            3.75873329632294        0.63229471329210       -0.13148000477112
H            2.51025112072922        1.89588194320638       -0.15664834137548
H            2.82160698821430        0.96953232131036        1.33878248041291
17
 energy: -346.943051081861 gnorm: 0.003676832400 xtb: 6.7.1 (edcfbbe)
C           -2.28571073164896        1.24026560573572       -0.14541595171723
C           -1.86649743179365       -0.07085858648244        0.53076614190301
C           -0.55305071197875       -0.57725571923684        0.00535022489075
O           -0.40594968787582       -1.62163220553022       -0.61338222404362
O            0.46254060607069        0.25659601994810        0.28526936370453
C            1.78158243658352       -0.14211846589990       -0.19899949290308
C            2.76697564566027        0.90906274976519        0.24584958755990
H           -1.60061718614173        2.05428409405854        0.10618224942823
H           -2.30686555051637        1.12840332895103       -1.23427295738852
H           -3.28856946420144        1.52216504990692        0.18742309930560
H           -2.60830584036716       -0.85240907532847        0.35553722780232
H           -1.77272276372008        0.08075877130895        1.61209942019089
H            2.01930961128546       -1.12468264783232        0.21954187165784
H            1.73785048733789       -0.22282101144222       -1.28941498142764
H            3.76021989864127        0.63894459630745       -0.12625794188827
H            2.50631769485850        1.89264014840653       -0.15671349225863
H            2.81493148319367        0.97132800283161        1.33718001511738
17
 energy: -346.943077807541 gnorm: 0.002207710585 xtb: 6.7.1 (edcfbbe)
C           -2.28184243627726        1.24143142113872       -0.14542305659941
C           -1.86574504329211       -0.07034247664314        0.52941196782146
C           -0.55330693532690       -0.58287954761599        0.00844780934647
O           -0.40592313418888       -1.62266430270942       -0.61456873416099
O            0.46276282877104        0.25141370607051        0.28908038728262
C            1.78391585941887       -0.14407154751209       -0.20053910361300
C            2.76373522490170        0.91046721074745        0.24582409581647
H           -1.59189761752816        2.05121750291097        0.10170726513966
H           -2.30946745681866        1.12797289357399       -1.23275517911484
H           -3.28102675515193        1.52642937189354        0.19262697801164
H           -2.61146414576260       -0.84829456137188        0.35429938590990
H           -1.77131995271418        0.08109044251973        1.61024917237408
H            2.02319028413686       -1.12702450426988        0.21575303611683
H            1.73536607542710       -0.22378874813301       -1.29063470630488
H            3.75975377669512        0.64630633691983       -0.12074873365396
H            2.49928197986972        1.89105920175738       -0.15824423251016
H            2.80542624665765        0.97434773446622        1.33625547020081
17
 energy: -346.943090378966 gnorm: 0.001529325754 xtb: 6.7.1 (edcfbbe)
C           -2.27902561061981        1.24183933800522       -0.14542334754355
C           -1.86520930738401       -0.07083032559219        0.52939921034422
C           -0.55409266203462       -0.58436786716510        0.00605592593652
O           -0.40645374751676       -1.62445729332707       -0.61659477726795
O            0.46283867646664        0.24843775119485        0.29079537329243
C            1.78484665841417       -0.14578206007207       -0.20088218327513
C            2.76081156467608        0.91161365200666        0.24623539341480
H           -1.58469344130098        2.04935515908812        0.09750552217113
H           -2.31247192924129        1.12751135435125       -1.23270866748264
H           -3.27546860208333        1.53139897182660        0.19724230396759
H           -2.61263442168386       -0.84743827683976        0.35530788091719
H           -1.76914665999749        0.08037319306873        1.61018032337816
H            2.02579125245871       -1.12867316357563        0.21457411501423
H            1.73446797328050       -0.22422527504650       -1.29097928765933
H            3.75886246618497        0.64996962353939       -0.11681481765710
H            2.49434134886179        1.89099874337789       -0.16007430984422
H            2.79867545715188        0.97694629291800        1.33692279742236
17
 energy: -346.943100626253 gnorm: 0.001487772096 xtb: 6.7.1 (edcfbbe)
C           -2.27387241566566        1.24230548034315       -0.14505578845461
C           -1.86507554303930       -0.07292237990187        0.52925249907933
C           -0.55532081981550       -0.58840853979494        0.00408336901924
O           -0.40882254599132       -1.62711135290366       -0.62256020412649
O            0.46239428808447        0.24246805404724        0.29378925657671
C            1.78524563610637       -0.14777773352847       -0.20079235290461
C            2.75604956865857        0.91414252397327        0.24651784265828
H           -1.56968280417873        2.04479705336977        0.08955795341641
H           -2.31823294373777        1.12606150268170       -1.23253468822806
H           -3.26476521110394        1.54317461664886        0.20612624758879
H           -2.61523789714478       -0.84705907010143        0.35578942583426
H           -1.76699332357560        0.07751636807507        1.61017788715278
H            2.03053610825329       -1.12983589560178        0.21420413718464
H            1.73301518778752       -0.22487226156410       -1.29088075231999
H            3.75751491483555        0.65554315531642       -0.11043298313368
H            2.48685775830334        1.89172531772659       -0.16441070785396
H            2.78782952406345        0.98292226882927        1.33790943430759
17
 energy: -346.943105223253 gnorm: 0.001029331187 xtb: 6.7.1 (edcfbbe)
C           -2.27200397684689        1.24231114714117       -0.14471402849696
C           -1.86515094512164       -0.07385512186242        0.52880551253061
C           -0.55549647560871       -0.58969992025231        0.00348990208238
O           -0.41002410115500       -1.62650775373333       -0.62631484422061
O            0.46228862394808        0.23964759754846        0.29545042299347
C            1.78472876483868       -0.14837666294649       -0.19985049133696
C            2.75414796527993        0.91551142483302        0.24656721488139
H           -1.56283990916072        2.04147701978893        0.08586629425571
H           -2.32164991372044        1.12507156565191       -1.23175135921366
H           -3.25971105351222        1.54824489358956        0.21071641946911
H           -2.61614069064028       -0.84693677803186        0.35450686931106
H           -1.76709267963126        0.07586482362496        1.60982750314850
H            2.03223305134138       -1.12981212127612        0.21532092038888
H            1.73241477720238       -0.22598507959421       -1.28988187928742
H            3.75613897084965        0.65693335980404       -0.10855051741492
H            2.48494423125691        1.89209211997744       -0.16650539037778
H            2.78465307247445        0.98668825024144        1.33775744972681
17
 energy: -346.943107154214 gnorm: 0.000449807783 xtb: 6.7.1 (edcfbbe)
C           -2.27080686136938        1.24232544010929       -0.14416976675027
C           -1.86551672731630       -0.07487211823911        0.52805216118315
C           -0.55555736670157       -0.58957424104500        0.00220547834818
O           -0.41120183968779       -1.62403837955467       -0.63205098738578
O            0.46222080599622        0.23698921087242        0.29765029720524
C            1.78364800374360       -0.14867490492913       -0.19726058615603
C            2.75311526019079        0.91677565076624        0.24642720894702
H           -1.55671324852543        2.03815097066343        0.08137319699403
H           -2.32717855103086        1.12411812773608       -1.23056322727662
H           -3.25475898182401        1.55286132217829        0.21672280736995
H           -2.61635288830845       -0.84763639889343        0.35174524256577
H           -1.76829678528195        0.07343728981520        1.60925478589133
H            2.03403059939239       -1.12908967417163        0.21881717230180
H            1.73226205839464       -0.22828497370637       -1.28724493688198
H            3.75493609938455        0.65698347915463       -0.10801597210192
H            2.48403438355574        1.89202446685259       -0.16943495767108
H            2.78357600183856        0.99117318052521        1.33723119868386
17
 energy: -346.943107154214 gnorm: 0.000449807783 xtb: 6.7.1 (edcfbbe)
C           -2.27080686136938        1.24232544010929       -0.14416976675027
C           -1.86551672731630       -0.07487211823911        0.52805216118315
C           -0.55555736670157       -0.58957424104500        0.00220547834818
O           -0.41120183968779       -1.62403837955467       -0.63205098738578
O            0.46222080599622        0.23698921087242        0.29765029720524
C            1.78364800374360       -0.14867490492913       -0.19726058615603
C            2.75311526019079        0.91677565076624        0.24642720894702
H           -1.55671324852543        2.03815097066343        0.08137319699403
H           -2.32717855103086        1.12411812773608       -1.23056322727662
H           -3.25475898182401        1.55286132217829        0.21672280736995
H           -2.61635288830845       -0.84763639889343        0.35174524256577
H           -1.76829678528195        0.07343728981520        1.60925478589133
H            2.03403059939239       -1.12908967417163        0.21881717230180
H            1.73226205839464       -0.22828497370637       -1.28724493688198
H            3.75493609938455        0.65698347915463       -0.10801597210192
H            2.48403438355574        1.89202446685259       -0.16943495767108
H            2.78357600183856        0.99117318052521        1.33723119868386
