      -----------------------------------------------------------      
     |                   =====================                   |     
     |                           x T B                           |     
     |                   =====================                   |     
     |                         S. Grimme                         |     
     |          Mulliken Center for Theoretical Chemistry        |     
     |                    University of Bonn                     |     
      -----------------------------------------------------------      

   * xtb version 6.7.1 (edcfbbe) compiled by 'albert@albert-system' on 2024-07-22

   xtb is free software: you can redistribute it and/or modify it under
   the terms of the GNU Lesser General Public License as published by
   the Free Software Foundation, either version 3 of the License, or
   (at your option) any later version.
   
   xtb is distributed in the hope that it will be useful,
   but WITHOUT ANY WARRANTY; without even the implied warranty of
   MERCHANTABILITY or FITNESS FOR A PARTICULAR PURPOSE.  See the
   GNU Lesser General Public License for more details.
   
   Cite this work as:
   * C. Bannwarth, E. Caldeweyher, S. Ehlert, A. Hansen, P. Pracht,
     J. Seibert, S. Spicher, S. Grimme, WIREs Comput. Mol. Sci., 2020, 11,
     e01493. DOI: 10.1002/wcms.1493
   
   for GFN2-xTB:
   * C. Bannwarth, S. Ehlert and S. Grimme., J. Chem. Theory Comput., 2019,
     15, 1652-1671. DOI: 10.1021/acs.jctc.8b01176
   for GFN1-xTB:
   * S. Grimme, C. Bannwarth, P. Shushkov, J. Chem. Theory Comput., 2017,
     13, 1989-2009. DOI: 10.1021/acs.jctc.7b00118
   for GFN0-xTB:
   * P. Pracht, E. Caldeweyher, S. Ehlert, S. Grimme, ChemRxiv, 2019, preprint.
     DOI: 10.26434/chemrxiv.8326202.v1
   for GFN-FF:
   * S. Spicher and S. Grimme, Angew. Chem. Int. Ed., 2020, 59, 15665-15673.
     DOI: 10.1002/anie.202004239
   
   for ALPB and GBSA implicit solvation:
   * S. Ehlert, M. Stahn, S. Spicher, S. Grimme, J. Chem. Theory Comput.,
     2021, 17, 4250-4261. DOI: 10.1021/acs.jctc.1c00471
   
   for ddCOSMO and CPCM-X implicit solvation:
   * M. Stahn, S. Ehlert, S. Grimme, J. Phys. Chem. A,
     2023, XX, XXXX-XXXX. DOI: 10.1021/acs.jpca.3c04382
   
   for DFT-D4:
   * E. Caldeweyher, C. Bannwarth and S. Grimme, J. Chem. Phys., 2017,
     147, 034112. DOI: 10.1063/1.4993215
   * E. Caldeweyher, S. Ehlert, A. Hansen, H. Neugebauer, S. Spicher,
     C. Bannwarth and S. Grimme, J. Chem. Phys., 2019, 150, 154122.
     DOI: 10.1063/1.5090222
   * E. Caldeweyher, J.-M. Mewes, S. Ehlert and S. Grimme, Phys. Chem. Chem. Phys.
     2020, 22, 8499-8512. DOI: 10.1039/D0CP00502A
   
   for sTDA-xTB:
   * S. Grimme and C. Bannwarth, J. Chem. Phys., 2016, 145, 054103.
     DOI: 10.1063/1.4959605
   
   in the mass-spec context:
   * V. Asgeirsson, C. Bauer and S. Grimme, Chem. Sci., 2017, 8, 4879.
     DOI: 10.1039/c7sc00601b
   * J. Koopman and S. Grimme, ACS Omega 2019, 4, 12, 15120-15133.
     DOI: 10.1021/acsomega.9b02011
   
   for metadynamics refer to:
   * S. Grimme, J. Chem. Theory Comput., 2019, 155, 2847-2862
     DOI: 10.1021/acs.jctc.9b00143
   
   for SPH calculations refer to:
   * S. Spicher and S. Grimme, J. Chem. Theory Comput., 2021, 17, 1701-1714
     DOI: 10.1021/acs.jctc.0c01306
   
   for ONIOM refer to:
   * C. Plett, A. Katbashev, S. Ehlert, S. Grimme, M. Bursch,
     Phys. Chem. Chem. Phys., 2023, 25, 17860-17868. DOI: 10.1039/D3CP02178E
   
   for DIPRO refer to:
   * J. Kohn, N. Gildemeister, S. Grimme, D. Fazzi, A. Hansen,
     J. Chem. Phys., 2023, just accepted.
   
   for PTB refer to:
   * S. Grimme, M. Mueller, A. Hansen, J. Chem. Phys., 2023, 158, 124111.
     DOI: 10.1063/5.0137838
   
   with help from (in alphabetical order)
   P. Atkinson, C. Bannwarth, F. Bohle, G. Brandenburg, E. Caldeweyher
   M. Checinski, S. Dohm, S. Ehlert, S. Ehrlich, I. Gerasimov, C. Hölzer
   A. Katbashev, J. Kohn, J. Koopman, C. Lavigne, S. Lehtola, F. März, M. Müller,
   F. Musil, H. Neugebauer, J. Pisarek, C. Plett, P. Pracht, F. Pultar,
   J. Seibert, P. Shushkov, S. Spicher, M. Stahn, M. Steiner, T. Strunk,
   J. Stückrath, T. Rose, and J. Unsleber
   
 * started run on 2025/04/11 at 11:19:21.883     
   ID    Z sym.   atoms
    1    6 C      1-3
    2    8 O      4-6
    3    1 H      7-14

           -------------------------------------------------
          |                Calculation Setup                |
           -------------------------------------------------

          program call               : /srv/scratch/z5358697/.xtb/bin/xtb solv.coord --gfn2 --sp --chrg 0 --norestart --parallel 1 --alpb water reference -I xtb_sp-xcontrol-inp
          hostname                   : k022
          coordinate file            : solv.coord
          omp threads                :                     1


           -------------------------------------------------
          |                 G F N 2 - x T B                 |
           -------------------------------------------------

        Reference                      10.1021/acs.jctc.8b01176
      * Hamiltonian:
        H0-scaling (s, p, d)           1.850000    2.230000    2.230000
        zeta-weighting                 0.500000
      * Dispersion:
        s8                             2.700000
        a1                             0.520000
        a2                             5.000000
        s9                             5.000000
      * Repulsion:
        kExp                           1.500000    1.000000
        rExp                           1.000000
      * Coulomb:
        alpha                          2.000000
        third order                    shell-resolved
        anisotropic                    true
        a3                             3.000000
        a5                             4.000000
        cn-shift                       1.200000
        cn-exp                         4.000000
        max-rad                        5.000000

      * Solvation model:               ALPB
        Solvent                        water
        Parameter file                 internal GFN2-xTB/ALPB
        Dielectric constant                8.0200E+01
        Reference state                gsolv=reference [X=1]
        Free energy shift                  2.8945E-03 Eh       1.8164E+00 kcal/mol
        Temperature                        2.9815E+02 K
        Density                            1.0000E+00 kg/L
        Solvent mass                       1.8000E+01 g/mol
        Interaction kernel             P16
        Born radius scaling (c1)           1.4744E+00
        Born radii integrator          GBOBC
        Born offset                        0.0000E+00 a0       0.0000E+00 AA
        H-bond correction              true
        Ion screening                  false
        Surface tension                    1.0000E-05 Eh       1.5569E+01 dyn/cm
        Grid points                               974 per atom

          ...................................................
          :                      SETUP                      :
          :.................................................:
          :  # basis functions                  32          :
          :  # atomic orbitals                  32          :
          :  # shells                           20          :
          :  # electrons                        38          :
          :  max. iterations                   250          :
          :  Hamiltonian                  GFN2-xTB          :
          :  restarted?                      false          :
          :  GBSA solvation                   true          :
          :  PC potential                    false          :
          :  electronic temp.          300.0000000     K    :
          :  accuracy                    1.0000000          :
          :  -> integral cutoff          0.2500000E+02      :
          :  -> integral neglect         0.1000000E-07      :
          :  -> SCF convergence          0.1000000E-05 Eh   :
          :  -> wf. convergence          0.1000000E-03 e    :
          :  Broyden damping             0.4000000          :
          :  net charge                          0          :
          :  unpaired electrons                  0          :
          ...................................................

 iter      E             dE          RMSdq      gap      omega  full diag
   1    -22.8410747 -0.228411E+02  0.472E+00   12.17       0.0  T
   2    -22.8635114 -0.224367E-01  0.248E+00   11.92       1.0  T
   3    -22.8650775 -0.156604E-02  0.593E-01   11.82       1.0  T
   4    -22.8651942 -0.116670E-03  0.186E-01   11.83       1.0  T
   5    -22.8652284 -0.342896E-04  0.624E-02   11.85       1.0  T
   6    -22.8652369 -0.845092E-05  0.267E-02   11.86       1.0  T
   7    -22.8652379 -0.101149E-05  0.529E-03   11.85       5.1  T
   8    -22.8652380 -0.652134E-07  0.264E-03   11.85      10.1  T
   9    -22.8652380 -0.981737E-08  0.525E-04   11.85      50.9  T
  10    -22.8652380 -0.424489E-09  0.235E-04   11.85     113.9  T

   *** convergence criteria satisfied after 10 iterations ***

         #    Occupation            Energy/Eh            Energy/eV
      -------------------------------------------------------------
         1        2.0000           -0.6972703             -18.9737
       ...           ...                  ...                  ...
        13        2.0000           -0.4986875             -13.5700
        14        2.0000           -0.4849428             -13.1960
        15        2.0000           -0.4760984             -12.9553
        16        2.0000           -0.4456636             -12.1271
        17        2.0000           -0.4205617             -11.4441
        18        2.0000           -0.4133699             -11.2484
        19        2.0000           -0.4092546             -11.1364 (HOMO)
        20                          0.0263340               0.7166 (LUMO)
        21                          0.0334488               0.9102
        22                          0.0725350               1.9738
        23                          0.1044369               2.8419
        24                          0.1148766               3.1260
       ...                                ...                  ...
        32                          0.2677639               7.2862
      -------------------------------------------------------------
                  HL-Gap            0.4355887 Eh           11.8530 eV
             Fermi-level           -0.1914603 Eh           -5.2099 eV

 SCC (total)                   0 d,  0 h,  0 min,  0.011 sec
 SCC setup                      ...        0 min,  0.001 sec (  8.601%)
 Dispersion                     ...        0 min,  0.000 sec (  0.581%)
 classical contributions        ...        0 min,  0.000 sec (  0.153%)
 integral evaluation            ...        0 min,  0.001 sec (  9.497%)
 iterations                     ...        0 min,  0.006 sec ( 53.189%)
 molecular gradient             ...        0 min,  0.003 sec ( 26.458%)
 printout                       ...        0 min,  0.000 sec (  1.359%)

         :::::::::::::::::::::::::::::::::::::::::::::::::::::
         ::                     SUMMARY                     ::
         :::::::::::::::::::::::::::::::::::::::::::::::::::::
         :: total energy             -22.690825227080 Eh    ::
         :: total w/o Gsasa/hb       -22.678885632365 Eh    ::
         :: gradient norm              0.000234442751 Eh/a0 ::
         :: HOMO-LUMO gap             11.852971007291 eV    ::
         ::.................................................::
         :: SCC energy               -22.865228047881 Eh    ::
         :: -> isotropic ES            0.097303940477 Eh    ::
         :: -> anisotropic ES          0.000828855217 Eh    ::
         :: -> anisotropic XC         -0.002731403781 Eh    ::
         :: -> dispersion             -0.007070251353 Eh    ::
         :: -> Gsolv                  -0.025178736930 Eh    ::
         ::    -> Gelec               -0.013239142214 Eh    ::
         ::    -> Gsasa                0.002828611772 Eh    ::
         ::    -> Ghb                 -0.017662755648 Eh    ::
         ::    -> Gshift               0.002894549160 Eh    ::
         :: repulsion energy           0.174402820800 Eh    ::
         :: add. restraining           0.000000000000 Eh    ::
         :: total charge               0.000000000000 e     ::
         :::::::::::::::::::::::::::::::::::::::::::::::::::::

           -------------------------------------------------
          |                Property Printout                |
           -------------------------------------------------

    * Orbital Energies and Occupations

         #    Occupation            Energy/Eh            Energy/eV
      -------------------------------------------------------------
         1        2.0000           -0.6972703             -18.9737
       ...           ...                  ...                  ...
         7        2.0000           -0.5782656             -15.7354
         8        2.0000           -0.5625935             -15.3089
         9        2.0000           -0.5541788             -15.0800
        10        2.0000           -0.5409607             -14.7203
        11        2.0000           -0.5370949             -14.6151
        12        2.0000           -0.5141194             -13.9899
        13        2.0000           -0.4986875             -13.5700
        14        2.0000           -0.4849428             -13.1960
        15        2.0000           -0.4760984             -12.9553
        16        2.0000           -0.4456636             -12.1271
        17        2.0000           -0.4205617             -11.4441
        18        2.0000           -0.4133699             -11.2484
        19        2.0000           -0.4092546             -11.1364 (HOMO)
        20                          0.0263340               0.7166 (LUMO)
        21                          0.0334488               0.9102
        22                          0.0725350               1.9738
        23                          0.1044369               2.8419
        24                          0.1148766               3.1260
        25                          0.1320462               3.5932
        26                          0.1472890               4.0079
        27                          0.1595078               4.3404
        28                          0.2062487               5.6123
        29                          0.2281143               6.2073
        30                          0.2369724               6.4483
       ...                                ...                  ...
        32                          0.2677639               7.2862
      -------------------------------------------------------------
                  HL-Gap            0.4355887 Eh           11.8530 eV
             Fermi-level           -0.1914603 Eh           -5.2099 eV

     #   Z          covCN         q      C6AA      α(0)
     1   6 C        3.674     0.072    19.598     6.344
     2   6 C        3.724     0.105    18.954     6.217
     3   6 C        3.675     0.061    19.770     6.371
     4   8 O        1.655    -0.517    23.259     6.510
     5   8 O        1.655    -0.499    22.865     6.455
     6   8 O        1.655    -0.521    23.357     6.524
     7   1 H        0.924     0.031     2.579     2.511
     8   1 H        0.924     0.041     2.430     2.438
     9   1 H        0.924     0.052     2.291     2.367
    10   1 H        0.924     0.033     2.548     2.496
    11   1 H        0.924     0.043     2.414     2.430
    12   1 H        0.805     0.373     0.537     1.151
    13   1 H        0.804     0.355     0.577     1.193
    14   1 H        0.805     0.371     0.542     1.157

 Mol. C6AA /au·bohr⁶  :       1414.710423
 Mol. C8AA /au·bohr⁸  :      29082.246098
 Mol. α(0) /au        :         54.163715


Wiberg/Mayer (AO) data.
largest (>0.10) Wiberg bond orders for each atom

 ---------------------------------------------------------------------------
     #   Z sym  total        # sym  WBO       # sym  WBO       # sym  WBO
 ---------------------------------------------------------------------------
     1   6 C    3.956 --     6 O    0.997     2 C    0.981     7 H    0.969
                             8 H    0.969
     2   6 C    3.960 --     5 O    1.000     1 C    0.981     3 C    0.981
                             9 H    0.961
     3   6 C    3.958 --     4 O    0.998     2 C    0.981    11 H    0.970
                            10 H    0.970
     4   8 O    1.902 --     3 C    0.998    12 H    0.848
     5   8 O    1.931 --     2 C    1.000    13 H    0.857
     6   8 O    1.899 --     1 C    0.997    14 H    0.850
     7   1 H    0.999 --     1 C    0.969
     8   1 H    0.998 --     1 C    0.969
     9   1 H    0.997 --     2 C    0.961
    10   1 H    0.999 --     3 C    0.970
    11   1 H    0.998 --     3 C    0.970
    12   1 H    0.861 --     4 O    0.848
    13   1 H    0.874 --     5 O    0.857
    14   1 H    0.862 --     6 O    0.850
 ---------------------------------------------------------------------------

Topologies differ in total number of bonds
Writing topology from bond orders to xtbtopo.mol

molecular dipole:
                 x           y           z       tot (Debye)
 q only:        0.633      -1.177      -0.389
   full:        0.803      -1.516      -0.453       4.509
molecular quadrupole (traceless):
                xx          xy          yy          xz          yz          zz
 q only:        5.728       0.769      -4.524       3.431      -1.772      -1.205
  q+dip:        6.315       1.801      -5.382       4.938      -2.374      -0.934
   full:        6.646       1.382      -5.610       4.703      -2.277      -1.036


           -------------------------------------------------
          | TOTAL ENERGY              -22.690825227080 Eh   |
          | GRADIENT NORM               0.000234442751 Eh/α |
          | HOMO-LUMO GAP              11.852971007291 eV   |
           -------------------------------------------------

------------------------------------------------------------------------
 * finished run on 2025/04/11 at 11:19:21.926     
------------------------------------------------------------------------
 total:
 * wall-time:     0 d,  0 h,  0 min,  0.042 sec
 *  cpu-time:     0 d,  0 h,  0 min,  0.017 sec
 * ratio c/w:     0.413 speedup
 SCF:
 * wall-time:     0 d,  0 h,  0 min,  0.011 sec
 *  cpu-time:     0 d,  0 h,  0 min,  0.010 sec
 * ratio c/w:     0.892 speedup

