17
 energy: -23.953581920810 gnorm: 0.029447927066 xtb: 6.7.1 (edcfbbe)
C           -3.26783400417885        0.41510424256544        0.13824816056019
C           -1.92955598411608        0.15123740365858       -0.54440304619933
C           -0.77007888372981        0.29180330442779        0.43399237161962
C            0.57462150208135        0.05004172203951       -0.18792427588092
O            0.77286459902148       -0.29381636034181       -1.34129250704335
O            1.57217607168682        0.25655394184091        0.69630477477464
C            2.91681316557520        0.04320975324158        0.19456426716720
H           -3.30363657265168        1.42736125067502        0.55569739509786
H           -4.09667850532029        0.31342056947987       -0.56884639683189
H           -3.43633258094021       -0.29115257440500        0.95867690445793
H           -1.78858464478932        0.85142783658338       -1.37554144078249
H           -1.92162722506320       -0.85627104993624       -0.97479518310698
H           -0.87583803152254       -0.41234696148366        1.26986962318552
H           -0.75443891849132        1.29126925683491        0.88632637098277
H            3.57634753201835        0.26990960854733        1.03158192176302
H            3.11875524299139        0.71581186381186       -0.64257268419887
H            3.04304039506336       -0.99607592219513       -0.11888920781043
17
 energy: -23.954425867496 gnorm: 0.010603390251 xtb: 6.7.1 (edcfbbe)
C           -3.26195378067989        0.41465328289905        0.13925381250870
C           -1.92509008202760        0.15213940800593       -0.54031791452315
C           -0.76768274522964        0.29373074265294        0.44168632485144
C            0.57222686695389        0.04888415252431       -0.19084703077291
O            0.76411580415029       -0.29142373941887       -1.33854016211158
O            1.56938913804611        0.25230322645772        0.68088776119815
C            2.90875315970679        0.04443221993551        0.19692092694218
H           -3.29376069287455        1.42300981560265        0.55030151587030
H           -4.07860313971316        0.31075616796049       -0.57260849063804
H           -3.42601154648982       -0.29150302324674        0.95238015484247
H           -1.78335543199713        0.85223053165756       -1.36733222086345
H           -1.91447068884259       -0.85360604462210       -0.96721999342089
H           -0.87445670518664       -0.41381603845169        1.26992356502326
H           -0.75106250286629        1.29354083928482        0.88514997017951
H            3.55975652181768        0.27226792780182        1.03694798690901
H            3.10400237823859        0.71060627716311       -0.64318855102954
H            3.02821660462863       -0.99071786086217       -0.12240060721096
17
 energy: -23.954551540360 gnorm: 0.003568384229 xtb: 6.7.1 (edcfbbe)
C           -3.26072200783319        0.41397409561393        0.13900818557828
C           -1.92175738136730        0.15287841573867       -0.53746111542334
C           -0.76622028785406        0.29571418062291        0.44842036781471
C            0.57109403490835        0.04901905709695       -0.19230878529952
O            0.75808341129862       -0.29085035236104       -1.33956454109710
O            1.56658337491050        0.25015112629739        0.67274130608688
C            2.90160041928597        0.04470586590394        0.19732559046443
H           -3.29100915240312        1.42054134785988        0.54757293713934
H           -4.07122632714958        0.30866258340119       -0.57618502319086
H           -3.42262330284688       -0.29214285592285        0.94904713608453
H           -1.77683205130716        0.85314903611936       -1.36199676542223
H           -1.90639750679543       -0.85222516055118       -0.96246381600476
H           -0.87354739739019       -0.41350309853029        1.27226952778633
H           -0.74878312195403        1.29590021183474        0.88590194759217
H            3.54778088215004        0.27289967071563        1.03854110629338
H            3.10005328399579        0.70744353233263       -0.64452886573850
H            3.02393628798635       -0.98882977082752       -0.12532214490926
17
 energy: -23.954561798148 gnorm: 0.001500716270 xtb: 6.7.1 (edcfbbe)
C           -3.26176832601009        0.41356656026583        0.13841348382924
C           -1.92130595846005        0.15340541111872       -0.53642441819229
C           -0.76599051558297        0.29657081708119        0.45041034049348
C            0.57112663281448        0.04868994689084       -0.19193400639406
O            0.75539729262062       -0.29093541426881       -1.34043278097718
O            1.56651695750920        0.24948295132293        0.67126531747783
C            2.90054971411809        0.04460288430633        0.19721778651261
H           -3.29276384361196        1.42020928498628        0.54694528933317
H           -4.07106562201415        0.30767007249224       -0.57817113715997
H           -3.42378162548929       -0.29296504558254        0.94817233513940
H           -1.77530365979167        0.85392162561417       -1.36051383930657
H           -1.90422736111884       -0.85168508646304       -0.96130738307534
H           -0.87326689558504       -0.41262733641010        1.27381261725216
H           -0.74769037122442        1.29700314949744        0.88651913653032
H            3.54665442168222        0.27278606974798        1.03841647746549
H            3.10151815200447        0.70681801762587       -0.64522513828040
H            3.02541416577407       -0.98902602288099       -0.12616703289339
17
 energy: -23.954564298541 gnorm: 0.000846387403 xtb: 6.7.1 (edcfbbe)
C           -3.26310351521577        0.41264005086166        0.13761377109356
C           -1.92106167024551        0.15412196532060       -0.53534955994296
C           -0.76594722395567        0.29798257371577        0.45206488128177
C            0.57150716263496        0.04936719738712       -0.19123498487783
O            0.75207429636413       -0.29119334074422       -1.34084499789147
O            1.56725280619336        0.24893703124573        0.67027050406325
C            2.90058446112290        0.04396857734014        0.19688470611095
H           -3.29636876667780        1.41944484523500        0.54656003248262
H           -4.07127770838690        0.30595342750357       -0.58057238333959
H           -3.42606488320479       -0.29443982863022        0.94719992000717
H           -1.77465725352324        0.85514070645585       -1.35910178390296
H           -1.90222902670295       -0.85091511478447       -0.96058090581267
H           -0.87305959679936       -0.41046395170651        1.27608403047374
H           -0.74685781168852        1.29889433322505        0.88693778126532
H            3.54756008376685        0.27184881629970        1.03788354974842
H            3.10403928295168        0.70614351916670       -0.64583938125845
H            3.02762252100129       -0.98994292254715       -0.12697813174637
17
 energy: -23.954564962004 gnorm: 0.000201690623 xtb: 6.7.1 (edcfbbe)
C           -3.26282693084511        0.41238162701163        0.13761942366062
C           -1.92098160710889        0.15434137449543       -0.53546288507998
C           -0.76599313861932        0.29831488421165        0.45177953163697
C            0.57151234394594        0.04897915754655       -0.19092555214038
O            0.75234963076793       -0.29108497271453       -1.34038471794627
O            1.56739688061666        0.24893693623266        0.67066500927327
C            2.90090189516311        0.04380203114224        0.19669896953306
H           -3.29650011462799        1.41904046158470        0.54673075320275
H           -4.07103610674039        0.30560407027661       -0.58045480132540
H           -3.42572150219922       -0.29477992984986        0.94707486880509
H           -1.77505209902197        0.85541579966080       -1.35924724924771
H           -1.90220982232774       -0.85062628940657       -0.96084854258869
H           -0.87340913956750       -0.40979737266664        1.27617244606885
H           -0.74702019959657        1.29932596309655        0.88671012442233
H            3.54802169401325        0.27167264004550        1.03761336444434
H            3.10352619979680        0.70604603718984       -0.64589092321717
H            3.02705517398567       -0.99008453251222       -0.12685277174718
17
 energy: -23.954565187798 gnorm: 0.000205496299 xtb: 6.7.1 (edcfbbe)
C           -3.26274610288846        0.41174070630373        0.13756243292921
C           -1.92075706705945        0.15462816064900       -0.53538655958137
C           -0.76598311692296        0.29918074048161        0.45186881914278
C            0.57152018037418        0.04975924489540       -0.19079866678824
O            0.75219277988883       -0.29106303657930       -1.33994757116873
O            1.56748697762139        0.24910351464237        0.67085518049985
C            2.90095532530106        0.04328625932223        0.19652013101427
H           -3.29709168883684        1.41823412002617        0.54690215945342
H           -4.07073926941000        0.30468446878957       -0.58066481919145
H           -3.42537088847738       -0.29569765005006        0.94676475517396
H           -1.77527502928846        0.85592707198053       -1.35904770050162
H           -1.90135523212741       -0.85022420964262       -0.96100921623559
H           -0.87349345115551       -0.40837936797109        1.27677877194636
H           -0.74713646429363        1.30046055557399        0.88623642965303
H            3.54824125621589        0.27092264409673        1.03733934398095
H            3.10329370376012        0.70551494552593       -0.64599508190335
H            3.02627124493330       -0.99059028269984       -0.12698136066901
17
 energy: -23.954565430587 gnorm: 0.000205768416 xtb: 6.7.1 (edcfbbe)
C           -3.26286371942573        0.41095543790142        0.13740899807438
C           -1.92048006036084        0.15514757580271       -0.53523603230179
C           -0.76594582111907        0.30030879240215        0.45218400943213
C            0.57149604608193        0.04985816054613       -0.19033211330156
O            0.75177963311327       -0.29105757567925       -1.33952626115848
O            1.56760659037761        0.24904937626506        0.67105696665449
C            2.90093966016628        0.04277589933601        0.19628868624377
H           -3.29810376283732        1.41725848843266        0.54712034146333
H           -4.07051091992138        0.30354497154306       -0.58114702830645
H           -3.42518656744892       -0.29693997719132        0.94626177288250
H           -1.77536025336481        0.85675362637887       -1.35870329193462
H           -1.90011540395084       -0.84957890065831       -0.96112677324418
H           -0.87371662378791       -0.40653361251022        1.27766564240101
H           -0.74690657503418        1.30195667329523        0.88569280595895
H            3.54851525046985        0.27020199643459        1.03691694960990
H            3.10315601189453        0.70492193551509       -0.64629182001198
H            3.02570967278217       -0.99113498246956       -0.12723580470692
17
 energy: -23.954565702773 gnorm: 0.000155742698 xtb: 6.7.1 (edcfbbe)
C           -3.26314926903217        0.40965647549330        0.13730046177401
C           -1.92021310745138        0.15592360319333       -0.53511309563407
C           -0.76584805049178        0.30215128307549        0.45243474824136
C            0.57149484376347        0.05034800636225       -0.18982491256081
O            0.75141095611162       -0.29105603001560       -1.33900170154059
O            1.56782205519069        0.24911424755369        0.67132191940400
C            2.90091241627290        0.04192246668790        0.19612753957599
H           -3.29972863872459        1.41566113796595        0.54768693706937
H           -4.07041662497141        0.30174544100959       -0.58162351307311
H           -3.42487346503050       -0.29901677904594        0.94562202742157
H           -1.77582407636516        0.85804001367919       -1.35828391047479
H           -1.89836304119209       -0.84862163934022       -0.96138262753612
H           -0.87389376365228       -0.40350815269847        1.27886112991433
H           -0.74647238040346        1.30440646059592        0.88447392523694
H            3.54896939781500        0.26892189299566        1.03648895771315
H            3.10329333949955        0.70390261540454       -0.64660435927891
H            3.02489256629626       -0.99210315757223       -0.12748647849783
17
 energy: -23.954565863848 gnorm: 0.000103504063 xtb: 6.7.1 (edcfbbe)
C           -3.26325795073712        0.40879513622128        0.13742020543198
C           -1.92014076039437        0.15638433944960       -0.53516442511176
C           -0.76576024444760        0.30338245262211        0.45231241895277
C            0.57149344780175        0.05079825609891       -0.18978506318710
O            0.75139004836370       -0.29099461621934       -1.33887530139007
O            1.56790464894280        0.24927986558906        0.67134333039231
C            2.90082670637868        0.04135497073837        0.19619967541482
H           -3.30060275245363        1.41457678973994        0.54828793465135
H           -4.07043236419684        0.30060081993645       -0.58156663940178
H           -3.42443465724588       -0.30040174629863        0.94539623854578
H           -1.77642611242269        0.85880341058619       -1.35818554613175
H           -1.89742171112823       -0.84805976599885       -0.96161581713799
H           -0.87390746556517       -0.40150221625739        1.27936506379568
H           -0.74622460032520        1.30604090263545        0.88337387085097
H            3.54904975979590        0.26803190442516        1.03651331233009
H            3.10363739820065        0.70315625119212       -0.64660728642659
H            3.02431976706791       -0.99275886911608       -0.12741492382423
17
 energy: -23.954565985278 gnorm: 0.000058194821 xtb: 6.7.1 (edcfbbe)
C           -3.26329407634134        0.40827461825254        0.13765740319002
C           -1.92022467677854        0.15660975193644       -0.53531264406156
C           -0.76568767418568        0.30412246802868        0.45192098977264
C            0.57151406115582        0.05116254815939       -0.19004231269843
O            0.75156603344191       -0.29089064631458       -1.33903059604763
O            1.56790699204572        0.24948538363388        0.67123645377907
C            2.90078605541766        0.04101068349607        0.19641448355292
H           -3.30093838634645        1.41391545304839        0.54884998711631
H           -4.07062591912940        0.29997289669976       -0.58114638468926
H           -3.42397461970832       -0.30123313372370        0.94546662901542
H           -1.77709205435147        0.85916133364511       -1.35831698222083
H           -1.89710731543240       -0.84779611378965       -0.96182744983581
H           -0.87379042182187       -0.40028664783805        1.27938495778529
H           -0.74609636792032        1.30701976440075        0.88241963483987
H            3.54895067475652        0.26744744281973        1.03685151074972
H            3.10412944491123        0.70268505990918       -0.64638339149521
H            3.02399140792159       -0.99317297701960       -0.12714524099804
17
 energy: -23.954566085210 gnorm: 0.000053996223 xtb: 6.7.1 (edcfbbe)
C           -3.26325793836088        0.40783023838612        0.13797553895410
C           -1.92034230314488        0.15675731227634       -0.53551774455751
C           -0.76563284991272        0.30477531223535        0.45142658561618
C            0.57153643351747        0.05152880709394       -0.19043644632312
O            0.75174181728869       -0.29070813727687       -1.33932795457303
O            1.56784393081155        0.24970315354913        0.67103895960126
C            2.90075263506493        0.04070389274124        0.19668793002475
H           -3.30111097180313        1.41335394377658        0.54943022114158
H           -4.07080623091602        0.29942975732264       -0.58056537004868
H           -3.42343721133189       -0.30192340124263        0.94566533699996
H           -1.77781195895444        0.85938332023024       -1.35855991188103
H           -1.89694548564577       -0.84763963663038       -0.96204218773637
H           -0.87361889763644       -0.39922170602925        1.27926555198876
H           -0.74602448437078        1.30788315428721        0.88144708132570
H            3.54872411775794        0.26687830367541        1.03735495146161
H            3.10471273881693        0.70228568606219       -0.64603240337298
H            3.02368981645409       -0.99353211511293       -0.12681309086671
