      -----------------------------------------------------------      
     |                   =====================                   |     
     |                           x T B                           |     
     |                   =====================                   |     
     |                         S. Grimme                         |     
     |          Mulliken Center for Theoretical Chemistry        |     
     |                    University of Bonn                     |     
      -----------------------------------------------------------      

   * xtb version 6.7.1 (edcfbbe) compiled by 'albert@albert-system' on 2024-07-22

   xtb is free software: you can redistribute it and/or modify it under
   the terms of the GNU Lesser General Public License as published by
   the Free Software Foundation, either version 3 of the License, or
   (at your option) any later version.
   
   xtb is distributed in the hope that it will be useful,
   but WITHOUT ANY WARRANTY; without even the implied warranty of
   MERCHANTABILITY or FITNESS FOR A PARTICULAR PURPOSE.  See the
   GNU Lesser General Public License for more details.
   
   Cite this work as:
   * C. Bannwarth, E. Caldeweyher, S. Ehlert, A. Hansen, P. Pracht,
     J. Seibert, S. Spicher, S. Grimme, WIREs Comput. Mol. Sci., 2020, 11,
     e01493. DOI: 10.1002/wcms.1493
   
   for GFN2-xTB:
   * C. Bannwarth, S. Ehlert and S. Grimme., J. Chem. Theory Comput., 2019,
     15, 1652-1671. DOI: 10.1021/acs.jctc.8b01176
   for GFN1-xTB:
   * S. Grimme, C. Bannwarth, P. Shushkov, J. Chem. Theory Comput., 2017,
     13, 1989-2009. DOI: 10.1021/acs.jctc.7b00118
   for GFN0-xTB:
   * P. Pracht, E. Caldeweyher, S. Ehlert, S. Grimme, ChemRxiv, 2019, preprint.
     DOI: 10.26434/chemrxiv.8326202.v1
   for GFN-FF:
   * S. Spicher and S. Grimme, Angew. Chem. Int. Ed., 2020, 59, 15665-15673.
     DOI: 10.1002/anie.202004239
   
   for ALPB and GBSA implicit solvation:
   * S. Ehlert, M. Stahn, S. Spicher, S. Grimme, J. Chem. Theory Comput.,
     2021, 17, 4250-4261. DOI: 10.1021/acs.jctc.1c00471
   
   for ddCOSMO and CPCM-X implicit solvation:
   * M. Stahn, S. Ehlert, S. Grimme, J. Phys. Chem. A,
     2023, XX, XXXX-XXXX. DOI: 10.1021/acs.jpca.3c04382
   
   for DFT-D4:
   * E. Caldeweyher, C. Bannwarth and S. Grimme, J. Chem. Phys., 2017,
     147, 034112. DOI: 10.1063/1.4993215
   * E. Caldeweyher, S. Ehlert, A. Hansen, H. Neugebauer, S. Spicher,
     C. Bannwarth and S. Grimme, J. Chem. Phys., 2019, 150, 154122.
     DOI: 10.1063/1.5090222
   * E. Caldeweyher, J.-M. Mewes, S. Ehlert and S. Grimme, Phys. Chem. Chem. Phys.
     2020, 22, 8499-8512. DOI: 10.1039/D0CP00502A
   
   for sTDA-xTB:
   * S. Grimme and C. Bannwarth, J. Chem. Phys., 2016, 145, 054103.
     DOI: 10.1063/1.4959605
   
   in the mass-spec context:
   * V. Asgeirsson, C. Bauer and S. Grimme, Chem. Sci., 2017, 8, 4879.
     DOI: 10.1039/c7sc00601b
   * J. Koopman and S. Grimme, ACS Omega 2019, 4, 12, 15120-15133.
     DOI: 10.1021/acsomega.9b02011
   
   for metadynamics refer to:
   * S. Grimme, J. Chem. Theory Comput., 2019, 155, 2847-2862
     DOI: 10.1021/acs.jctc.9b00143
   
   for SPH calculations refer to:
   * S. Spicher and S. Grimme, J. Chem. Theory Comput., 2021, 17, 1701-1714
     DOI: 10.1021/acs.jctc.0c01306
   
   for ONIOM refer to:
   * C. Plett, A. Katbashev, S. Ehlert, S. Grimme, M. Bursch,
     Phys. Chem. Chem. Phys., 2023, 25, 17860-17868. DOI: 10.1039/D3CP02178E
   
   for DIPRO refer to:
   * J. Kohn, N. Gildemeister, S. Grimme, D. Fazzi, A. Hansen,
     J. Chem. Phys., 2023, just accepted.
   
   for PTB refer to:
   * S. Grimme, M. Mueller, A. Hansen, J. Chem. Phys., 2023, 158, 124111.
     DOI: 10.1063/5.0137838
   
   with help from (in alphabetical order)
   P. Atkinson, C. Bannwarth, F. Bohle, G. Brandenburg, E. Caldeweyher
   M. Checinski, S. Dohm, S. Ehlert, S. Ehrlich, I. Gerasimov, C. Hölzer
   A. Katbashev, J. Kohn, J. Koopman, C. Lavigne, S. Lehtola, F. März, M. Müller,
   F. Musil, H. Neugebauer, J. Pisarek, C. Plett, P. Pracht, F. Pultar,
   J. Seibert, P. Shushkov, S. Spicher, M. Stahn, M. Steiner, T. Strunk,
   J. Stückrath, T. Rose, and J. Unsleber
   
 * started run on 2025/04/11 at 12:14:21.830     
   ID    Z sym.   atoms
    1    6 C      1, 2, 4-7
    2    1 H      3, 9-21
    3    8 O      8

           -------------------------------------------------
          |                Calculation Setup                |
           -------------------------------------------------

          program call               : /srv/scratch/z5358697/.xtb/bin/xtb xtb_opt.coord --opt normal --orca -I xtb_opt-xcontrol-inp
          hostname                   : k068
          coordinate file            : xtb_opt.coord
          omp threads                :                    16

           -------------------------------------------------
          |                   Orca driver                   |
           -------------------------------------------------
orca executable           : /apps/z_install_tree/linux-rocky8-ivybridge/gcc-12.2.0/orca-6.0.0-srtngmq3qlimg2qxbl6avaaiffipurdx/bin/orca
orca input file           : xtb_opt.inp
orca input line           : 
orca parallel             : true
orca number of threads    : 16
                         * ORCA takes the control...
  ------------------------------------------------------------------------

                                 *****************
                                 * O   R   C   A *
                                 *****************

                                            #,                                       
                                            ###                                      
                                            ####                                     
                                            #####                                    
                                            ######                                   
                                           ########,                                 
                                     ,,################,,,,,                         
                               ,,#################################,,                 
                          ,,##########################################,,             
                       ,#########################################, ''#####,          
                    ,#############################################,,   '####,        
                  ,##################################################,,,,####,       
                ,###########''''           ''''###############################       
              ,#####''   ,,,,##########,,,,          '''####'''          '####       
            ,##' ,,,,###########################,,,                        '##       
           ' ,,###''''                  '''############,,,                           
         ,,##''                                '''############,,,,        ,,,,,,###''
      ,#''                                            '''#######################'''  
     '                                                          ''''####''''         
             ,#######,   #######,   ,#######,      ##                                
            ,#'     '#,  ##    ##  ,#'     '#,    #''#        ,####,   ,####,        
            ##       ##  ##   ,#'  ##            #'  '#       #'       #'  '#        
            ##       ##  #######   ##           ,######,      #####,   #    #        
            '#,     ,#'  ##    ##  '#,     ,#' ,#      #,     #,   #   #,  ,#        
             '#######'   ##     ##  '#######'  #'      '#     '####' # '####'        



                #########################################################
                #                        -***-                          #
                #          Department of theory and spectroscopy        #
                #                                                       #
                #                      Frank Neese                      #
                #                                                       #
                #     Directorship, Architecture, Infrastructure        #
                #                    SHARK, DRIVERS                     #
                #        Core code/Algorithms in most modules           #
                #                                                       #
                #        Max Planck Institute fuer Kohlenforschung      #
                #                Kaiser Wilhelm Platz 1                 #
                #                 D-45470 Muelheim/Ruhr                 #
                #                      Germany                          #
                #                                                       #
                #                  All rights reserved                  #
                #                        -***-                          #
                #########################################################


                         Program Version 6.0.0  -   RELEASE  -


 With contributions from (in alphabetic order):
   Daniel Aravena         : Magnetic Suceptibility
   Michael Atanasov       : Ab Initio Ligand Field Theory (pilot matlab implementation)
   Alexander A. Auer      : GIAO ZORA, VPT2 properties, NMR spectrum
   Ute Becker             : All parallelization in ORCA, NUMFREQ, NUMCALC
   Giovanni Bistoni       : ED, misc. LED, open-shell LED, HFLD
   Martin Brehm           : Molecular dynamics
   Dmytro Bykov           : pre 5.0 version of the SCF Hessian
   Marcos Casanova-Páez   : Triplet and SCS-CIS(D). UHF-(DLPNO)-IP/EA/STEOM-CCSD. UHF-CVS-IP/STEOM-CCSD
   Vijay G. Chilkuri      : MRCI spin determinant printing, contributions to CSF-ICE
   Pauline Colinet        : FMM embedding
   Dipayan Datta          : RHF DLPNO-CCSD density
   Achintya Kumar Dutta   : EOM-CC, STEOM-CC
   Nicolas Foglia         : Exact transition moments, OPA infrastructure, MCD improvements
   Dmitry Ganyushin       : Spin-Orbit,Spin-Spin,Magnetic field MRCI
   Miquel Garcia          : C-PCM and meta-GGA Hessian, CCSD/C-PCM, Gaussian charge scheme
   Tiago L. C. Gouveia    : GS-ROHF, GS-ROCIS
   Yang Guo               : DLPNO-NEVPT2, F12-NEVPT2, CIM, IAO-localization
   Andreas Hansen         : Spin unrestricted coupled pair/coupled cluster methods
   Ingolf Harden          : AUTO-CI MPn and infrastructure 
   Benjamin Helmich-Paris : MC-RPA, TRAH-(SCF,CASSCF), AVAS, COSX integrals, SCF dyn. polar.
   Lee Huntington         : MR-EOM, pCC
   Robert Izsak           : Overlap fitted RIJCOSX, COSX-SCS-MP3, EOM
   Riya Kayal             : Wick's Theorem for AUTO-CI, AUTO-CI UHF-CCSDT
   Emily Kempfer          : AUTO-CI, RHF CISDT and CCSDT
   Christian Kollmar      : KDIIS, OOCD, Brueckner-CCSD(T), CCSD density, CASPT2, CASPT2-K, improved NEVPT2
   Axel Koslowski         : Symmetry handling
   Simone Kossmann        : Meta GGA functionals, TD-DFT gradient, OOMP2, (MP2 Hessian; deprecated post 5.0)
   Lucas Lang             : DCDCAS
   Marvin Lechner         : AUTO-CI (C++ implementation), FIC-MRCC
   Spencer Leger          : CASSCF response
   Dagmar Lenk            : GEPOL surface, SMD, ORCA-2-JSON
   Dimitrios Liakos       : Extrapolation schemes; Compound Job, initial MDCI parallelization
   Dimitrios Manganas     : Further ROCIS development; embedding schemes. LFT, Crystal Embedding
   Dimitrios Pantazis     : SARC Basis sets
   Anastasios Papadopoulos: AUTO-CI, single reference methods and gradients
   Taras Petrenko         : pre 6.0 DFT Hessian and TD-DFT gradient, (ASA, deprecated), ECA, 1-Electron XAS/XES, NRVS
   Peter Pinski           : DLPNO-MP2, DLPNO-MP2 Gradient
   Christoph Reimann      : Effective Core Potentials
   Marius Retegan         : Local ZFS, SOC
   Christoph Riplinger    : Optimizer, TS searches, QM/MM, DLPNO-CCSD(T), (RO)-DLPNO pert. Triples
   Michael Roemelt        : Original ROCIS implementation
   Masaaki Saitow         : Open-shell DLPNO-CCSD energy and density
   Barbara Sandhoefer     : DKH picture change effects
   Kantharuban Sivalingam : CASSCF convergence/infrastructure, NEVPT2 and variants, FIC-MRCI
   Bernardo de Souza      : ESD, SOC TD-DFT
   Georgi Stoychev        : AutoAux, RI-MP2 NMR, DLPNO-MP2 response, X2C
   Van Anh Tran           : RI-MP2 g-tensors
   Willem Van den Heuvel  : Paramagnetic NMR
   Zikuan Wang            : NOTCH, Electric field optimization 
   Frank Wennmohs         : Technical directorship and infrastructure
   Hang Xu                : AUTO-CI-Response properties 


 We gratefully acknowledge several colleagues who have allowed us to
 interface, adapt or use parts of their codes:
   Stefan Grimme, W. Hujo, H. Kruse, P. Pracht,  : VdW corrections, initial TS optimization,
                  C. Bannwarth, S. Ehlert,         DFT functionals, gCP, sTDA/sTD-DF
                  L. Wittmann, M. Mueller
   Ed Valeev, F. Pavosevic, A. Kumar             : LibInt (2-el integral package), F12 methods
   Garnet Chan, S. Sharma, J. Yang, R. Olivares  : DMRG
   Ulf Ekstrom                                   : XCFun DFT Library
   Mihaly Kallay                                 : mrcc  (arbitrary order and MRCC methods)
   Frank Weinhold                                : gennbo (NPA and NBO analysis)
   Simon Mueller                                 : openCOSMO-RS
   Christopher J. Cramer and Donald G. Truhlar   : smd solvation model
   Lars Goerigk                                  : TD-DFT with DH, B97 family of functionals
   V. Asgeirsson, H. Jonsson                     : NEB implementation
   FAccTs GmbH                                   : IRC, NEB, NEB-TS, DLPNO-Multilevel, CI-OPT
                                                   MM, QMMM, 2- and 3-layer-ONIOM, Crystal-QMMM,
                                                   LR-CPCM, SF, NACMEs, symmetry and pop. for TD-DFT,
                                                   nearIR, NL-DFT gradient (VV10), updates on ESD,
                                                   ML-optimized integration grids, MBIS, APM,
                                                   GOAT, DOCKER, SOLVATOR, interface openCOSMO-RS
   S Lehtola, MJT Oliveira, MAL Marques          : LibXC Library
   Liviu Ungur et al                             : ANISO software


 Your calculation uses the libint2 library for the computation of 2-el integrals
 For citations please refer to: http://libint.valeyev.net

 Your ORCA version has been built with support for libXC version: 6.2.2
 For citations please refer to: https://libxc.gitlab.io

 This ORCA versions uses:
   CBLAS   interface :  Fast vector & matrix operations
   LAPACKE interface :  Fast linear algebra routines
   SCALAPACK package :  Parallel linear algebra routines
   Shared memory     :  Shared parallel matrices
   BLAS/LAPACK       :  OpenBLAS 0.3.27  USE64BITINT DYNAMIC_ARCH NO_AFFINITY SkylakeX SINGLE_THREADED
        Core in use  :  SkylakeX
   Copyright (c) 2011-2014, The OpenBLAS Project




***************************************
The coordinates will be read from file: xtb_opt.xyz
***************************************


Your calculation utilizes the geometrical counterpoise correction gCP
Please cite in your paper:
H.Kruse, S. Grimme J.Chem.Phys., 136, (2012), 154101 
   

Your calculation utilizes the atom-pairwise dispersion correction
based on EEQ partial charges (D4)


Your calculation utilizes the SMD solvation module
Please cite in your paper:
A.V. Marenich, C.J. Cramer, D.G. Truhlar J. Phys. Chem. B, 113, (2009), 6378 

================================================================================

----- Orbital basis set information -----
Your calculation utilizes the basis: def2-mTZVPP
   Stefan Grimme, Andreas Hansen, Sebastian Ehlert, and Jan-Michael Mewes 
   J. Chem. Phys. 154, 064103 (2021). DOI: 10.1063/5.0040021

----- AuxJ basis set information -----
Your calculation utilizes the auxiliary basis: def2/J
   F. Weigend, Phys. Chem. Chem. Phys. 8, 1057 (2006).

================================================================================
                                        WARNINGS
                       Please study these warnings very carefully!
================================================================================

WARNING: Old DensityContainer found on disk!
         Will remove this file - 
         If you want to keep old densities, please start your calculation with a different basename. 

Using LibXC functional ID 497 : Re-regularized SCAN exchange by Furness et al
[ 1]  J. W. Furness, A. D. Kaplan, J. Ning, J. P. Perdew, and J. Sun.,  J. Phys. Chem. Lett. 11, 8208-8215 (2020)
[ 2]  J. W. Furness, A. D. Kaplan, J. Ning, J. P. Perdew, and J. Sun.,  J. Phys. Chem. Lett. 11, 9248-9248 (2020)
Using LibXC functional ID 498 : Re-regularized SCAN correlation by Furness et al
[ 1]  J. W. Furness, A. D. Kaplan, J. Ning, J. P. Perdew, and J. Sun.,  J. Phys. Chem. Lett. 11, 8208-8215 (2020)
[ 2]  J. W. Furness, A. D. Kaplan, J. Ning, J. P. Perdew, and J. Sun.,  J. Phys. Chem. Lett. 11, 9248-9248 (2020)
Using LibXC functional ID 497 : Re-regularized SCAN exchange by Furness et al
[ 1]  J. W. Furness, A. D. Kaplan, J. Ning, J. P. Perdew, and J. Sun.,  J. Phys. Chem. Lett. 11, 8208-8215 (2020)
[ 2]  J. W. Furness, A. D. Kaplan, J. Ning, J. P. Perdew, and J. Sun.,  J. Phys. Chem. Lett. 11, 9248-9248 (2020)
Using LibXC functional ID 498 : Re-regularized SCAN correlation by Furness et al
[ 1]  J. W. Furness, A. D. Kaplan, J. Ning, J. P. Perdew, and J. Sun.,  J. Phys. Chem. Lett. 11, 8208-8215 (2020)
[ 2]  J. W. Furness, A. D. Kaplan, J. Ning, J. P. Perdew, and J. Sun.,  J. Phys. Chem. Lett. 11, 9248-9248 (2020)

================================================================================
                                       INPUT FILE
================================================================================
NAME = xtb_opt.inp
|  1> ! r2scan-3c def2/J RI DEFGRID2 scfconv7 ENGRAD tightSCF miniprint
|  2> %cpcm
|  3>     smd true
|  4>     smdsolvent "water"
|  5> end
|  6> * xyzfile 0 1 xtb_opt.xyz
|  7> 
|  8>                          ****END OF INPUT****
================================================================================

                     *******************************
                     * Energy+Gradient Calculation *
                     *******************************

---------------------------------
CARTESIAN COORDINATES (ANGSTROEM)
---------------------------------
  C      1.674163   -0.373223    1.238808
  C      1.174311    0.483825    0.085922
  H      0.877538    1.468559    0.463394
  C      0.016458   -0.151842   -0.682546
  C     -1.238942   -0.478214    0.138181
  C     -1.813001    0.763438    0.822577
  C     -2.291706   -1.122721   -0.765835
  O      2.261016    0.771206   -0.829608
  H      0.894969   -0.516245    1.993370
  H      1.981098   -1.361034    0.874162
  H      2.531172    0.102448    1.724102
  H     -0.264785    0.527520   -1.499416
  H      0.390743   -1.076411   -1.146560
  H     -0.968735   -1.208390    0.912761
  H     -2.739429    0.519449    1.353730
  H     -2.045035    1.536983    0.079543
  H     -1.117897    1.193728    1.550853
  H     -3.182980   -1.403164   -0.194048
  H     -2.603235   -0.425439   -1.553553
  H     -1.901445   -2.025064   -1.249860
  H      2.554822   -0.075931   -1.192303

----------------------------
CARTESIAN COORDINATES (A.U.)
----------------------------
  NO LB      ZA    FRAG     MASS         X           Y           Z
   0 C     6.0000    0    12.011    3.163709   -0.705288    2.341008
   1 C     6.0000    0    12.011    2.219126    0.914296    0.162370
   2 H     1.0000    0     1.008    1.658307    2.775175    0.875688
   3 C     6.0000    0    12.011    0.031101   -0.286941   -1.289825
   4 C     6.0000    0    12.011   -2.341261   -0.903693    0.261125
   5 C     6.0000    0    12.011   -3.426076    1.442688    1.554445
   6 C     6.0000    0    12.011   -4.330696   -2.121635   -1.447219
   7 O     8.0000    0    15.999    4.272701    1.457368   -1.567732
   8 H     1.0000    0     1.008    1.691246   -0.975561    3.766924
   9 H     1.0000    0     1.008    3.743732   -2.571982    1.651927
  10 H     1.0000    0     1.008    4.783223    0.193598    3.258080
  11 H     1.0000    0     1.008   -0.500372    0.996869   -2.833486
  12 H     1.0000    0     1.008    0.738397   -2.034123   -2.166684
  13 H     1.0000    0     1.008   -1.830643   -2.283526    1.724868
  14 H     1.0000    0     1.008   -5.176771    0.981617    2.558179
  15 H     1.0000    0     1.008   -3.864557    2.904477    0.150315
  16 H     1.0000    0     1.008   -2.112519    2.255818    2.930688
  17 H     1.0000    0     1.008   -6.014960   -2.651595   -0.366698
  18 H     1.0000    0     1.008   -4.919401   -0.803964   -2.935789
  19 H     1.0000    0     1.008   -3.593209   -3.826817   -2.361893
  20 H     1.0000    0     1.008    4.827913   -0.143489   -2.253126

------------------------------------------------------------------------------
                   ___                                                        
                  /   \      - P O W E R E D   B Y -                         
                 /     \                                                     
                 |  |  |   _    _      __       _____    __    __             
                 |  |  |  | |  | |    /  \     |  _  \  |  |  /  |          
                  \  \/   | |  | |   /    \    | | | |  |  | /  /          
                 / \  \   | |__| |  /  /\  \   | |_| |  |  |/  /          
                |  |  |   |  __  | /  /__\  \  |    /   |      \           
                |  |  |   | |  | | |   __   |  |    \   |  |\   \          
                \     /   | |  | | |  |  |  |  | |\  \  |  | \   \       
                 \___/    |_|  |_| |__|  |__|  |_| \__\ |__|  \__/        
                                                                              
                      - O R C A' S   B I G   F R I E N D -                    
                                      &                                       
                       - I N T E G R A L  F E E D E R -                       
                                                                              
 v1 FN, 2020, v2 2021, v3 2022-2024                                           
------------------------------------------------------------------------------


----------------------
SHARK INTEGRAL PACKAGE
----------------------

Number of atoms                             ...     21
Number of basis functions                   ...    208
Number of shells                            ...    106
Maximum angular momentum                    ...      2
Integral batch strategy                     ... SHARK/LIBINT Hybrid
RI-J (if used) integral strategy            ... SPLIT-RIJ (Revised 2003 algorithm where possible)
Printlevel                                  ...      1
Contraction scheme used                     ... SEGMENTED contraction
Prescreening option                         ... SCHWARTZ
   Thresh                                   ... 3.000e-11
   Tcut                                     ... 1.000e-12
   Tpresel                                  ... 1.000e-12 
Coulomb Range Separation                    ... NOT USED
Exchange Range Separation                   ... NOT USED
Multipole approximations                    ... NOT USED
Finite Nucleus Model                        ... NOT USED
CABS basis                                  ... NOT available
Auxiliary Coulomb fitting basis             ... AVAILABLE
   # of basis functions in Aux-J            ...    497
   # of shells in Aux-J                     ...    175
   Maximum angular momentum in Aux-J        ...      4
Auxiliary J/K fitting basis                 ... NOT available
Auxiliary Correlation fitting basis         ... NOT available
Auxiliary 'external' fitting basis          ... NOT available

Checking pre-screening integrals            ... done (  0.0 sec) Dimension = 106
Check shell pair data                       ... done (  0.0 sec)
Shell pair information
Shell pair cut-off parameter TPreSel        ...   1.0e-12
Total number of shell pairs                 ...      5671
Shell pairs after pre-screening             ...      5220
Total number of primitive shell pairs       ...     19699
Primitive shell pairs kept                  ...     13266
          la=0 lb=0:   1840 shell pairs
          la=1 lb=0:   2032 shell pairs
          la=1 lb=1:    581 shell pairs
          la=2 lb=0:    471 shell pairs
          la=2 lb=1:    261 shell pairs
          la=2 lb=2:     35 shell pairs

Calculating one electron integrals          ... done (  0.0 sec)
Calculating RI/J V-Matrix + Cholesky decomp.... done (  0.1 sec)
Calculating Nuclear repulsion               ... done (  0.0 sec) ENN=    332.365722505413 Eh

Diagonalization of the overlap matrix:
Smallest eigenvalue                        ... 1.541e-04
Time for diagonalization                   ...    0.004 sec
Threshold for overlap eigenvalues          ... 1.000e-07
Number of eigenvalues below threshold      ... 0
Time for construction of square roots      ...    0.018 sec
Total time needed                          ...    0.032 sec

-------------------
DFT GRID GENERATION
-------------------

General Integration Accuracy     IntAcc      ... 4.388
Radial Grid Type                 RadialGrid  ... OptM3 with GC (2021)
Angular Grid (max. ang.)         AngularGrid ... 4 (Lebedev-302)
Angular grid pruning method      GridPruning ... 4 (adaptive)
Weight generation scheme         WeightScheme... mBecke (2022)
Basis function cutoff            BFCut       ... 1.0000e-11
Integration weight cutoff        WCut        ... 1.0000e-14
Partially contracted basis set               ... off
Rotationally invariant grid construction     ... off
Angular grids for H and He will be reduced by one unit
Diffuse basis detected: some atoms will have their outermost
                        angular grid increased by 1.

Total number of grid points                  ...    87076
Total number of batches                      ...     1373
Average number of points per batch           ...       63
Average number of grid points per atom       ...     4146
Initializing property integral containers    ... done (  0.1 sec)

SHARK setup successfully completed in   1.3 seconds

Maximum memory used throughout the entire STARTUP-calculation: 38.2 MB
Occupation numbers will be reassigned to an Aufbau configuration
             **** ENERGY FILE WAS UPDATED (xtb_opt.en.tmp) ****
Finished Guess after   0.4 sec
Maximum memory used throughout the entire GUESS-calculation: 14.4 MB
--------------------
CPCM SOLVATION MODEL
--------------------
CPCM parameters:
  Epsilon                                         ...      78.3550
  Refrac                                          ...       1.3328
  Rsolv                                           ...       1.3000
  Surface type                                    ... GAUSSIAN VDW
  Discretization scheme                           ... Constant charge density
    Threshold for H atoms                         ...       5.0000 (charges/Ang^2)
    Threshold for non-H atoms                     ...       5.0000 (charges/Ang^2)
  Epsilon function type                           ...         CPCM
Solvent:                                          ... WATER
SMD-CDS solvent descriptors:
  Soln                                            ...       1.3328
  Soln25                                          ...       1.3323
  Sola                                            ...       0.0000
  Solb                                            ...       0.0000
  Solg                                            ...       0.0000
  Solc                                            ...       0.0000
  Solh                                            ...       0.0000
Radii:
  Scheme                                          ... Element-dependent radii
  Radius for C  used is    3.4960 Bohr (=   1.8500 Ang.)
  Radius for H  used is    2.2677 Bohr (=   1.2000 Ang.)
  Radius for O  used is    2.8724 Bohr (=   1.5200 Ang.)
Calculating surface                               ...        done! (  0.0s)
Cavity surface points                             ...         1526
Cavity Volume                                     ...     856.0657
Cavity Surface-area                               ...     564.2262
Calculating surface distance matrix               ...        done! (  0.0s)
Performing Cholesky decomposition & store         ...        done! (  0.1s)
Overall time for CPCM initialization              ...                 0.2s

----------------------------------------D-I-I-S--------------------------------------------
Iteration    Energy (Eh)           Delta-E    RMSDP     MaxDP     DIISErr   Damp  Time(sec)
-------------------------------------------------------------------------------------------
               ***  Starting incremental Fock matrix formation  ***
                              *** Initializing SOSCF ***
---------------------------------------S-O-S-C-F--------------------------------------
Iteration    Energy (Eh)           Delta-E    RMSDP     MaxDP     MaxGrad    Time(sec)
--------------------------------------------------------------------------------------
    1    -312.2223334263471770     0.00e+00  9.49e-07  2.73e-05  2.29e-06     3.7
               *** Restarting incremental Fock matrix formation ***
    2    -312.2223334281640064    -1.82e-09  1.08e-06  2.71e-05  6.31e-06     3.6
                  *** Gradient check signals convergence ***

               *****************************************************
               *                     SUCCESS                       *
               *           SCF CONVERGED AFTER   2 CYCLES          *
               *****************************************************


SMD CDS free energy correction energy :                 3.71067     Kcal/mol
Total Energy after SMD CDS correction =              -312.216420104 Eh
             **** ENERGY FILE WAS UPDATED (xtb_opt.en.tmp) ****

----------------
TOTAL SCF ENERGY
----------------

Total Energy       :       -312.21642010369266 Eh           -8495.84071 eV

Components:
Nuclear Repulsion  :        332.36572250541258 Eh            9044.13110 eV
Electronic Energy  :       -644.57289902769492 Eh          -17539.72028 eV
One Electron Energy:      -1080.34792124561250 Eh          -29397.76149 eV
Two Electron Energy:        435.77502221791758 Eh           11858.04121 eV
CPCM Dielectric    :         -0.01515690588172 Eh              -0.41244 eV
SMD CDS (Gcds)     :          0.00591332447136 Eh               0.16091 eV

Virial components:
Potential Energy   :       -622.84959728620424 Eh          -16948.59919 eV
Kinetic Energy     :        310.63317718251164 Eh            8452.75848 eV
Virial Ratio       :          2.00509682492882

DFT components:
N(Alpha)           :       29.000069469512 electrons
N(Beta)            :       29.000069469512 electrons
N(Total)           :       58.000138939024 electrons
E(X)               :      -44.463697510815 Eh       
E(C)               :       -1.811462890794 Eh       
E(XC)              :      -46.275160401609 Eh       

CPCM Solvation Model Properties:
Surface-charge          :         -0.05065704600828
Corrected charge        :         -0.00000000000000
Outlying charge corr.   :          0.00020059793778 Eh               0.00546 eV
Free-energy (cav+disp)  :          0.00591332447136 Eh               0.16091 eV

---------------
SCF CONVERGENCE
---------------

  Last Energy change         ...    1.8168e-09  Tolerance :   1.0000e-07
  Last MAX-Density change    ...    2.7100e-05  Tolerance :   1.0000e-07
  Last RMS-Density change    ...    1.0755e-06  Tolerance :   5.0000e-09
  Last DIIS Error            ...    3.2989e-05  Tolerance :   1.0000e-07
  Last Orbital Gradient      ...    6.3124e-06  Tolerance :   1.0000e-04
  Last Orbital Rotation      ...    9.4648e-06  Tolerance :   1.0000e-04


----------------
ORBITAL ENERGIES
----------------

  NO   OCC          E(Eh)            E(eV) 
   0   2.0000     -18.947264      -515.5813 
   1   2.0000     -10.075741      -274.1748 
   2   2.0000     -10.028925      -272.9009 
   3   2.0000     -10.016478      -272.5622 
   4   2.0000     -10.012200      -272.4458 
   5   2.0000     -10.009874      -272.3825 
   6   2.0000     -10.009805      -272.3806 
   7   2.0000      -0.977129       -26.5890 
   8   2.0000      -0.771343       -20.9893 
   9   2.0000      -0.711113       -19.3504 
  10   2.0000      -0.643332       -17.5059 
  11   2.0000      -0.639383       -17.3985 
  12   2.0000      -0.567785       -15.4502 
  13   2.0000      -0.515949       -14.0397 
  14   2.0000      -0.451614       -12.2890 
  15   2.0000      -0.435264       -11.8441 
  16   2.0000      -0.409563       -11.1448 
  17   2.0000      -0.399629       -10.8745 
  18   2.0000      -0.378533       -10.3004 
  19   2.0000      -0.362059        -9.8521 
  20   2.0000      -0.347359        -9.4521 
  21   2.0000      -0.339507        -9.2384 
  22   2.0000      -0.333367        -9.0714 
  23   2.0000      -0.317012        -8.6263 
  24   2.0000      -0.308786        -8.4025 
  25   2.0000      -0.289784        -7.8854 
  26   2.0000      -0.283590        -7.7169 
  27   2.0000      -0.274232        -7.4622 
  28   2.0000      -0.238096        -6.4789 
  29   0.0000       0.080895         2.2013 
  30   0.0000       0.090891         2.4733 
  31   0.0000       0.119914         3.2630 
  32   0.0000       0.122969         3.3461 
  33   0.0000       0.129955         3.5363 
  34   0.0000       0.136945         3.7265 
  35   0.0000       0.142157         3.8683 
  36   0.0000       0.145614         3.9624 
  37   0.0000       0.164325         4.4715 
  38   0.0000       0.170395         4.6367 
  39   0.0000       0.171952         4.6791 
*Only the first 10 virtual orbitals were printed.
Total SCF time: 0 days 0 hours 0 min 7 sec 
Finished LeanSCF after   8.1 sec

Maximum memory used throughout the entire LEANSCF-calculation: 30.4 MB


-------------------------------------------------------------------------------
                          DFT DISPERSION CORRECTION                            
                                                                               
                                DFTD4 V3.4.0                                   
-------------------------------------------------------------------------------
-------------------------   ----------------
Dispersion correction           -0.005594529
-------------------------   ----------------

------------------   -----------------
gCP correction             0.010976219
------------------   -----------------

-------------------------   --------------------
FINAL SINGLE POINT ENERGY      -312.211038412925
-------------------------   --------------------

------------------------------------------------------------------------------
                         ORCA SCF GRADIENT CALCULATION
------------------------------------------------------------------------------

Nuc. rep. gradient        (SHARK) ... done (  0.0 sec)
HCore & Overlap gradient  (SHARK) ... done (  0.3 sec)
Split-RIJ-J gradient      (SHARK) ... done (  1.6 sec)
XC gradient                       ... done (  7.9 sec)
CPCM gradient                     ... done (  1.2 sec)
SMD gradient                      ... done (  0.0 sec)
Dispersion correction             ... done (  0.1 sec)

-------------------
DISPERSION GRADIENT
-------------------

   1   C   :    0.000082607   -0.000021006    0.000056351
   2   C   :    0.000067975    0.000021714    0.000002061
   3   H   :    0.000033288    0.000020094   -0.000001714
   4   C   :    0.000013553   -0.000003323   -0.000040104
   5   C   :   -0.000056448   -0.000017917    0.000001508
   6   C   :   -0.000079757    0.000050092    0.000038870
   7   C   :   -0.000083798   -0.000047674   -0.000041129
   8   O   :    0.000085679    0.000012749   -0.000046758
   9   H   :    0.000033782   -0.000009680    0.000037673
  10   H   :    0.000039770   -0.000015240    0.000018286
  11   H   :    0.000035177   -0.000000966    0.000022527
  12   H   :    0.000003989    0.000011300   -0.000029820
  13   H   :    0.000014169   -0.000013564   -0.000024942
  14   H   :   -0.000024435   -0.000016109    0.000007763
  15   H   :   -0.000036461    0.000014842    0.000021876
  16   H   :   -0.000034445    0.000028010    0.000008085
  17   H   :   -0.000029508    0.000028054    0.000028368
  18   H   :   -0.000032266   -0.000020360   -0.000007233
  19   H   :   -0.000031441   -0.000013079   -0.000020553
  20   H   :   -0.000029183   -0.000031289   -0.000021465
  21   H   :    0.000027753    0.000023354   -0.000009651

Difference to translation invariance:
           :    0.0000000000    0.0000000000   -0.0000000000

Difference to rotation invariance:
           :    0.0000000000    0.0000000000    0.0000000000

Norm of the Dispersion gradient    ...    0.0002761235
RMS gradient                       ...    0.0000347883
MAX gradient                       ...    0.0000856787
gCP correction                   ... done

------------------
CARTESIAN GRADIENT
------------------

   1   C   :    0.000240010   -0.000230402    0.000563724
   2   C   :    0.000657469    0.000749560   -0.000715133
   3   H   :    0.000085091   -0.000053113    0.000008611
   4   C   :   -0.000233393   -0.000095136    0.000044254
   5   C   :    0.000285128    0.000006935    0.000009410
   6   C   :   -0.000111790    0.000078724    0.000048335
   7   C   :   -0.000183561   -0.000067678    0.000031086
   8   O   :   -0.000630533   -0.000639358    0.000422847
   9   H   :    0.000101724   -0.000102417   -0.000238321
  10   H   :    0.000128832    0.000124039    0.000010885
  11   H   :   -0.000353552   -0.000083591   -0.000030987
  12   H   :   -0.000026771    0.000087576    0.000011819
  13   H   :   -0.000026928   -0.000014450   -0.000047328
  14   H   :    0.000007778   -0.000004121    0.000068099
  15   H   :    0.000008781   -0.000003371    0.000041804
  16   H   :   -0.000099369    0.000059231   -0.000090420
  17   H   :    0.000056005    0.000097412    0.000022067
  18   H   :   -0.000048554    0.000024464    0.000046623
  19   H   :   -0.000013542    0.000088359   -0.000128455
  20   H   :    0.000089595   -0.000175988   -0.000025925
  21   H   :    0.000067580    0.000153325   -0.000052995

Difference to translation invariance:
           :    0.0000000000    0.0000000000    0.0000000000

Difference to rotation invariance:
           :   -0.0006564250    0.0003603512   -0.0005945668

Norm of the Cartesian gradient     ...    0.0018794280
RMS gradient                       ...    0.0002367857
MAX gradient                       ...    0.0007495596

-------
TIMINGS
-------

Total SCF gradient time     ....       11.945 sec

Densities                   ....       0.001 sec  (  0.0%)
One electron gradient       ....       0.340 sec  (  2.9%)
RI-J Coulomb gradient       ....       1.590 sec  ( 13.3%)
XC gradient                 ....       7.919 sec  ( 66.3%)
CPCM gradient               ....       1.176 sec  (  9.8%)
   A-Matrix (El+Nuc)        ....       0.082 sec  (  0.7%)
   Potential                ....       1.094 sec  (  9.2%)
SMD gradient                ....       0.014 sec  (  0.1%)

Maximum memory used throughout the entire SCFGRAD-calculation: 34.6 MB

------------------------------------------------------------------------------
                              ORCA PROPERTY CALCULATIONS
------------------------------------------------------------------------------

GBWName                                 ... xtb_opt.gbw
Number of atoms                         ...     21
Number of basis functions               ...    208
Max core memory                         ...   1024 MB

Electric properties:
Dipole moment                           ... YES
Quadrupole moment                       ...  NO
Static polarizability (Dipole/Dipole)   ...  NO
Static polarizability (Dipole/Quad.)    ...  NO
Static polarizability (Quad./Quad.)     ...  NO
Static polarizability (Velocity)        ...  NO

Atomic electric properties:
Dipole moment                           ...  NO
Quadrupole moment                       ...  NO
Static polarizability                   ...  NO

Choice of electric origin               ... Center of mass
Position of electric origin             ...     0.014133    -0.018142    -0.020072

General magnetic properties:
Magnetizability                         ...  NO

EPR properties:
g-Tensor (aka g-matrix)                 ...  NO
Zero-Field splitting spin-orbit         ...  NO
Zero-field splitting spin-spin          ...  NO
Hyperfine couplings                     ...  NO (   0 nuclei)
Quadrupole couplings                    ...  NO (   0 nuclei)
Contact density                         ...  NO (   0 nuclei)

NMR properties:
Chemical shifts                         ...  NO (   0 nuclei)
Spin-rotation constants                 ...  NO (   0 nuclei)
Spin-spin couplings                     ...  NO (   0 nuclei,    0 pairs)

Choice of magnetic origin               ... GIAO
Position of magnetic origin             ...     0.000000     0.000000     0.000000

Properties with geometric perturbations:
SCF Hessian                             ...  NO
IR spectrum                             ...  NO
VCD spectrum                            ...  NO
X-ray spectroscopy properties:
SCF XES/XAS/RIXS spectra                ...  NO


-------------
DIPOLE MOMENT
-------------

Method             : SCF
Type of density    : Electron Density
Multiplicity       :   1
Irrep              :   0
Energy             :  -312.2164201036926556 Eh
Relativity type    : 
Basis              : AO
                                X                 Y                 Z
Electronic contribution:      4.881433566       1.575032225      -1.818954579
Nuclear contribution   :     -5.312311493      -2.435767418       2.112745174
                        -----------------------------------------
Total Dipole Moment    :     -0.430877927      -0.860735193       0.293790595
                        -----------------------------------------
Magnitude (a.u.)       :      1.006396430
Magnitude (Debye)      :      2.558056433



--------------------
Rotational spectrum 
--------------------
 
Rotational constants in cm-1:             0.141162             0.046597             0.043142 
Rotational constants in MHz :          4231.936843          1396.940173          1293.357896 

Dipole components along the rotational axes: 
x,y,z [a.u.] :    -0.583637    -0.117918    -0.811355 
x,y,z [Debye]:    -1.483487    -0.299724    -2.062301 

 

Dipole moment calculation done in   0.0 sec 

Maximum memory used throughout the entire PROP-calculation: 13.1 MB

--------------------------------
SUGGESTED CITATIONS FOR THIS RUN
--------------------------------

Below you find a list of papers that are relevant to this ORCA run
We neither can nor want to force you to cite these papers, but we appreciate if you do
You receive ORCA, which is the product of decades of hard work by many enthusiastic individuals, for free
The only thing we kindly ask in return is that you cite our papers,
We deeply appreciate it, if you show your appreciation for ORCA by not just citing the generic ORCA reference.

Please note that relegating all ORCA citations to the supporting information does *not* help us.
SI sections are not indexed - citations you put there will not count into any citation statistics
But we need these citations in order to attract the funding resources that allow us to do what we are doing

Therefore, if you are a happy ORCA user, please consider citing a few of the papers listed below in the main body of your paper

In addition to the list printed below, the program has created the file xtb_opt.bibtex that contains the list in bibtex format
You can import this file easily into all common literature databanks and citation aid programs


List of essential papers. We consider these as the minimum necessary citations

  1. Neese,F.
     Software update: the ORCA program system, version 5.0
     WIRES Comput. Molec. Sci., 2022 12(1)e1606
     doi.org/10.1002/wcms.1606
  2. Grimme,S.; Hansen,A.; Ehlert,S.; Mewes,J.
     r2SCAN-3c: A 'Swiss army knife' composite electronic-structure method
     J. Chem. Phys., 2021 154 064103
     doi.org/10.1063/5.0040021

List of papers to cite with high priority. The work reported in these papers was absolutely
necessary for this run to complete.
Our perspective: the developers of density functionals and basis sets usually get cited in chemistry papers
Good! But without the algorithms to do something with them, the functionals or basis sets would not do anything.
Hence, in our opinion, the algorithm design and method developments papers are equally worthy of getting cited

  1. Neese,F.
     An improvement of the resolution of the identity approximation for the formation of the Coulomb matrix
     J. Comp. Chem., 2003 24(14)1740-1747
     doi.org/10.1002/jcc.10318
  2. Garcia-Rates,M.; Neese,F.
     Effect of the Solute Cavity on the Solvation Energy and its Derivatives within the Framework of the Gaussian Charge Scheme
     J. Comput. Chem., 2020 41 922-939
     doi.org/10.1002/jcc.26139
  3. Neese,F.
     The SHARK Integral Generation and Digestion System
     J. Comp. Chem., 2022  1-16
     doi.org/10.1002/jcc.26942
  4. Lehtola,S.; Steigemann,C.; Oliveira,M.; Marques,M.
     Recent developments in Libxc - A comprehensive library of functionals for density functional theory
     Software X, 2018 7 
     doi.org/10.1016/j.softx.2017.11.002
  5. Caldeweyher,E.; Bannwarth,C.; Grimme,S.
     Extension of the D3 dispersion coefficient model
     J. Chem. Phys., 2017 147 034112-XXXX
     doi.org/10.1063/1.4993215
  6. Caldeweyher,E.; Ehlert,S.; Hansen,A.; Neugebauer,H.; Spicher,S.; Bannwarth,C.; Grimme,S.
     A generally applicable atomic-charge dependent London dispersion correction
     J. Chem. Phys., 2019 150 154122-XXXX
     doi.org/10.1063/1.5090222
  7. Caldeweyher,E.; Mewes,J.; Ehlert,S.; Grimme,S.
     Extension and evaluation of the D4 London-dispersion model for periodic systems
     Phys. Chem. Chem. Phys., 2020 22(16)8499-8512
     doi.org/10.1039/D0CP00502A

List of suggested additional citations. These are papers that are important in the 'surrounding' of 
of this run, or papers that preceded the highly important papers. If you like your results we are grateful for a citation.

  1. Neese,F.
     The ORCA program system
     WIRES Comput. Molec. Sci., 2012 2(1)73-78
     doi.org/10.1002/wcms.81
  2. Neese,F.
     Software update: the ORCA program system, version 4.0
     WIRES Comput. Molec. Sci., 2018 8(1)1-6
     doi.org/10.1002/wcms.1327
  3. Neese,F.; Wennmohs,F.; Becker,U.; Riplinger,C.
     The ORCA quantum chemistry program package
     J. Chem. Phys., 2020 152 Art. No. L224108
     doi.org/10.1063/5.0004608

List of optional additional citations

  1. Neese,F.
     Approximate second-order SCF convergence for spin unrestricted wavefunctions
     Chem. Phys. Lett., 2000 325(1-3)93-98
     doi.org/10.1016/s0009-2614(00)00662-x

Timings for individual modules:

Sum of individual times          ...       22.118 sec (=   0.369 min)
Startup calculation              ...        1.372 sec (=   0.023 min)   6.2 %
SCF iterations                   ...        8.552 sec (=   0.143 min)  38.7 %
Property calculations            ...        0.141 sec (=   0.002 min)   0.6 %
SCF Gradient evaluation          ...       12.053 sec (=   0.201 min)  54.5 %
                             ****ORCA TERMINATED NORMALLY****
TOTAL RUN TIME: 0 days 0 hours 0 minutes 23 seconds 97 msec
  ------------------------------------------------------------------------
          * successful ORCA run, taking over control again...

         :::::::::::::::::::::::::::::::::::::::::::::::::::::
         ::                  ORCA SUMMARY                   ::
         :::::::::::::::::::::::::::::::::::::::::::::::::::::
         :: total energy            -312.211038412925 Eh    ::
         :: gradient norm              0.001879428016 Eh/a0 ::
         :: HOMO-LUMO gap              0.000000000000 eV    ::
         :::::::::::::::::::::::::::::::::::::::::::::::::::::

      ----------------------------------------------------------- 
     |                       L-ANC optimizer                     |
      ----------------------------------------------------------- 
          low memory version by Sebastian Ehlert

          ...................................................
          :                      SETUP                      :
          :.................................................:
          :   energy convergence        0.5000000E-05 Eh    :
          :   grad. convergence         0.1000000E-02 Eh/a0 :
          :   optimization log               true           :
          :   writing optlog all                1     steps :
          :   Hessian reset                     8     steps :
          :   maximium step len.        1.0000000     a0    :
          :   LBFGS images                      8           :
          ...................................................
 * calculating model hessian...
Using Lindh-Hessian (1995)
 Shifting diagonal of input Hessian by   1.000000000000000E-002
 Lowest  eigenvalues of input Hessian
    0.000000    0.000000    0.000000    0.000000    0.000000    0.000000
    0.011717    0.013778    0.014389    0.018602    0.019355    0.020706
    0.021240    0.023033    0.024932    0.029979    0.033635    0.036703
 Highest eigenvalues
    1.178438    1.193028    1.251793    1.274198    1.290946    1.394018
 

........................................................................
.............................. CYCLE    1 ..............................
........................................................................
                         * ORCA takes the control...
  ------------------------------------------------------------------------

                                 *****************
                                 * O   R   C   A *
                                 *****************

                                            #,                                       
                                            ###                                      
                                            ####                                     
                                            #####                                    
                                            ######                                   
                                           ########,                                 
                                     ,,################,,,,,                         
                               ,,#################################,,                 
                          ,,##########################################,,             
                       ,#########################################, ''#####,          
                    ,#############################################,,   '####,        
                  ,##################################################,,,,####,       
                ,###########''''           ''''###############################       
              ,#####''   ,,,,##########,,,,          '''####'''          '####       
            ,##' ,,,,###########################,,,                        '##       
           ' ,,###''''                  '''############,,,                           
         ,,##''                                '''############,,,,        ,,,,,,###''
      ,#''                                            '''#######################'''  
     '                                                          ''''####''''         
             ,#######,   #######,   ,#######,      ##                                
            ,#'     '#,  ##    ##  ,#'     '#,    #''#        ,####,   ,####,        
            ##       ##  ##   ,#'  ##            #'  '#       #'       #'  '#        
            ##       ##  #######   ##           ,######,      #####,   #    #        
            '#,     ,#'  ##    ##  '#,     ,#' ,#      #,     #,   #   #,  ,#        
             '#######'   ##     ##  '#######'  #'      '#     '####' # '####'        



                #########################################################
                #                        -***-                          #
                #          Department of theory and spectroscopy        #
                #                                                       #
                #                      Frank Neese                      #
                #                                                       #
                #     Directorship, Architecture, Infrastructure        #
                #                    SHARK, DRIVERS                     #
                #        Core code/Algorithms in most modules           #
                #                                                       #
                #        Max Planck Institute fuer Kohlenforschung      #
                #                Kaiser Wilhelm Platz 1                 #
                #                 D-45470 Muelheim/Ruhr                 #
                #                      Germany                          #
                #                                                       #
                #                  All rights reserved                  #
                #                        -***-                          #
                #########################################################


                         Program Version 6.0.0  -   RELEASE  -


 With contributions from (in alphabetic order):
   Daniel Aravena         : Magnetic Suceptibility
   Michael Atanasov       : Ab Initio Ligand Field Theory (pilot matlab implementation)
   Alexander A. Auer      : GIAO ZORA, VPT2 properties, NMR spectrum
   Ute Becker             : All parallelization in ORCA, NUMFREQ, NUMCALC
   Giovanni Bistoni       : ED, misc. LED, open-shell LED, HFLD
   Martin Brehm           : Molecular dynamics
   Dmytro Bykov           : pre 5.0 version of the SCF Hessian
   Marcos Casanova-Páez   : Triplet and SCS-CIS(D). UHF-(DLPNO)-IP/EA/STEOM-CCSD. UHF-CVS-IP/STEOM-CCSD
   Vijay G. Chilkuri      : MRCI spin determinant printing, contributions to CSF-ICE
   Pauline Colinet        : FMM embedding
   Dipayan Datta          : RHF DLPNO-CCSD density
   Achintya Kumar Dutta   : EOM-CC, STEOM-CC
   Nicolas Foglia         : Exact transition moments, OPA infrastructure, MCD improvements
   Dmitry Ganyushin       : Spin-Orbit,Spin-Spin,Magnetic field MRCI
   Miquel Garcia          : C-PCM and meta-GGA Hessian, CCSD/C-PCM, Gaussian charge scheme
   Tiago L. C. Gouveia    : GS-ROHF, GS-ROCIS
   Yang Guo               : DLPNO-NEVPT2, F12-NEVPT2, CIM, IAO-localization
   Andreas Hansen         : Spin unrestricted coupled pair/coupled cluster methods
   Ingolf Harden          : AUTO-CI MPn and infrastructure 
   Benjamin Helmich-Paris : MC-RPA, TRAH-(SCF,CASSCF), AVAS, COSX integrals, SCF dyn. polar.
   Lee Huntington         : MR-EOM, pCC
   Robert Izsak           : Overlap fitted RIJCOSX, COSX-SCS-MP3, EOM
   Riya Kayal             : Wick's Theorem for AUTO-CI, AUTO-CI UHF-CCSDT
   Emily Kempfer          : AUTO-CI, RHF CISDT and CCSDT
   Christian Kollmar      : KDIIS, OOCD, Brueckner-CCSD(T), CCSD density, CASPT2, CASPT2-K, improved NEVPT2
   Axel Koslowski         : Symmetry handling
   Simone Kossmann        : Meta GGA functionals, TD-DFT gradient, OOMP2, (MP2 Hessian; deprecated post 5.0)
   Lucas Lang             : DCDCAS
   Marvin Lechner         : AUTO-CI (C++ implementation), FIC-MRCC
   Spencer Leger          : CASSCF response
   Dagmar Lenk            : GEPOL surface, SMD, ORCA-2-JSON
   Dimitrios Liakos       : Extrapolation schemes; Compound Job, initial MDCI parallelization
   Dimitrios Manganas     : Further ROCIS development; embedding schemes. LFT, Crystal Embedding
   Dimitrios Pantazis     : SARC Basis sets
   Anastasios Papadopoulos: AUTO-CI, single reference methods and gradients
   Taras Petrenko         : pre 6.0 DFT Hessian and TD-DFT gradient, (ASA, deprecated), ECA, 1-Electron XAS/XES, NRVS
   Peter Pinski           : DLPNO-MP2, DLPNO-MP2 Gradient
   Christoph Reimann      : Effective Core Potentials
   Marius Retegan         : Local ZFS, SOC
   Christoph Riplinger    : Optimizer, TS searches, QM/MM, DLPNO-CCSD(T), (RO)-DLPNO pert. Triples
   Michael Roemelt        : Original ROCIS implementation
   Masaaki Saitow         : Open-shell DLPNO-CCSD energy and density
   Barbara Sandhoefer     : DKH picture change effects
   Kantharuban Sivalingam : CASSCF convergence/infrastructure, NEVPT2 and variants, FIC-MRCI
   Bernardo de Souza      : ESD, SOC TD-DFT
   Georgi Stoychev        : AutoAux, RI-MP2 NMR, DLPNO-MP2 response, X2C
   Van Anh Tran           : RI-MP2 g-tensors
   Willem Van den Heuvel  : Paramagnetic NMR
   Zikuan Wang            : NOTCH, Electric field optimization 
   Frank Wennmohs         : Technical directorship and infrastructure
   Hang Xu                : AUTO-CI-Response properties 


 We gratefully acknowledge several colleagues who have allowed us to
 interface, adapt or use parts of their codes:
   Stefan Grimme, W. Hujo, H. Kruse, P. Pracht,  : VdW corrections, initial TS optimization,
                  C. Bannwarth, S. Ehlert,         DFT functionals, gCP, sTDA/sTD-DF
                  L. Wittmann, M. Mueller
   Ed Valeev, F. Pavosevic, A. Kumar             : LibInt (2-el integral package), F12 methods
   Garnet Chan, S. Sharma, J. Yang, R. Olivares  : DMRG
   Ulf Ekstrom                                   : XCFun DFT Library
   Mihaly Kallay                                 : mrcc  (arbitrary order and MRCC methods)
   Frank Weinhold                                : gennbo (NPA and NBO analysis)
   Simon Mueller                                 : openCOSMO-RS
   Christopher J. Cramer and Donald G. Truhlar   : smd solvation model
   Lars Goerigk                                  : TD-DFT with DH, B97 family of functionals
   V. Asgeirsson, H. Jonsson                     : NEB implementation
   FAccTs GmbH                                   : IRC, NEB, NEB-TS, DLPNO-Multilevel, CI-OPT
                                                   MM, QMMM, 2- and 3-layer-ONIOM, Crystal-QMMM,
                                                   LR-CPCM, SF, NACMEs, symmetry and pop. for TD-DFT,
                                                   nearIR, NL-DFT gradient (VV10), updates on ESD,
                                                   ML-optimized integration grids, MBIS, APM,
                                                   GOAT, DOCKER, SOLVATOR, interface openCOSMO-RS
   S Lehtola, MJT Oliveira, MAL Marques          : LibXC Library
   Liviu Ungur et al                             : ANISO software


 Your calculation uses the libint2 library for the computation of 2-el integrals
 For citations please refer to: http://libint.valeyev.net

 Your ORCA version has been built with support for libXC version: 6.2.2
 For citations please refer to: https://libxc.gitlab.io

 This ORCA versions uses:
   CBLAS   interface :  Fast vector & matrix operations
   LAPACKE interface :  Fast linear algebra routines
   SCALAPACK package :  Parallel linear algebra routines
   Shared memory     :  Shared parallel matrices
   BLAS/LAPACK       :  OpenBLAS 0.3.27  USE64BITINT DYNAMIC_ARCH NO_AFFINITY SkylakeX SINGLE_THREADED
        Core in use  :  SkylakeX
   Copyright (c) 2011-2014, The OpenBLAS Project




***************************************
The coordinates will be read from file: xtb_opt.xyz
***************************************


Your calculation utilizes the geometrical counterpoise correction gCP
Please cite in your paper:
H.Kruse, S. Grimme J.Chem.Phys., 136, (2012), 154101 
   

Your calculation utilizes the atom-pairwise dispersion correction
based on EEQ partial charges (D4)


Your calculation utilizes the SMD solvation module
Please cite in your paper:
A.V. Marenich, C.J. Cramer, D.G. Truhlar J. Phys. Chem. B, 113, (2009), 6378 

================================================================================

----- Orbital basis set information -----
Your calculation utilizes the basis: def2-mTZVPP
   Stefan Grimme, Andreas Hansen, Sebastian Ehlert, and Jan-Michael Mewes 
   J. Chem. Phys. 154, 064103 (2021). DOI: 10.1063/5.0040021

----- AuxJ basis set information -----
Your calculation utilizes the auxiliary basis: def2/J
   F. Weigend, Phys. Chem. Chem. Phys. 8, 1057 (2006).

================================================================================
                                        WARNINGS
                       Please study these warnings very carefully!
================================================================================

WARNING: Old DensityContainer found on disk!
         Will remove this file - 
         If you want to keep old densities, please start your calculation with a different basename. 

Using LibXC functional ID 497 : Re-regularized SCAN exchange by Furness et al
[ 1]  J. W. Furness, A. D. Kaplan, J. Ning, J. P. Perdew, and J. Sun.,  J. Phys. Chem. Lett. 11, 8208-8215 (2020)
[ 2]  J. W. Furness, A. D. Kaplan, J. Ning, J. P. Perdew, and J. Sun.,  J. Phys. Chem. Lett. 11, 9248-9248 (2020)
Using LibXC functional ID 498 : Re-regularized SCAN correlation by Furness et al
[ 1]  J. W. Furness, A. D. Kaplan, J. Ning, J. P. Perdew, and J. Sun.,  J. Phys. Chem. Lett. 11, 8208-8215 (2020)
[ 2]  J. W. Furness, A. D. Kaplan, J. Ning, J. P. Perdew, and J. Sun.,  J. Phys. Chem. Lett. 11, 9248-9248 (2020)
Using LibXC functional ID 497 : Re-regularized SCAN exchange by Furness et al
[ 1]  J. W. Furness, A. D. Kaplan, J. Ning, J. P. Perdew, and J. Sun.,  J. Phys. Chem. Lett. 11, 8208-8215 (2020)
[ 2]  J. W. Furness, A. D. Kaplan, J. Ning, J. P. Perdew, and J. Sun.,  J. Phys. Chem. Lett. 11, 9248-9248 (2020)
Using LibXC functional ID 498 : Re-regularized SCAN correlation by Furness et al
[ 1]  J. W. Furness, A. D. Kaplan, J. Ning, J. P. Perdew, and J. Sun.,  J. Phys. Chem. Lett. 11, 8208-8215 (2020)
[ 2]  J. W. Furness, A. D. Kaplan, J. Ning, J. P. Perdew, and J. Sun.,  J. Phys. Chem. Lett. 11, 9248-9248 (2020)

================================================================================
                                       INPUT FILE
================================================================================
NAME = xtb_opt.inp
|  1> ! r2scan-3c def2/J RI DEFGRID2 scfconv7 ENGRAD tightSCF miniprint
|  2> %cpcm
|  3>     smd true
|  4>     smdsolvent "water"
|  5> end
|  6> * xyzfile 0 1 xtb_opt.xyz
|  7> 
|  8>                          ****END OF INPUT****
================================================================================

                     *******************************
                     * Energy+Gradient Calculation *
                     *******************************

---------------------------------
CARTESIAN COORDINATES (ANGSTROEM)
---------------------------------
  C      1.673673   -0.372123    1.238860
  C      1.172965    0.483547    0.086387
  H      0.874888    1.468251    0.463214
  C      0.016772   -0.153266   -0.682780
  C     -1.239088   -0.479101    0.137693
  C     -1.811762    0.762467    0.822700
  C     -2.292065   -1.122226   -0.766254
  O      2.260555    0.773602   -0.829156
  H      0.896417   -0.510482    1.996913
  H      1.975450   -1.362142    0.875292
  H      2.534872    0.101627    1.720017
  H     -0.264019    0.524809   -1.500757
  H      0.391985   -1.078131   -1.145310
  H     -0.969276   -1.209772    0.911815
  H     -2.739468    0.519801    1.352174
  H     -2.041010    1.537270    0.080383
  H     -1.117042    1.190588    1.552365
  H     -3.182870   -1.403518   -0.194333
  H     -2.604287   -0.424228   -1.552625
  H     -1.902541   -2.023692   -1.251680
  H      2.554951   -0.073806   -1.191244

----------------------------
CARTESIAN COORDINATES (A.U.)
----------------------------
  NO LB      ZA    FRAG     MASS         X           Y           Z
   0 C     6.0000    0    12.011    3.162783   -0.703211    2.341106
   1 C     6.0000    0    12.011    2.216583    0.913771    0.163248
   2 H     1.0000    0     1.008    1.653299    2.774592    0.875347
   3 C     6.0000    0    12.011    0.031694   -0.289630   -1.290268
   4 C     6.0000    0    12.011   -2.341537   -0.905370    0.260202
   5 C     6.0000    0    12.011   -3.423733    1.440854    1.554678
   6 C     6.0000    0    12.011   -4.331375   -2.120700   -1.448011
   7 O     8.0000    0    15.999    4.271830    1.461896   -1.566877
   8 H     1.0000    0     1.008    1.693983   -0.964671    3.773618
   9 H     1.0000    0     1.008    3.733059   -2.574075    1.654063
  10 H     1.0000    0     1.008    4.790214    0.192047    3.250362
  11 H     1.0000    0     1.008   -0.498923    0.991745   -2.836019
  12 H     1.0000    0     1.008    0.740744   -2.037372   -2.164322
  13 H     1.0000    0     1.008   -1.831666   -2.286138    1.723081
  14 H     1.0000    0     1.008   -5.176844    0.982282    2.555239
  15 H     1.0000    0     1.008   -3.856951    2.905019    0.151902
  16 H     1.0000    0     1.008   -2.110903    2.249885    2.933544
  17 H     1.0000    0     1.008   -6.014752   -2.652264   -0.367236
  18 H     1.0000    0     1.008   -4.921389   -0.801674   -2.934035
  19 H     1.0000    0     1.008   -3.595281   -3.824223   -2.365332
  20 H     1.0000    0     1.008    4.828157   -0.139472   -2.251125

------------------------------------------------------------------------------
                   ___                                                        
                  /   \      - P O W E R E D   B Y -                         
                 /     \                                                     
                 |  |  |   _    _      __       _____    __    __             
                 |  |  |  | |  | |    /  \     |  _  \  |  |  /  |          
                  \  \/   | |  | |   /    \    | | | |  |  | /  /          
                 / \  \   | |__| |  /  /\  \   | |_| |  |  |/  /          
                |  |  |   |  __  | /  /__\  \  |    /   |      \           
                |  |  |   | |  | | |   __   |  |    \   |  |\   \          
                \     /   | |  | | |  |  |  |  | |\  \  |  | \   \       
                 \___/    |_|  |_| |__|  |__|  |_| \__\ |__|  \__/        
                                                                              
                      - O R C A' S   B I G   F R I E N D -                    
                                      &                                       
                       - I N T E G R A L  F E E D E R -                       
                                                                              
 v1 FN, 2020, v2 2021, v3 2022-2024                                           
------------------------------------------------------------------------------


----------------------
SHARK INTEGRAL PACKAGE
----------------------

Number of atoms                             ...     21
Number of basis functions                   ...    208
Number of shells                            ...    106
Maximum angular momentum                    ...      2
Integral batch strategy                     ... SHARK/LIBINT Hybrid
RI-J (if used) integral strategy            ... SPLIT-RIJ (Revised 2003 algorithm where possible)
Printlevel                                  ...      1
Contraction scheme used                     ... SEGMENTED contraction
Prescreening option                         ... SCHWARTZ
   Thresh                                   ... 3.000e-11
   Tcut                                     ... 1.000e-12
   Tpresel                                  ... 1.000e-12 
Coulomb Range Separation                    ... NOT USED
Exchange Range Separation                   ... NOT USED
Multipole approximations                    ... NOT USED
Finite Nucleus Model                        ... NOT USED
CABS basis                                  ... NOT available
Auxiliary Coulomb fitting basis             ... AVAILABLE
   # of basis functions in Aux-J            ...    497
   # of shells in Aux-J                     ...    175
   Maximum angular momentum in Aux-J        ...      4
Auxiliary J/K fitting basis                 ... NOT available
Auxiliary Correlation fitting basis         ... NOT available
Auxiliary 'external' fitting basis          ... NOT available

Checking pre-screening integrals            ... done (  0.0 sec) Dimension = 106
Check shell pair data                       ... done (  0.0 sec)
Shell pair information
Shell pair cut-off parameter TPreSel        ...   1.0e-12
Total number of shell pairs                 ...      5671
Shell pairs after pre-screening             ...      5220
Total number of primitive shell pairs       ...     19699
Primitive shell pairs kept                  ...     13273
          la=0 lb=0:   1840 shell pairs
          la=1 lb=0:   2032 shell pairs
          la=1 lb=1:    581 shell pairs
          la=2 lb=0:    471 shell pairs
          la=2 lb=1:    261 shell pairs
          la=2 lb=2:     35 shell pairs

Calculating one electron integrals          ... done (  0.0 sec)
Calculating RI/J V-Matrix + Cholesky decomp.... done (  0.1 sec)
Calculating Nuclear repulsion               ... done (  0.0 sec) ENN=    332.392549319943 Eh

Diagonalization of the overlap matrix:
Smallest eigenvalue                        ... 1.541e-04
Time for diagonalization                   ...    0.005 sec
Threshold for overlap eigenvalues          ... 1.000e-07
Number of eigenvalues below threshold      ... 0
Time for construction of square roots      ...    0.016 sec
Total time needed                          ...    0.031 sec

-------------------
DFT GRID GENERATION
-------------------

General Integration Accuracy     IntAcc      ... 4.388
Radial Grid Type                 RadialGrid  ... OptM3 with GC (2021)
Angular Grid (max. ang.)         AngularGrid ... 4 (Lebedev-302)
Angular grid pruning method      GridPruning ... 4 (adaptive)
Weight generation scheme         WeightScheme... mBecke (2022)
Basis function cutoff            BFCut       ... 1.0000e-11
Integration weight cutoff        WCut        ... 1.0000e-14
Partially contracted basis set               ... off
Rotationally invariant grid construction     ... off
Angular grids for H and He will be reduced by one unit
Diffuse basis detected: some atoms will have their outermost
                        angular grid increased by 1.

Total number of grid points                  ...    87080
Total number of batches                      ...     1372
Average number of points per batch           ...       63
Average number of grid points per atom       ...     4147
Initializing property integral containers    ... done (  0.0 sec)

SHARK setup successfully completed in   1.4 seconds

Maximum memory used throughout the entire STARTUP-calculation: 38.2 MB
Occupation numbers will be reassigned to an Aufbau configuration
             **** ENERGY FILE WAS UPDATED (xtb_opt.en.tmp) ****
Finished Guess after   0.4 sec
Maximum memory used throughout the entire GUESS-calculation: 14.4 MB
--------------------
CPCM SOLVATION MODEL
--------------------
CPCM parameters:
  Epsilon                                         ...      78.3550
  Refrac                                          ...       1.3328
  Rsolv                                           ...       1.3000
  Surface type                                    ... GAUSSIAN VDW
  Discretization scheme                           ... Constant charge density
    Threshold for H atoms                         ...       5.0000 (charges/Ang^2)
    Threshold for non-H atoms                     ...       5.0000 (charges/Ang^2)
  Epsilon function type                           ...         CPCM
Solvent:                                          ... WATER
SMD-CDS solvent descriptors:
  Soln                                            ...       1.3328
  Soln25                                          ...       1.3323
  Sola                                            ...       0.0000
  Solb                                            ...       0.0000
  Solg                                            ...       0.0000
  Solc                                            ...       0.0000
  Solh                                            ...       0.0000
Radii:
  Scheme                                          ... Element-dependent radii
  Radius for C  used is    3.4960 Bohr (=   1.8500 Ang.)
  Radius for H  used is    2.2677 Bohr (=   1.2000 Ang.)
  Radius for O  used is    2.8724 Bohr (=   1.5200 Ang.)
Calculating surface                               ...        done! (  0.0s)
Cavity surface points                             ...         1526
Cavity Volume                                     ...     856.0121
Cavity Surface-area                               ...     564.2294
Calculating surface distance matrix               ...        done! (  0.0s)
Performing Cholesky decomposition & store         ...        done! (  0.1s)
Overall time for CPCM initialization              ...                 0.1s

----------------------------------------D-I-I-S--------------------------------------------
Iteration    Energy (Eh)           Delta-E    RMSDP     MaxDP     DIISErr   Damp  Time(sec)
-------------------------------------------------------------------------------------------
               ***  Starting incremental Fock matrix formation  ***
                              *** Initializing SOSCF ***
---------------------------------------S-O-S-C-F--------------------------------------
Iteration    Energy (Eh)           Delta-E    RMSDP     MaxDP     MaxGrad    Time(sec)
--------------------------------------------------------------------------------------
    1    -312.2223284780336030     0.00e+00  3.93e-05  8.11e-04  7.57e-05     3.8
               *** Restarting incremental Fock matrix formation ***
    2    -312.2223398621015917    -1.14e-05  1.91e-05  3.89e-04  7.46e-05     3.8
    3    -312.2223403498324501    -4.88e-07  1.14e-05  3.27e-04  1.23e-04     2.9
    4    -312.2223405518223558    -2.02e-07  6.57e-06  1.58e-04  5.45e-05     2.7
    5    -312.2223406611772702    -1.09e-07  1.07e-06  2.37e-05  6.12e-06     2.7
                  *** Gradient check signals convergence ***

               *****************************************************
               *                     SUCCESS                       *
               *           SCF CONVERGED AFTER   5 CYCLES          *
               *****************************************************


SMD CDS free energy correction energy :                 3.70781     Kcal/mol
Total Energy after SMD CDS correction =              -312.216431884 Eh
             **** ENERGY FILE WAS UPDATED (xtb_opt.en.tmp) ****

----------------
TOTAL SCF ENERGY
----------------

Total Energy       :       -312.21643188383530 Eh           -8495.84103 eV

Components:
Nuclear Repulsion  :        332.39254931994304 Eh            9044.86110 eV
Electronic Energy  :       -644.59971954965397 Eh          -17540.45011 eV
One Electron Energy:      -1080.40125289108892 Eh          -29399.21272 eV
Two Electron Energy:        435.80153334143495 Eh           11858.76261 eV
CPCM Dielectric    :         -0.01517043146637 Eh              -0.41281 eV
SMD CDS (Gcds)     :          0.00590877734198 Eh               0.16079 eV

Virial components:
Potential Energy   :       -622.85041748164906 Eh          -16948.62151 eV
Kinetic Energy     :        310.63398559781376 Eh            8452.78048 eV
Virial Ratio       :          2.00509424711844

DFT components:
N(Alpha)           :       29.000071106671 electrons
N(Beta)            :       29.000071106671 electrons
N(Total)           :       58.000142213342 electrons
E(X)               :      -44.463918660143 Eh       
E(C)               :       -1.811488251673 Eh       
E(XC)              :      -46.275406911816 Eh       

CPCM Solvation Model Properties:
Surface-charge          :         -0.05064916861664
Corrected charge        :          0.00000000000000
Outlying charge corr.   :          0.00020054688547 Eh               0.00546 eV
Free-energy (cav+disp)  :          0.00590877734198 Eh               0.16079 eV

---------------
SCF CONVERGENCE
---------------

  Last Energy change         ...    1.0935e-07  Tolerance :   1.0000e-07
  Last MAX-Density change    ...    2.3661e-05  Tolerance :   1.0000e-07
  Last RMS-Density change    ...    1.0666e-06  Tolerance :   5.0000e-09
  Last DIIS Error            ...    1.2769e-03  Tolerance :   1.0000e-07
  Last Orbital Gradient      ...    6.1196e-06  Tolerance :   1.0000e-04
  Last Orbital Rotation      ...    8.4983e-06  Tolerance :   1.0000e-04


----------------
ORBITAL ENERGIES
----------------

  NO   OCC          E(Eh)            E(eV) 
   0   2.0000     -18.947212      -515.5798 
   1   2.0000     -10.075751      -274.1751 
   2   2.0000     -10.028906      -272.9004 
   3   2.0000     -10.016489      -272.5625 
   4   2.0000     -10.012376      -272.4506 
   5   2.0000     -10.009716      -272.3782 
   6   2.0000     -10.009705      -272.3779 
   7   2.0000      -0.976795       -26.5800 
   8   2.0000      -0.771475       -20.9929 
   9   2.0000      -0.711263       -19.3545 
  10   2.0000      -0.643373       -17.5071 
  11   2.0000      -0.639456       -17.4005 
  12   2.0000      -0.567609       -15.4454 
  13   2.0000      -0.515948       -14.0396 
  14   2.0000      -0.451609       -12.2889 
  15   2.0000      -0.435176       -11.8417 
  16   2.0000      -0.409627       -11.1465 
  17   2.0000      -0.399629       -10.8745 
  18   2.0000      -0.378508       -10.2997 
  19   2.0000      -0.362081        -9.8527 
  20   2.0000      -0.347418        -9.4537 
  21   2.0000      -0.339543        -9.2394 
  22   2.0000      -0.333266        -9.0686 
  23   2.0000      -0.317019        -8.6265 
  24   2.0000      -0.308797        -8.4028 
  25   2.0000      -0.289793        -7.8857 
  26   2.0000      -0.283595        -7.7170 
  27   2.0000      -0.274307        -7.4643 
  28   2.0000      -0.238180        -6.4812 
  29   0.0000       0.080722         2.1966 
  30   0.0000       0.090879         2.4729 
  31   0.0000       0.119795         3.2598 
  32   0.0000       0.122902         3.3443 
  33   0.0000       0.130028         3.5383 
  34   0.0000       0.137095         3.7306 
  35   0.0000       0.142182         3.8690 
  36   0.0000       0.145614         3.9624 
  37   0.0000       0.164427         4.4743 
  38   0.0000       0.170335         4.6350 
  39   0.0000       0.171880         4.6771 
*Only the first 10 virtual orbitals were printed.
Total SCF time: 0 days 0 hours 0 min 16 sec 
Finished LeanSCF after  16.6 sec

Maximum memory used throughout the entire LEANSCF-calculation: 30.4 MB


-------------------------------------------------------------------------------
                          DFT DISPERSION CORRECTION                            
                                                                               
                                DFTD4 V3.4.0                                   
-------------------------------------------------------------------------------
-------------------------   ----------------
Dispersion correction           -0.005595427
-------------------------   ----------------

------------------   -----------------
gCP correction             0.010977554
------------------   -----------------

[...]
  Last Orbital Gradient      ...    4.6300e-05  Tolerance :   1.0000e-04
  Last Orbital Rotation      ...    1.8793e-05  Tolerance :   1.0000e-04


----------------
ORBITAL ENERGIES
----------------

  NO   OCC          E(Eh)            E(eV) 
   0   2.0000     -18.946865      -515.5704 
   1   2.0000     -10.075851      -274.1779 
   2   2.0000     -10.029027      -272.9037 
   3   2.0000     -10.016492      -272.5626 
   4   2.0000     -10.012423      -272.4519 
   5   2.0000     -10.009775      -272.3798 
   6   2.0000     -10.009732      -272.3787 
   7   2.0000      -0.976227       -26.5645 
   8   2.0000      -0.771618       -20.9968 
   9   2.0000      -0.711441       -19.3593 
  10   2.0000      -0.643431       -17.5087 
  11   2.0000      -0.639476       -17.4010 
  12   2.0000      -0.567412       -15.4401 
  13   2.0000      -0.515884       -14.0379 
  14   2.0000      -0.451569       -12.2878 
  15   2.0000      -0.435146       -11.8409 
  16   2.0000      -0.409652       -11.1472 
  17   2.0000      -0.399547       -10.8722 
  18   2.0000      -0.378460       -10.2984 
  19   2.0000      -0.362022        -9.8511 
  20   2.0000      -0.347491        -9.4557 
  21   2.0000      -0.339626        -9.2417 
  22   2.0000      -0.333125        -9.0648 
  23   2.0000      -0.317045        -8.6272 
  24   2.0000      -0.308764        -8.4019 
  25   2.0000      -0.289775        -7.8852 
  26   2.0000      -0.283643        -7.7183 
  27   2.0000      -0.274443        -7.4680 
  28   2.0000      -0.238205        -6.4819 
  29   0.0000       0.080477         2.1899 
  30   0.0000       0.090817         2.4713 
  31   0.0000       0.119645         3.2557 
  32   0.0000       0.122841         3.3427 
  33   0.0000       0.130198         3.5429 
  34   0.0000       0.137525         3.7422 
  35   0.0000       0.142192         3.8693 
  36   0.0000       0.145558         3.9608 
  37   0.0000       0.164736         4.4827 
  38   0.0000       0.170023         4.6266 
  39   0.0000       0.171571         4.6687 
*Only the first 10 virtual orbitals were printed.
Total SCF time: 0 days 0 hours 0 min 10 sec 
Finished LeanSCF after  10.7 sec

Maximum memory used throughout the entire LEANSCF-calculation: 30.4 MB


-------------------------------------------------------------------------------
                          DFT DISPERSION CORRECTION                            
                                                                               
                                DFTD4 V3.4.0                                   
-------------------------------------------------------------------------------
-------------------------   ----------------
Dispersion correction           -0.005597650
-------------------------   ----------------

------------------   -----------------
gCP correction             0.010971477
------------------   -----------------

-------------------------   --------------------
FINAL SINGLE POINT ENERGY      -312.211063923762
-------------------------   --------------------

------------------------------------------------------------------------------
                         ORCA SCF GRADIENT CALCULATION
------------------------------------------------------------------------------

Nuc. rep. gradient        (SHARK) ... done (  0.0 sec)
HCore & Overlap gradient  (SHARK) ... done (  0.3 sec)
Split-RIJ-J gradient      (SHARK) ... done (  1.6 sec)
XC gradient                       ... done (  7.8 sec)
CPCM gradient                     ... done (  1.0 sec)
SMD gradient                      ... done (  0.0 sec)
Dispersion correction             ... done (  0.0 sec)

-------------------
DISPERSION GRADIENT
-------------------

   1   C   :    0.000082551   -0.000020805    0.000056443
   2   C   :    0.000067921    0.000021874    0.000001923
   3   H   :    0.000033115    0.000020119   -0.000001725
   4   C   :    0.000013613   -0.000003654   -0.000040120
   5   C   :   -0.000056311   -0.000018089    0.000001416
   6   C   :   -0.000079563    0.000049963    0.000039013
   7   C   :   -0.000083881   -0.000047537   -0.000041196
   8   O   :    0.000085660    0.000012923   -0.000046612
   9   H   :    0.000033683   -0.000009265    0.000037764
  10   H   :    0.000039833   -0.000015454    0.000018499
  11   H   :    0.000035101   -0.000000939    0.000022209
  12   H   :    0.000004013    0.000011077   -0.000029941
  13   H   :    0.000014280   -0.000013753   -0.000024888
  14   H   :   -0.000024349   -0.000016204    0.000007704
  15   H   :   -0.000036499    0.000014789    0.000021783
  16   H   :   -0.000034419    0.000028134    0.000008127
  17   H   :   -0.000029391    0.000027804    0.000028586
  18   H   :   -0.000032332   -0.000020368   -0.000007261
  19   H   :   -0.000031537   -0.000012956   -0.000020521
  20   H   :   -0.000029141   -0.000031145   -0.000021546
  21   H   :    0.000027654    0.000023486   -0.000009658

Difference to translation invariance:
           :    0.0000000000   -0.0000000000   -0.0000000000

Difference to rotation invariance:
           :    0.0000000000    0.0000000000    0.0000000000

Norm of the Dispersion gradient    ...    0.0002759977
RMS gradient                       ...    0.0000347724
MAX gradient                       ...    0.0000856604
gCP correction                   ... done

------------------
CARTESIAN GRADIENT
------------------

   1   C   :   -0.000038254    0.000218437   -0.000175087
   2   C   :   -0.000327864   -0.000531534    0.000365918
   3   H   :    0.000024767   -0.000020930   -0.000032378
   4   C   :    0.000063606    0.000093484   -0.000058791
   5   C   :   -0.000118830    0.000082167   -0.000010475
   6   C   :    0.000019198   -0.000051274    0.000005660
   7   C   :    0.000089864    0.000020706    0.000034840
   8   O   :    0.000340759    0.000276695   -0.000274208
   9   H   :   -0.000040490   -0.000038678    0.000076625
  10   H   :   -0.000001806   -0.000024994   -0.000065674
  11   H   :    0.000087674    0.000014430    0.000060911
  12   H   :   -0.000013606   -0.000031626   -0.000023000
  13   H   :    0.000027222    0.000005260    0.000035848
  14   H   :   -0.000022053    0.000020754    0.000001318
  15   H   :    0.000005599    0.000038855    0.000027746
  16   H   :   -0.000001430   -0.000017852   -0.000031558
  17   H   :    0.000013517    0.000039766   -0.000040046
  18   H   :   -0.000015073    0.000019860    0.000016806
  19   H   :    0.000008749   -0.000027522    0.000015123
  20   H   :   -0.000038164   -0.000007483    0.000036976
  21   H   :   -0.000063383   -0.000078521    0.000033446

Difference to translation invariance:
           :    0.0000000000    0.0000000000   -0.0000000000

Difference to rotation invariance:
           :   -0.0006368319    0.0004508724   -0.0005835510

Norm of the Cartesian gradient     ...    0.0009884701
RMS gradient                       ...    0.0001245355
MAX gradient                       ...    0.0005315338

-------
TIMINGS
-------

Total SCF gradient time     ....       11.439 sec

Densities                   ....       0.001 sec  (  0.0%)
One electron gradient       ....       0.325 sec  (  2.8%)
RI-J Coulomb gradient       ....       1.555 sec  ( 13.6%)
XC gradient                 ....       7.766 sec  ( 67.9%)
CPCM gradient               ....       0.963 sec  (  8.4%)
   A-Matrix (El+Nuc)        ....       0.077 sec  (  0.7%)
   Potential                ....       0.886 sec  (  7.7%)
SMD gradient                ....       0.014 sec  (  0.1%)

Maximum memory used throughout the entire SCFGRAD-calculation: 34.6 MB

------------------------------------------------------------------------------
                              ORCA PROPERTY CALCULATIONS
------------------------------------------------------------------------------

GBWName                                 ... xtb_opt.gbw
Number of atoms                         ...     21
Number of basis functions               ...    208
Max core memory                         ...   1024 MB

Electric properties:
Dipole moment                           ... YES
Quadrupole moment                       ...  NO
Static polarizability (Dipole/Dipole)   ...  NO
Static polarizability (Dipole/Quad.)    ...  NO
Static polarizability (Quad./Quad.)     ...  NO
Static polarizability (Velocity)        ...  NO

Atomic electric properties:
Dipole moment                           ...  NO
Quadrupole moment                       ...  NO
Static polarizability                   ...  NO

Choice of electric origin               ... Center of mass
Position of electric origin             ...     0.013214    -0.017411    -0.020566

General magnetic properties:
Magnetizability                         ...  NO

EPR properties:
g-Tensor (aka g-matrix)                 ...  NO
Zero-Field splitting spin-orbit         ...  NO
Zero-field splitting spin-spin          ...  NO
Hyperfine couplings                     ...  NO (   0 nuclei)
Quadrupole couplings                    ...  NO (   0 nuclei)
Contact density                         ...  NO (   0 nuclei)

NMR properties:
Chemical shifts                         ...  NO (   0 nuclei)
Spin-rotation constants                 ...  NO (   0 nuclei)
Spin-spin couplings                     ...  NO (   0 nuclei,    0 pairs)

Choice of magnetic origin               ... GIAO
Position of magnetic origin             ...     0.000000     0.000000     0.000000

Properties with geometric perturbations:
SCF Hessian                             ...  NO
IR spectrum                             ...  NO
VCD spectrum                            ...  NO
X-ray spectroscopy properties:
SCF XES/XAS/RIXS spectra                ...  NO


-------------
DIPOLE MOMENT
-------------

Method             : SCF
Type of density    : Electron Density
Multiplicity       :   1
Irrep              :   0
Energy             :  -312.2164377515851470 Eh
Relativity type    : 
Basis              : AO
                                X                 Y                 Z
Electronic contribution:      4.869668534       1.576451524      -1.818806883
Nuclear contribution   :     -5.302475575      -2.441650778       2.118421544
                        -----------------------------------------
Total Dipole Moment    :     -0.432807041      -0.865199253       0.299614661
                        -----------------------------------------
Magnitude (a.u.)       :      1.012749045
Magnitude (Debye)      :      2.574203497



--------------------
Rotational spectrum 
--------------------
 
Rotational constants in cm-1:             0.141236             0.046663             0.043163 
Rotational constants in MHz :          4234.158537          1398.933359          1293.994290 

Dipole components along the rotational axes: 
x,y,z [a.u.] :    -0.587912    -0.125471    -0.815032 
x,y,z [Debye]:    -1.494354    -0.318922    -2.071646 

 

Dipole moment calculation done in   0.0 sec 

Maximum memory used throughout the entire PROP-calculation: 13.1 MB

--------------------------------
SUGGESTED CITATIONS FOR THIS RUN
--------------------------------

Below you find a list of papers that are relevant to this ORCA run
We neither can nor want to force you to cite these papers, but we appreciate if you do
You receive ORCA, which is the product of decades of hard work by many enthusiastic individuals, for free
The only thing we kindly ask in return is that you cite our papers,
We deeply appreciate it, if you show your appreciation for ORCA by not just citing the generic ORCA reference.

Please note that relegating all ORCA citations to the supporting information does *not* help us.
SI sections are not indexed - citations you put there will not count into any citation statistics
But we need these citations in order to attract the funding resources that allow us to do what we are doing

Therefore, if you are a happy ORCA user, please consider citing a few of the papers listed below in the main body of your paper

In addition to the list printed below, the program has created the file xtb_opt.bibtex that contains the list in bibtex format
You can import this file easily into all common literature databanks and citation aid programs


List of essential papers. We consider these as the minimum necessary citations

  1. Neese,F.
     Software update: the ORCA program system, version 5.0
     WIRES Comput. Molec. Sci., 2022 12(1)e1606
     doi.org/10.1002/wcms.1606
  2. Grimme,S.; Hansen,A.; Ehlert,S.; Mewes,J.
     r2SCAN-3c: A 'Swiss army knife' composite electronic-structure method
     J. Chem. Phys., 2021 154 064103
     doi.org/10.1063/5.0040021

List of papers to cite with high priority. The work reported in these papers was absolutely
necessary for this run to complete.
Our perspective: the developers of density functionals and basis sets usually get cited in chemistry papers
Good! But without the algorithms to do something with them, the functionals or basis sets would not do anything.
Hence, in our opinion, the algorithm design and method developments papers are equally worthy of getting cited

  1. Neese,F.
     An improvement of the resolution of the identity approximation for the formation of the Coulomb matrix
     J. Comp. Chem., 2003 24(14)1740-1747
     doi.org/10.1002/jcc.10318
  2. Garcia-Rates,M.; Neese,F.
     Effect of the Solute Cavity on the Solvation Energy and its Derivatives within the Framework of the Gaussian Charge Scheme
     J. Comput. Chem., 2020 41 922-939
     doi.org/10.1002/jcc.26139
  3. Neese,F.
     The SHARK Integral Generation and Digestion System
     J. Comp. Chem., 2022  1-16
     doi.org/10.1002/jcc.26942
  4. Lehtola,S.; Steigemann,C.; Oliveira,M.; Marques,M.
     Recent developments in Libxc - A comprehensive library of functionals for density functional theory
     Software X, 2018 7 
     doi.org/10.1016/j.softx.2017.11.002
  5. Caldeweyher,E.; Bannwarth,C.; Grimme,S.
     Extension of the D3 dispersion coefficient model
     J. Chem. Phys., 2017 147 034112-XXXX
     doi.org/10.1063/1.4993215
  6. Caldeweyher,E.; Ehlert,S.; Hansen,A.; Neugebauer,H.; Spicher,S.; Bannwarth,C.; Grimme,S.
     A generally applicable atomic-charge dependent London dispersion correction
     J. Chem. Phys., 2019 150 154122-XXXX
     doi.org/10.1063/1.5090222
  7. Caldeweyher,E.; Mewes,J.; Ehlert,S.; Grimme,S.
     Extension and evaluation of the D4 London-dispersion model for periodic systems
     Phys. Chem. Chem. Phys., 2020 22(16)8499-8512
     doi.org/10.1039/D0CP00502A

List of suggested additional citations. These are papers that are important in the 'surrounding' of 
of this run, or papers that preceded the highly important papers. If you like your results we are grateful for a citation.

  1. Neese,F.
     The ORCA program system
     WIRES Comput. Molec. Sci., 2012 2(1)73-78
     doi.org/10.1002/wcms.81
  2. Neese,F.
     Software update: the ORCA program system, version 4.0
     WIRES Comput. Molec. Sci., 2018 8(1)1-6
     doi.org/10.1002/wcms.1327
  3. Neese,F.; Wennmohs,F.; Becker,U.; Riplinger,C.
     The ORCA quantum chemistry program package
     J. Chem. Phys., 2020 152 Art. No. L224108
     doi.org/10.1063/5.0004608

List of optional additional citations

  1. Neese,F.
     Approximate second-order SCF convergence for spin unrestricted wavefunctions
     Chem. Phys. Lett., 2000 325(1-3)93-98
     doi.org/10.1016/s0009-2614(00)00662-x

Timings for individual modules:

Sum of individual times          ...       23.880 sec (=   0.398 min)
Startup calculation              ...        1.221 sec (=   0.020 min)   5.1 %
SCF iterations                   ...       11.004 sec (=   0.183 min)  46.1 %
Property calculations            ...        0.115 sec (=   0.002 min)   0.5 %
SCF Gradient evaluation          ...       11.541 sec (=   0.192 min)  48.3 %
                             ****ORCA TERMINATED NORMALLY****
TOTAL RUN TIME: 0 days 0 hours 0 minutes 24 seconds 758 msec
  ------------------------------------------------------------------------
          * successful ORCA run, taking over control again...

         :::::::::::::::::::::::::::::::::::::::::::::::::::::
         ::                  ORCA SUMMARY                   ::
         :::::::::::::::::::::::::::::::::::::::::::::::::::::
         :: total energy            -312.211063923762 Eh    ::
         :: gradient norm              0.000988470144 Eh/a0 ::
         :: HOMO-LUMO gap              0.000000000000 eV    ::
         :::::::::::::::::::::::::::::::::::::::::::::::::::::

           -------------------------------------------------
          |                Property Printout                |
           -------------------------------------------------
           -------------------------------------------------
          |                Geometry Summary                 |
           -------------------------------------------------

      molecular mass/u    :      102.1749908
   center of mass at/Å    :        0.0070114      -0.0092069      -0.0108897
  moments of inertia/u·Å² :        0.1193543E+03   0.3612545E+03   0.3905510E+03
rotational constants/cm⁻¹ :        0.1412403E+00   0.4666414E-01   0.4316371E-01

 * 19 selected distances

     #   Z          #   Z                                           value/Å
     1   6 C        2   6 C                                       1.5195741
     2   6 C        3   1 H                                       1.0955825
     2   6 C        4   6 C                                       1.5270078
     4   6 C        5   6 C                                       1.5354227 (max)
     5   6 C        6   6 C                                       1.5291738
     5   6 C        7   6 C                                       1.5293277
     1   6 C        9   1 H                                       1.0946625
     1   6 C       10   1 H                                       1.0969970
     1   6 C       11   1 H                                       1.0943926
     4   6 C       12   1 H                                       1.0989175
     4   6 C       13   1 H                                       1.1000225
     5   6 C       14   1 H                                       1.0982389
     6   6 C       15   1 H                                       1.0954057
     6   6 C       16   1 H                                       1.0972721
     6   6 C       17   1 H                                       1.0946988
     7   6 C       18   1 H                                       1.0953788
     7   6 C       19   1 H                                       1.0968766
     7   6 C       20   1 H                                       1.0954955
     8   8 O       21   1 H                                       0.9673824 (min)

 * 3 distinct bonds (by element types)

   Z      Z             #   av. dist./Å        max./Å        min./Å
   1 H    6 C          13     1.0964570     1.1000225     1.0943926
   6 C    6 C           5     1.5281012     1.5354227     1.5195741
   1 H    8 O           1     0.9673824     0.9673824     0.9673824


optimized geometry written to: xtbopt.coord


           -------------------------------------------------
          | TOTAL ENERGY             -312.211063923762 Eh   |
          | GRADIENT NORM               0.000988470144 Eh/α |
           -------------------------------------------------

------------------------------------------------------------------------
 * finished run on 2025/04/11 at 12:16:36.629     
------------------------------------------------------------------------
 total:
 * wall-time:     0 d,  0 h,  2 min, 14.798 sec
 *  cpu-time:     0 d,  0 h,  0 min,  0.875 sec
 * ratio c/w:     0.006 speedup
 SCF:
 * wall-time:     0 d,  0 h,  0 min, 23.166 sec
 *  cpu-time:     0 d,  0 h,  0 min,  0.112 sec
 * ratio c/w:     0.005 speedup
 ANC optimizer:
 * wall-time:     0 d,  0 h,  1 min, 51.524 sec
 *  cpu-time:     0 d,  0 h,  0 min,  0.707 sec
 * ratio c/w:     0.006 speedup

