      -----------------------------------------------------------      
     |                   =====================                   |     
     |                           x T B                           |     
     |                   =====================                   |     
     |                         S. Grimme                         |     
     |          Mulliken Center for Theoretical Chemistry        |     
     |                    University of Bonn                     |     
      -----------------------------------------------------------      

   * xtb version 6.7.1 (edcfbbe) compiled by 'albert@albert-system' on 2024-07-22

   xtb is free software: you can redistribute it and/or modify it under
   the terms of the GNU Lesser General Public License as published by
   the Free Software Foundation, either version 3 of the License, or
   (at your option) any later version.
   
   xtb is distributed in the hope that it will be useful,
   but WITHOUT ANY WARRANTY; without even the implied warranty of
   MERCHANTABILITY or FITNESS FOR A PARTICULAR PURPOSE.  See the
   GNU Lesser General Public License for more details.
   
   Cite this work as:
   * C. Bannwarth, E. Caldeweyher, S. Ehlert, A. Hansen, P. Pracht,
     J. Seibert, S. Spicher, S. Grimme, WIREs Comput. Mol. Sci., 2020, 11,
     e01493. DOI: 10.1002/wcms.1493
   
   for GFN2-xTB:
   * C. Bannwarth, S. Ehlert and S. Grimme., J. Chem. Theory Comput., 2019,
     15, 1652-1671. DOI: 10.1021/acs.jctc.8b01176
   for GFN1-xTB:
   * S. Grimme, C. Bannwarth, P. Shushkov, J. Chem. Theory Comput., 2017,
     13, 1989-2009. DOI: 10.1021/acs.jctc.7b00118
   for GFN0-xTB:
   * P. Pracht, E. Caldeweyher, S. Ehlert, S. Grimme, ChemRxiv, 2019, preprint.
     DOI: 10.26434/chemrxiv.8326202.v1
   for GFN-FF:
   * S. Spicher and S. Grimme, Angew. Chem. Int. Ed., 2020, 59, 15665-15673.
     DOI: 10.1002/anie.202004239
   
   for ALPB and GBSA implicit solvation:
   * S. Ehlert, M. Stahn, S. Spicher, S. Grimme, J. Chem. Theory Comput.,
     2021, 17, 4250-4261. DOI: 10.1021/acs.jctc.1c00471
   
   for ddCOSMO and CPCM-X implicit solvation:
   * M. Stahn, S. Ehlert, S. Grimme, J. Phys. Chem. A,
     2023, XX, XXXX-XXXX. DOI: 10.1021/acs.jpca.3c04382
   
   for DFT-D4:
   * E. Caldeweyher, C. Bannwarth and S. Grimme, J. Chem. Phys., 2017,
     147, 034112. DOI: 10.1063/1.4993215
   * E. Caldeweyher, S. Ehlert, A. Hansen, H. Neugebauer, S. Spicher,
     C. Bannwarth and S. Grimme, J. Chem. Phys., 2019, 150, 154122.
     DOI: 10.1063/1.5090222
   * E. Caldeweyher, J.-M. Mewes, S. Ehlert and S. Grimme, Phys. Chem. Chem. Phys.
     2020, 22, 8499-8512. DOI: 10.1039/D0CP00502A
   
   for sTDA-xTB:
   * S. Grimme and C. Bannwarth, J. Chem. Phys., 2016, 145, 054103.
     DOI: 10.1063/1.4959605
   
   in the mass-spec context:
   * V. Asgeirsson, C. Bauer and S. Grimme, Chem. Sci., 2017, 8, 4879.
     DOI: 10.1039/c7sc00601b
   * J. Koopman and S. Grimme, ACS Omega 2019, 4, 12, 15120-15133.
     DOI: 10.1021/acsomega.9b02011
   
   for metadynamics refer to:
   * S. Grimme, J. Chem. Theory Comput., 2019, 155, 2847-2862
     DOI: 10.1021/acs.jctc.9b00143
   
   for SPH calculations refer to:
   * S. Spicher and S. Grimme, J. Chem. Theory Comput., 2021, 17, 1701-1714
     DOI: 10.1021/acs.jctc.0c01306
   
   for ONIOM refer to:
   * C. Plett, A. Katbashev, S. Ehlert, S. Grimme, M. Bursch,
     Phys. Chem. Chem. Phys., 2023, 25, 17860-17868. DOI: 10.1039/D3CP02178E
   
   for DIPRO refer to:
   * J. Kohn, N. Gildemeister, S. Grimme, D. Fazzi, A. Hansen,
     J. Chem. Phys., 2023, just accepted.
   
   for PTB refer to:
   * S. Grimme, M. Mueller, A. Hansen, J. Chem. Phys., 2023, 158, 124111.
     DOI: 10.1063/5.0137838
   
   with help from (in alphabetical order)
   P. Atkinson, C. Bannwarth, F. Bohle, G. Brandenburg, E. Caldeweyher
   M. Checinski, S. Dohm, S. Ehlert, S. Ehrlich, I. Gerasimov, C. Hölzer
   A. Katbashev, J. Kohn, J. Koopman, C. Lavigne, S. Lehtola, F. März, M. Müller,
   F. Musil, H. Neugebauer, J. Pisarek, C. Plett, P. Pracht, F. Pultar,
   J. Seibert, P. Shushkov, S. Spicher, M. Stahn, M. Steiner, T. Strunk,
   J. Stückrath, T. Rose, and J. Unsleber
   
 * started run on 2025/04/11 at 11:13:54.775     
   ID    Z sym.   atoms
    1    6 C      1, 2, 5-11
    2    8 O      3, 4, 12, 13
    3    1 H      14-21

           -------------------------------------------------
          |                Calculation Setup                |
           -------------------------------------------------

          program call               : /srv/scratch/z5358697/.xtb/bin/xtb solv.coord --gfn2 --sp --chrg 0 --norestart --parallel 1 --alpb water reference -I xtb_sp-xcontrol-inp
          hostname                   : k063
          coordinate file            : solv.coord
          omp threads                :                     1


           -------------------------------------------------
          |                 G F N 2 - x T B                 |
           -------------------------------------------------

        Reference                      10.1021/acs.jctc.8b01176
      * Hamiltonian:
        H0-scaling (s, p, d)           1.850000    2.230000    2.230000
        zeta-weighting                 0.500000
      * Dispersion:
        s8                             2.700000
        a1                             0.520000
        a2                             5.000000
        s9                             5.000000
      * Repulsion:
        kExp                           1.500000    1.000000
        rExp                           1.000000
      * Coulomb:
        alpha                          2.000000
        third order                    shell-resolved
        anisotropic                    true
        a3                             3.000000
        a5                             4.000000
        cn-shift                       1.200000
        cn-exp                         4.000000
        max-rad                        5.000000

      * Solvation model:               ALPB
        Solvent                        water
        Parameter file                 internal GFN2-xTB/ALPB
        Dielectric constant                8.0200E+01
        Reference state                gsolv=reference [X=1]
        Free energy shift                  2.8945E-03 Eh       1.8164E+00 kcal/mol
        Temperature                        2.9815E+02 K
        Density                            1.0000E+00 kg/L
        Solvent mass                       1.8000E+01 g/mol
        Interaction kernel             P16
        Born radius scaling (c1)           1.4744E+00
        Born radii integrator          GBOBC
        Born offset                        0.0000E+00 a0       0.0000E+00 AA
        H-bond correction              true
        Ion screening                  false
        Surface tension                    1.0000E-05 Eh       1.5569E+01 dyn/cm
        Grid points                               974 per atom

          ...................................................
          :                      SETUP                      :
          :.................................................:
          :  # basis functions                  60          :
          :  # atomic orbitals                  60          :
          :  # shells                           34          :
          :  # electrons                        68          :
          :  max. iterations                   250          :
          :  Hamiltonian                  GFN2-xTB          :
          :  restarted?                      false          :
          :  GBSA solvation                   true          :
          :  PC potential                    false          :
          :  electronic temp.          300.0000000     K    :
          :  accuracy                    1.0000000          :
          :  -> integral cutoff          0.2500000E+02      :
          :  -> integral neglect         0.1000000E-07      :
          :  -> SCF convergence          0.1000000E-05 Eh   :
          :  -> wf. convergence          0.1000000E-03 e    :
          :  Broyden damping             0.4000000          :
          :  net charge                          0          :
          :  unpaired electrons                  0          :
          ...................................................

 iter      E             dE          RMSdq      gap      omega  full diag
   1    -40.0550276 -0.400550E+02  0.539E+00    3.66       0.0  T
   2    -40.1254598 -0.704322E-01  0.287E+00    3.60       1.0  T
   3    -40.1259054 -0.445579E-03  0.140E+00    3.73       1.0  T
   4    -40.1326674 -0.676199E-02  0.286E-01    3.71       1.0  T
   5    -40.1335088 -0.841451E-03  0.964E-02    3.68       1.0  T
   6    -40.1335628 -0.539490E-04  0.430E-02    3.67       1.0  T
   7    -40.1335655 -0.268617E-05  0.172E-02    3.67       1.3  T
   8    -40.1335675 -0.206805E-05  0.477E-03    3.67       4.6  T
   9    -40.1335677 -0.163177E-06  0.207E-03    3.67      10.5  T
  10    -40.1335677 -0.204070E-07  0.830E-04    3.67      26.3  T
  11    -40.1335677 -0.355517E-08  0.287E-04    3.67      76.0  T

   *** convergence criteria satisfied after 11 iterations ***

         #    Occupation            Energy/Eh            Energy/eV
      -------------------------------------------------------------
         1        2.0000           -0.7601536             -20.6848
       ...           ...                  ...                  ...
        28        2.0000           -0.4794441             -13.0463
        29        2.0000           -0.4592801             -12.4976
        30        2.0000           -0.4467400             -12.1564
        31        2.0000           -0.4383624             -11.9284
        32        2.0000           -0.4321749             -11.7601
        33        2.0000           -0.4252079             -11.5705
        34        2.0000           -0.4194261             -11.4132 (HOMO)
        35                         -0.2845716              -7.7436 (LUMO)
        36                         -0.2531862              -6.8895
        37                         -0.2335049              -6.3540
        38                         -0.2073899              -5.6434
        39                         -0.1087060              -2.9580
       ...                                ...                  ...
        60                          0.6550172              17.8239
      -------------------------------------------------------------
                  HL-Gap            0.1348544 Eh            3.6696 eV
             Fermi-level           -0.3519989 Eh           -9.5784 eV

 SCC (total)                   0 d,  0 h,  0 min,  0.030 sec
 SCC setup                      ...        0 min,  0.001 sec (  4.993%)
 Dispersion                     ...        0 min,  0.000 sec (  0.525%)
 classical contributions        ...        0 min,  0.000 sec (  0.094%)
 integral evaluation            ...        0 min,  0.003 sec (  9.754%)
 iterations                     ...        0 min,  0.017 sec ( 56.044%)
 molecular gradient             ...        0 min,  0.008 sec ( 27.988%)
 printout                       ...        0 min,  0.000 sec (  0.549%)

         :::::::::::::::::::::::::::::::::::::::::::::::::::::
         ::                     SUMMARY                     ::
         :::::::::::::::::::::::::::::::::::::::::::::::::::::
         :: total energy             -39.647314365081 Eh    ::
         :: total w/o Gsasa/hb       -39.642093761487 Eh    ::
         :: gradient norm              0.000080596585 Eh/a0 ::
         :: HOMO-LUMO gap              3.669575611732 eV    ::
         ::.................................................::
         :: SCC energy               -40.133489166662 Eh    ::
         :: -> isotropic ES            0.124348814393 Eh    ::
         :: -> anisotropic ES         -0.007222138081 Eh    ::
         :: -> anisotropic XC          0.006683130862 Eh    ::
         :: -> dispersion             -0.019323754520 Eh    ::
         :: -> Gsolv                  -0.026366601188 Eh    ::
         ::    -> Gelec               -0.021145997595 Eh    ::
         ::    -> Gsasa                0.003199122085 Eh    ::
         ::    -> Ghb                 -0.011314274839 Eh    ::
         ::    -> Gshift               0.002894549160 Eh    ::
         :: repulsion energy           0.486174801581 Eh    ::
         :: add. restraining           0.000000000000 Eh    ::
         :: total charge               0.000000000000 e     ::
         :::::::::::::::::::::::::::::::::::::::::::::::::::::

           -------------------------------------------------
          |                Property Printout                |
           -------------------------------------------------

    * Orbital Energies and Occupations

         #    Occupation            Energy/Eh            Energy/eV
      -------------------------------------------------------------
         1        2.0000           -0.7601536             -20.6848
       ...           ...                  ...                  ...
        22        2.0000           -0.5062085             -13.7746
        23        2.0000           -0.4995028             -13.5922
        24        2.0000           -0.4940133             -13.4428
        25        2.0000           -0.4844320             -13.1821
        26        2.0000           -0.4827211             -13.1355
        27        2.0000           -0.4802926             -13.0694
        28        2.0000           -0.4794441             -13.0463
        29        2.0000           -0.4592801             -12.4976
        30        2.0000           -0.4467400             -12.1564
        31        2.0000           -0.4383624             -11.9284
        32        2.0000           -0.4321749             -11.7601
        33        2.0000           -0.4252079             -11.5705
        34        2.0000           -0.4194261             -11.4132 (HOMO)
        35                         -0.2845716              -7.7436 (LUMO)
        36                         -0.2531862              -6.8895
        37                         -0.2335049              -6.3540
        38                         -0.2073899              -5.6434
        39                         -0.1087060              -2.9580
        40                          0.0123271               0.3354
        41                          0.0548542               1.4927
        42                          0.1236933               3.3659
        43                          0.1320128               3.5923
        44                          0.1498706               4.0782
        45                          0.1627683               4.4292
       ...                                ...                  ...
        60                          0.6550172              17.8239
      -------------------------------------------------------------
                  HL-Gap            0.1348544 Eh            3.6696 eV
             Fermi-level           -0.3519989 Eh           -9.5784 eV

     #   Z          covCN         q      C6AA      α(0)
     1   6 C        3.755    -0.175    23.979     6.982
     2   6 C        2.711     0.377    20.606     7.431
     3   8 O        0.856    -0.484    23.441     6.491
     4   8 O        1.709    -0.249    18.117     5.747
     5   6 C        2.871     0.151    24.732     8.152
     6   6 C        2.918    -0.048    29.195     8.860
     7   6 C        2.921    -0.024    28.601     8.770
     8   6 C        2.917    -0.033    28.814     8.802
     9   6 C        2.928    -0.022    28.550     8.763
    10   6 C        2.968    -0.032    28.789     8.801
    11   6 C        2.697     0.374    20.656     7.439
    12   8 O        0.857    -0.487    23.507     6.500
    13   8 O        1.659    -0.420    21.245     6.222
    14   1 H        0.925     0.097     1.811     2.105
    15   1 H        0.925     0.115     1.658     2.014
    16   1 H        0.925     0.119     1.618     1.989
    17   1 H        0.926     0.087     1.913     2.163
    18   1 H        0.926     0.087     1.911     2.162
    19   1 H        0.926     0.081     1.970     2.195
    20   1 H        0.926     0.071     2.079     2.255
    21   1 H        0.803     0.416     0.456     1.061

 Mol. C6AA /au·bohr⁶  :       5520.806962
 Mol. C8AA /au·bohr⁸  :     132468.678795
 Mol. α(0) /au        :        114.903575


Wiberg/Mayer (AO) data.
largest (>0.10) Wiberg bond orders for each atom

 ---------------------------------------------------------------------------
     #   Z sym  total        # sym  WBO       # sym  WBO       # sym  WBO
 ---------------------------------------------------------------------------
     1   6 C    3.977 --     2 C    1.007    14 H    0.977    15 H    0.956
                            16 H    0.943
     2   6 C    3.894 --     3 O    1.708     4 O    1.109     1 C    1.007
     3   8 O    1.988 --     2 C    1.708     4 O    0.155
     4   8 O    2.354 --     2 C    1.109     5 C    0.974     3 O    0.155
     5   6 C    3.921 --     6 C    1.398    10 C    1.350     4 O    0.974
     6   6 C    3.983 --     7 C    1.442     5 C    1.398    17 H    0.962
                             9 C    0.106
     7   6 C    3.984 --     6 C    1.442     8 C    1.424    18 H    0.964
                            10 C    0.101
     8   6 C    3.986 --     9 C    1.458     7 C    1.424    19 H    0.965
     9   6 C    3.984 --     8 C    1.458    10 C    1.378    20 H    0.965
                             6 C    0.106
    10   6 C    3.986 --     9 C    1.378     5 C    1.350    11 C    1.008
                             7 C    0.101
    11   6 C    3.911 --    12 O    1.684    13 O    1.164    10 C    1.008
    12   8 O    1.971 --    11 C    1.684    13 O    0.168
    13   8 O    2.177 --    11 C    1.164    21 H    0.803    12 O    0.168
    14   1 H    0.990 --     1 C    0.977
    15   1 H    0.987 --     1 C    0.956
    16   1 H    0.985 --     1 C    0.943
    17   1 H    0.992 --     6 C    0.962
    18   1 H    0.991 --     7 C    0.964
    19   1 H    0.993 --     8 C    0.965
    20   1 H    0.995 --     9 C    0.965
    21   1 H    0.826 --    13 O    0.803
 ---------------------------------------------------------------------------

Topologies differ in total number of bonds
Writing topology from bond orders to xtbtopo.mol

molecular dipole:
                 x           y           z       tot (Debye)
 q only:        0.333       1.477      -1.676
   full:        0.145       1.346      -1.718       5.558
molecular quadrupole (traceless):
                xx          xy          yy          xz          yz          zz
 q only:       16.034       3.036      -4.399       9.904       4.526     -11.635
  q+dip:       15.129       3.902      -0.788      10.288       5.196     -14.342
   full:       14.430       3.373      -2.043       9.241       6.707     -12.387


           -------------------------------------------------
          | TOTAL ENERGY              -39.647314365081 Eh   |
          | GRADIENT NORM               0.000080596585 Eh/α |
          | HOMO-LUMO GAP               3.669575611732 eV   |
           -------------------------------------------------

------------------------------------------------------------------------
 * finished run on 2025/04/11 at 11:13:54.850     
------------------------------------------------------------------------
 total:
 * wall-time:     0 d,  0 h,  0 min,  0.074 sec
 *  cpu-time:     0 d,  0 h,  0 min,  0.038 sec
 * ratio c/w:     0.517 speedup
 SCF:
 * wall-time:     0 d,  0 h,  0 min,  0.030 sec
 *  cpu-time:     0 d,  0 h,  0 min,  0.024 sec
 * ratio c/w:     0.814 speedup

