21
 energy: -312.210841876394 gnorm: 0.001519063010 xtb: 6.7.1 (edcfbbe)
C            1.56998339302606        0.68573491216794        1.24378897268859
C            1.19417532435690        0.37668480774995       -0.19599316084469
H            0.93682418674145        1.31166385615482       -0.71396855445916
C            0.04521465523588       -0.61527828835853       -0.32279647732649
C           -1.27239542802247       -0.19303298211766        0.34033411561881
C           -1.78567536412783        1.14436319263597       -0.19557215421499
C           -2.32206598920113       -1.28615790687544        0.13290410055347
O            2.31697256566224       -0.23186878678042       -0.89034269852789
H            0.77013140844548        1.23851631200516        1.74572936657706
H            1.75639102971862       -0.23932120969937        1.80025813287498
H            2.47349067729882        1.30357851737863        1.27832504087743
H           -0.14022416141198       -0.79311148424234       -1.39102470106180
H            0.37523634949592       -1.56878652407811        0.11142817882879
H           -1.10079117779699       -0.09087293566527        1.42031099298355
H           -2.76298253576677        1.38282018278364        0.23706044231346
H           -1.90095592056867        1.10146131259199       -1.28539126469130
H           -1.10847488512279        1.97088938794786        0.04002497600509
H           -1.97635199949903       -2.24948988475036        0.52263969422787
H           -3.25917211246431       -1.03180311682601        0.63893434274575
H           -2.53958436499869       -1.41238895148080       -0.93441091974434
H            3.05069043949526        0.39425488947653       -0.84450244469276
21
 energy: -312.210845649108 gnorm: 0.000349239323 xtb: 6.7.1 (edcfbbe)
C            1.56935719719139        0.68628325048072        1.24290604420922
C            1.19447221442966        0.37626699209287       -0.19656179792209
H            0.93721932557390        1.31106245112960       -0.71520813739154
C            0.04541183152443       -0.61517557163646       -0.32328351081313
C           -1.27197710585028       -0.19288381153451        0.34027869272838
C           -1.78572853939079        1.14478866096108       -0.19462540603994
C           -2.32156693787478       -1.28603095638957        0.13276414788156
O            2.31726340713490       -0.23370644364868       -0.88848469389755
H            0.76893708474307        1.23836708297662        1.74568714069612
H            1.75746367144190       -0.23828644975211        1.80048351578553
H            2.47214670751262        1.30606060838156        1.27713793242058
H           -0.14086666670601       -0.79320721384555       -1.39169576218962
H            0.37503271198740       -1.56947451173771        0.11040644175718
H           -1.10003568783903       -0.09114824610546        1.42044342482986
H           -2.76367067231430        1.38286388022267        0.23785222673276
H           -1.90130356884356        1.10301830252800       -1.28495201990043
H           -1.10933198774976        1.97250290761643        0.04098460639481
H           -1.97538291051087       -2.25010193198887        0.52123130802292
H           -3.25889397522951       -1.03292423167217        0.63979031062811
H           -2.54046577590998       -1.41197512983664       -0.93476507199269
H            3.05235574868569        0.39155618176448       -0.84265314911206
21
 energy: -312.210845649108 gnorm: 0.000349239323 xtb: 6.7.1 (edcfbbe)
C            1.56935719719139        0.68628325048072        1.24290604420922
C            1.19447221442966        0.37626699209287       -0.19656179792209
H            0.93721932557390        1.31106245112960       -0.71520813739154
C            0.04541183152443       -0.61517557163646       -0.32328351081313
C           -1.27197710585028       -0.19288381153451        0.34027869272838
C           -1.78572853939079        1.14478866096108       -0.19462540603994
C           -2.32156693787478       -1.28603095638957        0.13276414788156
O            2.31726340713490       -0.23370644364868       -0.88848469389755
H            0.76893708474307        1.23836708297662        1.74568714069612
H            1.75746367144190       -0.23828644975211        1.80048351578553
H            2.47214670751262        1.30606060838156        1.27713793242058
H           -0.14086666670601       -0.79320721384555       -1.39169576218962
H            0.37503271198740       -1.56947451173771        0.11040644175718
H           -1.10003568783903       -0.09114824610546        1.42044342482986
H           -2.76367067231430        1.38286388022267        0.23785222673276
H           -1.90130356884356        1.10301830252800       -1.28495201990043
H           -1.10933198774976        1.97250290761643        0.04098460639481
H           -1.97538291051087       -2.25010193198887        0.52123130802292
H           -3.25889397522951       -1.03292423167217        0.63979031062811
H           -2.54046577590998       -1.41197512983664       -0.93476507199269
H            3.05235574868569        0.39155618176448       -0.84265314911206
