14
 energy: -344.748243771861 gnorm: 0.001327694000 xtb: 6.7.1 (edcfbbe)
C           -1.07712630351220       -0.55531918784387       -0.17198485449476
C            0.01320297786537        0.17564198218674        0.59656808011389
C            1.31756077885136       -0.61059382102859        0.65025859193732
O            1.87664815594798       -0.86081653601992       -0.64925921363683
O            0.21022433300178        1.49471832152750        0.05047881439065
O           -2.31647245466112        0.16770511024303       -0.15360186426704
H           -1.27072719722996       -1.52439959409676        0.29862470343990
H           -0.75216644063723       -0.73122700428894       -1.20810906637257
H           -0.32193231642107        0.33408126781446        1.62926536795420
H            1.12847586329783       -1.58835188987924        1.10656480882498
H            2.03789429901933       -0.07166436536244        1.27872612566393
H            2.30473320228625       -0.04708743067921       -0.94542168073294
H            0.45316522034746        1.39265581200160       -0.88127102845284
H           -2.13111832299533        1.04302490553047       -0.52173477632539
14
 energy: -344.748247949530 gnorm: 0.000462344492 xtb: 6.7.1 (edcfbbe)
C           -1.07650940993433       -0.55532374351681       -0.17235054484394
C            0.01371027892043        0.17558735679053        0.59591068441897
C            1.31776742510725       -0.61078315278268        0.65125952931219
O            1.87863042254332       -0.86046606419791       -0.64800760121711
O            0.21135072368176        1.49443183521874        0.04833381307080
O           -2.31670976808989        0.16695507613835       -0.15162082275464
H           -1.26995984977243       -1.52474582715212        0.29728034451207
H           -0.75385006694440       -0.72928325871278       -1.20915244311628
H           -0.32237620058126        0.33608937370346        1.62783191652756
H            1.12738033662246       -1.58904659666328        1.10565759833829
H            2.03779339742200       -0.07269366181330        1.28073483220817
H            2.30385841601099       -0.04591229429512       -0.94441429040161
H            0.45387005570899        1.39108136936041       -0.88346470320149
H           -2.13259387901151        1.04247707708903       -0.51889431371597
14
 energy: -344.748247949530 gnorm: 0.000462344492 xtb: 6.7.1 (edcfbbe)
C           -1.07650940993433       -0.55532374351681       -0.17235054484394
C            0.01371027892043        0.17558735679053        0.59591068441897
C            1.31776742510725       -0.61078315278268        0.65125952931219
O            1.87863042254332       -0.86046606419791       -0.64800760121711
O            0.21135072368176        1.49443183521874        0.04833381307080
O           -2.31670976808989        0.16695507613835       -0.15162082275464
H           -1.26995984977243       -1.52474582715212        0.29728034451207
H           -0.75385006694440       -0.72928325871278       -1.20915244311628
H           -0.32237620058126        0.33608937370346        1.62783191652756
H            1.12738033662246       -1.58904659666328        1.10565759833829
H            2.03779339742200       -0.07269366181330        1.28073483220817
H            2.30385841601099       -0.04591229429512       -0.94441429040161
H            0.45387005570899        1.39108136936041       -0.88346470320149
H           -2.13259387901151        1.04247707708903       -0.51889431371597
