      -----------------------------------------------------------      
     |                   =====================                   |     
     |                           x T B                           |     
     |                   =====================                   |     
     |                         S. Grimme                         |     
     |          Mulliken Center for Theoretical Chemistry        |     
     |                    University of Bonn                     |     
      -----------------------------------------------------------      

   * xtb version 6.7.1 (edcfbbe) compiled by 'albert@albert-system' on 2024-07-22

   xtb is free software: you can redistribute it and/or modify it under
   the terms of the GNU Lesser General Public License as published by
   the Free Software Foundation, either version 3 of the License, or
   (at your option) any later version.
   
   xtb is distributed in the hope that it will be useful,
   but WITHOUT ANY WARRANTY; without even the implied warranty of
   MERCHANTABILITY or FITNESS FOR A PARTICULAR PURPOSE.  See the
   GNU Lesser General Public License for more details.
   
   Cite this work as:
   * C. Bannwarth, E. Caldeweyher, S. Ehlert, A. Hansen, P. Pracht,
     J. Seibert, S. Spicher, S. Grimme, WIREs Comput. Mol. Sci., 2020, 11,
     e01493. DOI: 10.1002/wcms.1493
   
   for GFN2-xTB:
   * C. Bannwarth, S. Ehlert and S. Grimme., J. Chem. Theory Comput., 2019,
     15, 1652-1671. DOI: 10.1021/acs.jctc.8b01176
   for GFN1-xTB:
   * S. Grimme, C. Bannwarth, P. Shushkov, J. Chem. Theory Comput., 2017,
     13, 1989-2009. DOI: 10.1021/acs.jctc.7b00118
   for GFN0-xTB:
   * P. Pracht, E. Caldeweyher, S. Ehlert, S. Grimme, ChemRxiv, 2019, preprint.
     DOI: 10.26434/chemrxiv.8326202.v1
   for GFN-FF:
   * S. Spicher and S. Grimme, Angew. Chem. Int. Ed., 2020, 59, 15665-15673.
     DOI: 10.1002/anie.202004239
   
   for ALPB and GBSA implicit solvation:
   * S. Ehlert, M. Stahn, S. Spicher, S. Grimme, J. Chem. Theory Comput.,
     2021, 17, 4250-4261. DOI: 10.1021/acs.jctc.1c00471
   
   for ddCOSMO and CPCM-X implicit solvation:
   * M. Stahn, S. Ehlert, S. Grimme, J. Phys. Chem. A,
     2023, XX, XXXX-XXXX. DOI: 10.1021/acs.jpca.3c04382
   
   for DFT-D4:
   * E. Caldeweyher, C. Bannwarth and S. Grimme, J. Chem. Phys., 2017,
     147, 034112. DOI: 10.1063/1.4993215
   * E. Caldeweyher, S. Ehlert, A. Hansen, H. Neugebauer, S. Spicher,
     C. Bannwarth and S. Grimme, J. Chem. Phys., 2019, 150, 154122.
     DOI: 10.1063/1.5090222
   * E. Caldeweyher, J.-M. Mewes, S. Ehlert and S. Grimme, Phys. Chem. Chem. Phys.
     2020, 22, 8499-8512. DOI: 10.1039/D0CP00502A
   
   for sTDA-xTB:
   * S. Grimme and C. Bannwarth, J. Chem. Phys., 2016, 145, 054103.
     DOI: 10.1063/1.4959605
   
   in the mass-spec context:
   * V. Asgeirsson, C. Bauer and S. Grimme, Chem. Sci., 2017, 8, 4879.
     DOI: 10.1039/c7sc00601b
   * J. Koopman and S. Grimme, ACS Omega 2019, 4, 12, 15120-15133.
     DOI: 10.1021/acsomega.9b02011
   
   for metadynamics refer to:
   * S. Grimme, J. Chem. Theory Comput., 2019, 155, 2847-2862
     DOI: 10.1021/acs.jctc.9b00143
   
   for SPH calculations refer to:
   * S. Spicher and S. Grimme, J. Chem. Theory Comput., 2021, 17, 1701-1714
     DOI: 10.1021/acs.jctc.0c01306
   
   for ONIOM refer to:
   * C. Plett, A. Katbashev, S. Ehlert, S. Grimme, M. Bursch,
     Phys. Chem. Chem. Phys., 2023, 25, 17860-17868. DOI: 10.1039/D3CP02178E
   
   for DIPRO refer to:
   * J. Kohn, N. Gildemeister, S. Grimme, D. Fazzi, A. Hansen,
     J. Chem. Phys., 2023, just accepted.
   
   for PTB refer to:
   * S. Grimme, M. Mueller, A. Hansen, J. Chem. Phys., 2023, 158, 124111.
     DOI: 10.1063/5.0137838
   
   with help from (in alphabetical order)
   P. Atkinson, C. Bannwarth, F. Bohle, G. Brandenburg, E. Caldeweyher
   M. Checinski, S. Dohm, S. Ehlert, S. Ehrlich, I. Gerasimov, C. Hölzer
   A. Katbashev, J. Kohn, J. Koopman, C. Lavigne, S. Lehtola, F. März, M. Müller,
   F. Musil, H. Neugebauer, J. Pisarek, C. Plett, P. Pracht, F. Pultar,
   J. Seibert, P. Shushkov, S. Spicher, M. Stahn, M. Steiner, T. Strunk,
   J. Stückrath, T. Rose, and J. Unsleber
   
 * started run on 2025/04/11 at 10:47:59.672     
   ID    Z sym.   atoms
    1    6 C      1-6
    2    1 H      7-18

           -------------------------------------------------
          |                Calculation Setup                |
           -------------------------------------------------

          program call               : /srv/scratch/z5358697/.xtb/bin/xtb xtb_rrho.coord --gfn2 --ohess vtight --chrg 0 --enso --norestart -I rrho-xcontrol-inp --parallel 1 --alpb water
          hostname                   : k112
          coordinate file            : xtb_rrho.coord
          omp threads                :                     1


           -------------------------------------------------
          |                 G F N 2 - x T B                 |
           -------------------------------------------------

        Reference                      10.1021/acs.jctc.8b01176
      * Hamiltonian:
        H0-scaling (s, p, d)           1.850000    2.230000    2.230000
        zeta-weighting                 0.500000
      * Dispersion:
        s8                             2.700000
        a1                             0.520000
        a2                             5.000000
        s9                             5.000000
      * Repulsion:
        kExp                           1.500000    1.000000
        rExp                           1.000000
      * Coulomb:
        alpha                          2.000000
        third order                    shell-resolved
        anisotropic                    true
        a3                             3.000000
        a5                             4.000000
        cn-shift                       1.200000
        cn-exp                         4.000000
        max-rad                        5.000000

      * Solvation model:               ALPB
        Solvent                        water
        Parameter file                 internal GFN2-xTB/ALPB
        Dielectric constant                8.0200E+01
        Reference state                gsolv [1 M gas/solution]
        Free energy shift                  1.0808E-03 Eh       6.7819E-01 kcal/mol
        Temperature                        2.9815E+02 K
        Density                            1.0000E+00 kg/L
        Solvent mass                       1.8000E+01 g/mol
        Interaction kernel             P16
        Born radius scaling (c1)           1.4744E+00
        Born radii integrator          GBOBC
        Born offset                        0.0000E+00 a0       0.0000E+00 AA
        H-bond correction              true
        Ion screening                  false
        Surface tension                    1.0000E-05 Eh       1.5569E+01 dyn/cm
        Grid points                               974 per atom

          ...................................................
          :                      SETUP                      :
          :.................................................:
          :  # basis functions                  36          :
          :  # atomic orbitals                  36          :
          :  # shells                           24          :
          :  # electrons                        36          :
          :  max. iterations                   250          :
          :  Hamiltonian                  GFN2-xTB          :
          :  restarted?                      false          :
          :  GBSA solvation                   true          :
          :  PC potential                    false          :
          :  electronic temp.          300.0000000     K    :
          :  accuracy                    1.0000000          :
          :  -> integral cutoff          0.2500000E+02      :
          :  -> integral neglect         0.1000000E-07      :
          :  -> SCF convergence          0.1000000E-05 Eh   :
          :  -> wf. convergence          0.1000000E-03 e    :
          :  Broyden damping             0.4000000          :
          :  net charge                          0          :
          :  unpaired electrons                  0          :
          ...................................................

 iter      E             dE          RMSdq      gap      omega  full diag
   1    -19.2139936 -0.192140E+02  0.289E+00    5.25       0.0  T
   2    -19.2381306 -0.241370E-01  0.172E+00    5.14       1.0  T
   3    -19.2351845  0.294612E-02  0.960E-01    5.21       1.0  T
   4    -19.2417286 -0.654409E-02  0.361E-01    5.11       1.0  T
   5    -19.2424864 -0.757878E-03  0.601E-02    5.12       1.0  T
   6    -19.2424899 -0.348813E-05  0.315E-02    5.12       1.0  T
   7    -19.2424912 -0.125125E-05  0.688E-03    5.12       3.4  T
   8    -19.2424913 -0.136661E-06  0.127E-03    5.12      18.6  T
   9    -19.2424913 -0.105856E-08  0.702E-04    5.12      33.6  T
  10    -19.2424913 -0.816211E-09  0.124E-04    5.12     190.0  T

   *** convergence criteria satisfied after 10 iterations ***

         #    Occupation            Energy/Eh            Energy/eV
      -------------------------------------------------------------
         1        2.0000           -0.6228954             -16.9498
       ...           ...                  ...                  ...
        12        2.0000           -0.4585233             -12.4771
        13        2.0000           -0.4457770             -12.1302
        14        2.0000           -0.4392272             -11.9520
        15        2.0000           -0.4351796             -11.8418
        16        2.0000           -0.4237103             -11.5297
        17        2.0000           -0.4161261             -11.3234
        18        2.0000           -0.3822776             -10.4023 (HOMO)
        19                         -0.1940168              -5.2795 (LUMO)
        20                          0.0884459               2.4067
        21                          0.0983996               2.6776
        22                          0.1079678               2.9380
        23                          0.1275070               3.4696
       ...                                ...                  ...
        36                          0.6031042              16.4113
      -------------------------------------------------------------
                  HL-Gap            0.1882607 Eh            5.1228 eV
             Fermi-level           -0.2881472 Eh           -7.8409 eV

 SCC (total)                   0 d,  0 h,  0 min,  0.012 sec
 SCC setup                      ...        0 min,  0.001 sec ( 10.242%)
 Dispersion                     ...        0 min,  0.000 sec (  0.847%)
 classical contributions        ...        0 min,  0.000 sec (  0.307%)
 integral evaluation            ...        0 min,  0.001 sec ( 10.093%)
 iterations                     ...        0 min,  0.006 sec ( 46.092%)
 molecular gradient             ...        0 min,  0.004 sec ( 30.784%)
 printout                       ...        0 min,  0.000 sec (  1.472%)

         :::::::::::::::::::::::::::::::::::::::::::::::::::::
         ::                     SUMMARY                     ::
         :::::::::::::::::::::::::::::::::::::::::::::::::::::
         :: total energy             -18.941145987705 Eh    ::
         :: total w/o Gsasa/hb       -18.940689089707 Eh    ::
         :: gradient norm              0.024697513897 Eh/a0 ::
         :: HOMO-LUMO gap              5.122835340711 eV    ::
         ::.................................................::
         :: SCC energy               -19.242444952007 Eh    ::
         :: -> isotropic ES            0.004934182523 Eh    ::
         :: -> anisotropic ES          0.006305007838 Eh    ::
         :: -> anisotropic XC          0.013719208570 Eh    ::
         :: -> dispersion             -0.010801497637 Eh    ::
         :: -> Gsolv                  -0.000845763988 Eh    ::
         ::    -> Gelec               -0.000388865990 Eh    ::
         ::    -> Gsasa               -0.001026264400 Eh    ::
         ::    -> Ghb                 -0.000511393297 Eh    ::
         ::    -> Gshift               0.001080759698 Eh    ::
         :: repulsion energy           0.301298964302 Eh    ::
         :: add. restraining           0.000000000000 Eh    ::
         :: total charge               0.000000000000 e     ::
         :::::::::::::::::::::::::::::::::::::::::::::::::::::

      ----------------------------------------------------------- 
     |                   =====================                   |
     |                        A N C O P T                        |
     |                   =====================                   |
     |               Approximate Normal Coordinate               |
     |                Rational Function Optimizer                |
      ----------------------------------------------------------- 
      ----------------------------------------------------------- 
     |                   =====================                   |
     |                        A N C O P T                        |
     |                   =====================                   |
     |               Approximate Normal Coordinate               |
     |                Rational Function Optimizer                |
      ----------------------------------------------------------- 

          ...................................................
          :                      SETUP                      :
          :.................................................:
          :   optimization level         verytight          :
          :   max. optcycles                   360          :
          :   ANC micro-cycles                  20          :
          :   degrees of freedom                48          :
          :.................................................:
          :   RF solver                   davidson          :
          :   write xtbopt.log                true          :
          :   linear?                        false          :
          :   energy convergence         0.1000000E-06 Eh   :
          :   grad. convergence          0.2000000E-03 Eh/α :
          :   maxmium RF displ.          1.0000000          :
          :   Hlow (freq-cutoff)         0.1000000E-01      :
          :   Hmax (freq-cutoff)         5.0000000          :
          :   S6 in model hess.         20.0000000          :
          ...................................................

generating ANC from exact Hessian ...
Using Lindh-Hessian (1995)
 Shifting diagonal of input Hessian by   8.235884687923056E-003
 Lowest  eigenvalues of input Hessian
    0.000000    0.000000    0.000000    0.000000    0.000000    0.000000
    0.010000    0.011019    0.013013    0.016639    0.018581    0.019344
    0.022840    0.026782    0.029130    0.039210    0.050382    0.058173
 Highest eigenvalues
    1.139428    1.181839    1.205915    1.245518    1.487294    1.860018
 

........................................................................
.............................. CYCLE    1 ..............................
........................................................................

 iter      E             dE          RMSdq      gap      omega  full diag
   1    -19.2424913 -0.192425E+02  0.757E-05    5.12       0.0  T
   2    -19.2424913 -0.657963E-11  0.461E-05    5.12     511.6  T
   3    -19.2424913 -0.587974E-11  0.382E-05    5.12     616.3  T
     SCC iter.                  ...        0 min,  0.001 sec
     gradient                   ...        0 min,  0.004 sec
 * total energy  :   -18.9411460 Eh     change       -0.1760725E-10 Eh
   gradient norm :     0.0246972 Eh/α   predicted     0.0000000E+00 (-100.00%)
   displ. norm   :     0.1030736 α      lambda       -0.1341022E-02
   maximum displ.:     0.0429564 α      in ANC's #19, #32, #1, ...

........................................................................
.............................. CYCLE    2 ..............................
........................................................................

 iter      E             dE          RMSdq      gap      omega  full diag
   1    -19.2562246 -0.192562E+02  0.891E-02    5.25       0.0  T
   2    -19.2562302 -0.569732E-05  0.513E-02    5.24       1.0  T
   3    -19.2562262  0.409807E-05  0.231E-02    5.24       1.0  T
   4    -19.2562313 -0.519528E-05  0.464E-03    5.24       5.1  T
   5    -19.2562315 -0.202474E-06  0.188E-03    5.24      12.5  T
   6    -19.2562316 -0.497998E-08  0.721E-04    5.24      32.7  T
   7    -19.2562316 -0.961894E-09  0.148E-04    5.24     159.6  T
     SCC iter.                  ...        0 min,  0.002 sec
     gradient                   ...        0 min,  0.004 sec
 * total energy  :   -18.9419497 Eh     change       -0.8036640E-03 Eh
   gradient norm :     0.0067926 Eh/α   predicted    -0.6776360E-03 ( -15.68%)
   displ. norm   :     0.0593611 α      lambda       -0.1299062E-03
   maximum displ.:     0.0433875 α      in ANC's #1, #4, #3, ...

........................................................................
.............................. CYCLE    3 ..............................
........................................................................

 iter      E             dE          RMSdq      gap      omega  full diag
   1    -19.2599945 -0.192600E+02  0.362E-02    5.27       0.0  T
   2    -19.2599951 -0.659634E-06  0.209E-02    5.27       1.1  T
   3    -19.2599952 -0.445503E-07  0.311E-03    5.27       7.6  T
   4    -19.2599952 -0.126043E-07  0.109E-03    5.27      21.6  T
   5    -19.2599952 -0.713457E-08  0.791E-04    5.27      29.8  T
   6    -19.2599952 -0.298639E-08  0.278E-04    5.27      84.8  T
     SCC iter.                  ...        0 min,  0.002 sec
     gradient                   ...        0 min,  0.003 sec
 * total energy  :   -18.9420167 Eh     change       -0.6703351E-04 Eh
   gradient norm :     0.0018622 Eh/α   predicted    -0.6518251E-04 (  -2.76%)
   displ. norm   :     0.0733342 α      lambda       -0.3745898E-04
   maximum displ.:     0.0565084 α      in ANC's #1, #3, #8, ...

........................................................................
.............................. CYCLE    4 ..............................
........................................................................

 iter      E             dE          RMSdq      gap      omega  full diag
   1    -19.2607212 -0.192607E+02  0.335E-02    5.27       0.0  T
   2    -19.2607214 -0.160486E-06  0.199E-02    5.27       1.2  T
   3    -19.2607211  0.284996E-06  0.494E-03    5.27       4.8  T
   4    -19.2607214 -0.339421E-06  0.979E-04    5.27      24.1  T
   5    -19.2607214 -0.659256E-08  0.432E-04    5.27      54.6  T
     SCC iter.                  ...        0 min,  0.002 sec
     gradient                   ...        0 min,  0.003 sec
 * total energy  :   -18.9420377 Eh     change       -0.2103767E-04 Eh
   gradient norm :     0.0025495 Eh/α   predicted    -0.1877477E-04 ( -10.76%)
   displ. norm   :     0.0416139 α      lambda       -0.2587851E-04
   maximum displ.:     0.0322218 α      in ANC's #1, #3, #4, ...

........................................................................
.............................. CYCLE    5 ..............................
........................................................................

 iter      E             dE          RMSdq      gap      omega  full diag
   1    -19.2599671 -0.192600E+02  0.169E-02    5.27       0.0  T
   2    -19.2599672 -0.280460E-07  0.998E-03    5.27       2.4  T
   3    -19.2599670  0.117269E-06  0.314E-03    5.27       7.5  T
   4    -19.2599672 -0.136446E-06  0.325E-04    5.27      72.5  T
   5    -19.2599672 -0.267121E-09  0.172E-04    5.27     137.2  T
     SCC iter.                  ...        0 min,  0.002 sec
     gradient                   ...        0 min,  0.003 sec
 * total energy  :   -18.9420595 Eh     change       -0.2179507E-04 Eh
   gradient norm :     0.0018624 Eh/α   predicted    -0.1296031E-04 ( -40.54%)
   displ. norm   :     0.1293548 α      lambda       -0.3811744E-04
   maximum displ.:     0.0948748 α      in ANC's #1, #3, #6, ...

........................................................................
.............................. CYCLE    6 ..............................
........................................................................

 iter      E             dE          RMSdq      gap      omega  full diag
   1    -19.2583294 -0.192583E+02  0.482E-02    5.26       0.0  T
   2    -19.2583296 -0.202771E-06  0.284E-02    5.26       1.0  T
   3    -19.2583293  0.247547E-06  0.483E-03    5.26       4.9  T
   4    -19.2583297 -0.310820E-06  0.103E-03    5.26      22.9  T
   5    -19.2583297 -0.643577E-08  0.473E-04    5.26      49.8  T
   6    -19.2583297 -0.148134E-09  0.130E-04    5.26     180.8  T
     SCC iter.                  ...        0 min,  0.002 sec
     gradient                   ...        0 min,  0.003 sec
 * total energy  :   -18.9420941 Eh     change       -0.3460655E-04 Eh
   gradient norm :     0.0018381 Eh/α   predicted    -0.1919980E-04 ( -44.52%)
   displ. norm   :     0.0815094 α      lambda       -0.1584987E-04
   maximum displ.:     0.0629539 α      in ANC's #1, #3, #4, ...

........................................................................
.............................. CYCLE    7 ..............................
........................................................................

 iter      E             dE          RMSdq      gap      omega  full diag
   1    -19.2586637 -0.192587E+02  0.259E-02    5.26       0.0  T
   2    -19.2586637 -0.226137E-07  0.153E-02    5.26       1.5  T
   3    -19.2586637 -0.575292E-08  0.663E-04    5.26      35.6  T
   4    -19.2586637 -0.224505E-08  0.362E-04    5.26      65.1  T
     SCC iter.                  ...        0 min,  0.001 sec
     gradient                   ...        0 min,  0.003 sec
 * total energy  :   -18.9421145 Eh     change       -0.2037840E-04 Eh
   gradient norm :     0.0014467 Eh/α   predicted    -0.7949457E-05 ( -60.99%)
   displ. norm   :     0.1112072 α      lambda       -0.2083699E-04
   maximum displ.:     0.0895210 α      in ANC's #1, #3, #4, ...

........................................................................
.............................. CYCLE    8 ..............................
........................................................................

 iter      E             dE          RMSdq      gap      omega  full diag
   1    -19.2594245 -0.192594E+02  0.367E-02    5.26       0.0  T
   2    -19.2594245 -0.480441E-07  0.217E-02    5.26       1.1  T
   3    -19.2594246 -0.103737E-07  0.847E-04    5.26      27.8  T
   4    -19.2594246 -0.300421E-08  0.521E-04    5.26      45.2  T
     SCC iter.                  ...        0 min,  0.001 sec
     gradient                   ...        0 min,  0.003 sec
 * total energy  :   -18.9421372 Eh     change       -0.2266440E-04 Eh
   gradient norm :     0.0005345 Eh/α   predicted    -0.1047450E-04 ( -53.78%)
   displ. norm   :     0.0960344 α      lambda       -0.1022016E-04
   maximum displ.:     0.0798828 α      in ANC's #1, #4, #3, ...

........................................................................
.............................. CYCLE    9 ..............................
........................................................................

 iter      E             dE          RMSdq      gap      omega  full diag
   1    -19.2597012 -0.192597E+02  0.287E-02    5.26       0.0  T
   2    -19.2597012 -0.292765E-07  0.170E-02    5.26       1.4  T
   3    -19.2597012  0.202554E-07  0.153E-03    5.26      15.4  T
   4    -19.2597012 -0.310621E-07  0.481E-04    5.26      49.0  T
   5    -19.2597012 -0.119942E-08  0.230E-04    5.26     102.6  T
     SCC iter.                  ...        0 min,  0.002 sec
     gradient                   ...        0 min,  0.003 sec
 * total energy  :   -18.9421482 Eh     change       -0.1106681E-04 Eh
   gradient norm :     0.0004980 Eh/α   predicted    -0.5132302E-05 ( -53.62%)
   displ. norm   :     0.0491894 α      lambda       -0.4562040E-05
   maximum displ.:     0.0434670 α      in ANC's #1, #4, #2, ...

........................................................................
.............................. CYCLE   10 ..............................
........................................................................

 iter      E             dE          RMSdq      gap      omega  full diag
   1    -19.2597831 -0.192598E+02  0.166E-02    5.26       0.0  T
   2    -19.2597832 -0.107926E-07  0.977E-03    5.26       2.4  T
   3    -19.2597831  0.311585E-07  0.162E-03    5.26      14.5  T
   4    -19.2597832 -0.375605E-07  0.225E-04    5.26     104.7  T
   5    -19.2597832 -0.108717E-09  0.118E-04    5.26     199.7  T
     SCC iter.                  ...        0 min,  0.002 sec
     gradient                   ...        0 min,  0.003 sec
 * total energy  :   -18.9421539 Eh     change       -0.5670268E-05 Eh
   gradient norm :     0.0003915 Eh/α   predicted    -0.2282980E-05 ( -59.74%)
   displ. norm   :     0.0316616 α      lambda       -0.2803789E-05
   maximum displ.:     0.0287809 α      in ANC's #1, #2, #4, ...

........................................................................
.............................. CYCLE   11 ..............................
........................................................................

 iter      E             dE          RMSdq      gap      omega  full diag
   1    -19.2596991 -0.192597E+02  0.102E-02    5.26       0.0  T
   2    -19.2596991 -0.366750E-08  0.601E-03    5.26       3.9  T
   3    -19.2596991  0.178303E-07  0.120E-03    5.26      19.6  T
   4    -19.2596991 -0.209111E-07  0.136E-04    5.26     172.8  T
   5    -19.2596991 -0.105516E-10  0.621E-05    5.26     379.5  T
     SCC iter.                  ...        0 min,  0.002 sec
     gradient                   ...        0 min,  0.003 sec
 * total energy  :   -18.9421578 Eh     change       -0.3851094E-05 Eh
   gradient norm :     0.0003060 Eh/α   predicted    -0.1403377E-05 ( -63.56%)
   displ. norm   :     0.0302517 α      lambda       -0.2763698E-05
   maximum displ.:     0.0256883 α      in ANC's #1, #6, #2, ...

........................................................................
.............................. CYCLE   12 ..............................
........................................................................

 iter      E             dE          RMSdq      gap      omega  full diag
   1    -19.2596927 -0.192597E+02  0.811E-03    5.26       0.0  T
   2    -19.2596927 -0.242954E-08  0.480E-03    5.26       4.9  T
   3    -19.2596927  0.951443E-08  0.885E-04    5.26      26.6  T
   4    -19.2596927 -0.113492E-07  0.127E-04    5.26     186.0  T
     SCC iter.                  ...        0 min,  0.001 sec
     gradient                   ...        0 min,  0.003 sec
 * total energy  :   -18.9421614 Eh     change       -0.3678653E-05 Eh
   gradient norm :     0.0002834 Eh/α   predicted    -0.1380914E-05 ( -62.46%)
   displ. norm   :     0.0336767 α      lambda       -0.2694639E-05
   maximum displ.:     0.0278190 α      in ANC's #1, #6, #3, ...

........................................................................
.............................. CYCLE   13 ..............................
........................................................................

 iter      E             dE          RMSdq      gap      omega  full diag
   1    -19.2596080 -0.192596E+02  0.105E-02    5.26       0.0  T
   2    -19.2596080 -0.554780E-08  0.622E-03    5.26       3.8  T
   3    -19.2596080  0.121662E-07  0.102E-03    5.26      23.2  T
   4    -19.2596080 -0.147660E-07  0.171E-04    5.26     137.9  T
   5    -19.2596080 -0.828244E-10  0.864E-05    5.26     272.7  T
     SCC iter.                  ...        0 min,  0.002 sec
     gradient                   ...        0 min,  0.003 sec
 * total energy  :   -18.9421648 Eh     change       -0.3360244E-05 Eh
   gradient norm :     0.0001611 Eh/α   predicted    -0.1348186E-05 ( -59.88%)
   displ. norm   :     0.0310568 α      lambda       -0.1887099E-05
   maximum displ.:     0.0250182 α      in ANC's #1, #6, #3, ...

........................................................................
.............................. CYCLE   14 ..............................
........................................................................

 iter      E             dE          RMSdq      gap      omega  full diag
   1    -19.2596126 -0.192596E+02  0.831E-03    5.26       0.0  T
   2    -19.2596126 -0.241864E-08  0.493E-03    5.26       4.8  T
   3    -19.2596126  0.976648E-08  0.902E-04    5.26      26.1  T
   4    -19.2596126 -0.117090E-07  0.137E-04    5.26     172.4  T
     SCC iter.                  ...        0 min,  0.001 sec
     gradient                   ...        0 min,  0.003 sec
 * total energy  :   -18.9421672 Eh     change       -0.2367574E-05 Eh
   gradient norm :     0.0001530 Eh/α   predicted    -0.9444463E-06 ( -60.11%)
   displ. norm   :     0.0236916 α      lambda       -0.1288022E-05
   maximum displ.:     0.0198165 α      in ANC's #1, #3, #6, ...

........................................................................
.............................. CYCLE   15 ..............................
........................................................................

 iter      E             dE          RMSdq      gap      omega  full diag
   1    -19.2596064 -0.192596E+02  0.721E-03    5.26       0.0  T
   2    -19.2596064 -0.222658E-08  0.426E-03    5.26       5.5  T
   3    -19.2596063  0.568949E-08  0.690E-04    5.26      34.1  T
   4    -19.2596064 -0.690860E-08  0.115E-04    5.26     204.3  T
     SCC iter.                  ...        0 min,  0.001 sec
     gradient                   ...        0 min,  0.003 sec
 * total energy  :   -18.9421689 Eh     change       -0.1770379E-05 Eh
   gradient norm :     0.0001561 Eh/α   predicted    -0.6428724E-06 ( -63.69%)
   displ. norm   :     0.0247533 α      lambda       -0.1390736E-05
   maximum displ.:     0.0193831 α      in ANC's #1, #2, #3, ...

........................................................................
.............................. CYCLE   16 ..............................
........................................................................

 iter      E             dE          RMSdq      gap      omega  full diag
   1    -19.2595955 -0.192596E+02  0.781E-03    5.26       0.0  T
   2    -19.2595955 -0.205247E-08  0.461E-03    5.26       5.1  T
   3    -19.2595955  0.510853E-08  0.664E-04    5.26      35.5  T
   4    -19.2595955 -0.637153E-08  0.118E-04    5.26     200.6  T
     SCC iter.                  ...        0 min,  0.001 sec
     gradient                   ...        0 min,  0.003 sec
 * total energy  :   -18.9421709 Eh     change       -0.1997398E-05 Eh
   gradient norm :     0.0001642 Eh/α   predicted    -0.6962332E-06 ( -65.14%)
   displ. norm   :     0.0375568 α      lambda       -0.2154443E-05
   maximum displ.:     0.0277077 α      in ANC's #1, #2, #4, ...

........................................................................
.............................. CYCLE   17 ..............................
........................................................................

 iter      E             dE          RMSdq      gap      omega  full diag
   1    -19.2595949 -0.192596E+02  0.118E-02    5.26       0.0  T
   2    -19.2595949 -0.515406E-08  0.699E-03    5.26       3.4  T
   3    -19.2595949  0.105352E-07  0.955E-04    5.26      24.7  T
   4    -19.2595949 -0.132180E-07  0.185E-04    5.26     127.4  T
     SCC iter.                  ...        0 min,  0.001 sec
     gradient                   ...        0 min,  0.003 sec
 * total energy  :   -18.9421740 Eh     change       -0.3043416E-05 Eh
   gradient norm :     0.0001562 Eh/α   predicted    -0.1079330E-05 ( -64.54%)
   displ. norm   :     0.0613971 α      lambda       -0.3274218E-05
   maximum displ.:     0.0440884 α      in ANC's #1, #2, #4, ...

........................................................................
.............................. CYCLE   18 ..............................
........................................................................

 iter      E             dE          RMSdq      gap      omega  full diag
   1    -19.2595786 -0.192596E+02  0.194E-02    5.26       0.0  T
   2    -19.2595786 -0.128107E-07  0.115E-02    5.26       2.1  T
   3    -19.2595786  0.239234E-07  0.146E-03    5.26      16.1  T
   4    -19.2595786 -0.307038E-07  0.303E-04    5.26      77.8  T
   5    -19.2595786 -0.268258E-09  0.153E-04    5.26     154.2  T
     SCC iter.                  ...        0 min,  0.001 sec
     gradient                   ...        0 min,  0.003 sec
 * total energy  :   -18.9421784 Eh     change       -0.4389252E-05 Eh
   gradient norm :     0.0001507 Eh/α   predicted    -0.1638887E-05 ( -62.66%)
   displ. norm   :     0.0797961 α      lambda       -0.3552662E-05
   maximum displ.:     0.0574752 α      in ANC's #1, #2, #4, ...

........................................................................
.............................. CYCLE   19 ..............................
........................................................................

 iter      E             dE          RMSdq      gap      omega  full diag
   1    -19.2595506 -0.192596E+02  0.246E-02    5.26       0.0  T
   2    -19.2595507 -0.209075E-07  0.146E-02    5.26       1.6  T
   3    -19.2595506  0.383526E-07  0.185E-03    5.26      12.7  T
   4    -19.2595507 -0.493277E-07  0.397E-04    5.26      59.3  T
   5    -19.2595507 -0.452228E-09  0.189E-04    5.26     124.5  T
     SCC iter.                  ...        0 min,  0.002 sec
     gradient                   ...        0 min,  0.003 sec
 * total energy  :   -18.9421828 Eh     change       -0.4481676E-05 Eh
   gradient norm :     0.0002197 Eh/α   predicted    -0.1779849E-05 ( -60.29%)
   displ. norm   :     0.0694542 α      lambda       -0.2486954E-05
   maximum displ.:     0.0512779 α      in ANC's #1, #2, #4, ...

........................................................................
.............................. CYCLE   20 ..............................
........................................................................

 iter      E             dE          RMSdq      gap      omega  full diag
   1    -19.2595647 -0.192596E+02  0.210E-02    5.26       0.0  T
   2    -19.2595648 -0.154349E-07  0.124E-02    5.26       1.9  T
   3    -19.2595647  0.269713E-07  0.157E-03    5.26      15.0  T
   4    -19.2595648 -0.348858E-07  0.344E-04    5.26      68.6  T
   5    -19.2595648 -0.347040E-09  0.176E-04    5.26     133.6  T
     SCC iter.                  ...        0 min,  0.002 sec
     gradient                   ...        0 min,  0.003 sec
 * total energy  :   -18.9421860 Eh     change       -0.3153248E-05 Eh
   gradient norm :     0.0002287 Eh/α   predicted    -0.1246725E-05 ( -60.46%)
   displ. norm   :     0.0514698 α      lambda       -0.1744523E-05
   maximum displ.:     0.0395458 α      in ANC's #1, #4, #2, ...
 * RMSD in coord.:     0.2214064 α      energy gain  -0.1040010E-02 Eh

generating ANC from exact Hessian ...
Using Lindh-Hessian (1995)
 Shifting diagonal of input Hessian by   8.209832542913150E-003
 Lowest  eigenvalues of input Hessian
    0.000000    0.000000    0.000000    0.000000    0.000000    0.000000
    0.010000    0.011141    0.013182    0.017102    0.019753    0.019886
    0.023742    0.027433    0.030338    0.041022    0.052389    0.060043
 Highest eigenvalues
    1.170486    1.207339    1.228119    1.253717    1.528195    1.927492
 

........................................................................
.............................. CYCLE   21 ..............................
........................................................................

 iter      E             dE          RMSdq      gap      omega  full diag
   1    -19.2596223 -0.192596E+02  0.147E-02    5.26       0.0  T
   2    -19.2596223 -0.716285E-08  0.870E-03    5.26       2.7  T
   3    -19.2596223  0.135835E-07  0.112E-03    5.26      21.1  T
   4    -19.2596223 -0.176378E-07  0.247E-04    5.26      95.6  T
   5    -19.2596223 -0.116277E-09  0.121E-04    5.26     194.0  T
     SCC iter.                  ...        0 min,  0.002 sec
     gradient                   ...        0 min,  0.003 sec
 * total energy  :   -18.9421883 Eh     change       -0.2336065E-05 Eh
   gradient norm :     0.0001854 Eh/α   predicted     0.0000000E+00 (-100.00%)
   displ. norm   :     0.0118979 α      lambda       -0.7599775E-06
   maximum displ.:     0.0096818 α      in ANC's #1, #2, #3, ...

........................................................................
.............................. CYCLE   22 ..............................
........................................................................

 iter      E             dE          RMSdq      gap      omega  full diag
   1    -19.2596746 -0.192597E+02  0.385E-03    5.26       0.0  T
   2    -19.2596746 -0.933269E-09  0.228E-03    5.26      10.3  T
   3    -19.2596746  0.551839E-09  0.254E-04    5.26      92.8  T
   4    -19.2596746 -0.755456E-09  0.691E-05    5.26     340.9  T
     SCC iter.                  ...        0 min,  0.001 sec
     gradient                   ...        0 min,  0.003 sec
 * total energy  :   -18.9421894 Eh     change       -0.1024036E-05 Eh
   gradient norm :     0.0000947 Eh/α   predicted    -0.3789631E-06 ( -62.99%)
   displ. norm   :     0.0261069 α      lambda       -0.1410596E-05
   maximum displ.:     0.0184294 α      in ANC's #1, #2, #3, ...

........................................................................
.............................. CYCLE   23 ..............................
........................................................................

 iter      E             dE          RMSdq      gap      omega  full diag
   1    -19.2597047 -0.192597E+02  0.717E-03    5.26       0.0  T
   2    -19.2597047 -0.174598E-08  0.425E-03    5.26       5.5  T
   3    -19.2597047  0.438765E-08  0.623E-04    5.26      37.8  T
   4    -19.2597047 -0.538842E-08  0.108E-04    5.26     218.7  T
     SCC iter.                  ...        0 min,  0.001 sec
     gradient                   ...        0 min,  0.003 sec
 * total energy  :   -18.9421912 Eh     change       -0.1809004E-05 Eh
   gradient norm :     0.0001362 Eh/α   predicted    -0.7051027E-06 ( -61.02%)
   displ. norm   :     0.0369703 α      lambda       -0.1500896E-05
   maximum displ.:     0.0261674 α      in ANC's #1, #2, #3, ...

........................................................................
.............................. CYCLE   24 ..............................
........................................................................

 iter      E             dE          RMSdq      gap      omega  full diag
   1    -19.2596513 -0.192597E+02  0.103E-02    5.26       0.0  T
   2    -19.2596513 -0.296444E-08  0.609E-03    5.26       3.9  T
   3    -19.2596513  0.103199E-07  0.934E-04    5.26      25.2  T
   4    -19.2596513 -0.125024E-07  0.156E-04    5.26     150.8  T
     SCC iter.                  ...        0 min,  0.001 sec
     gradient                   ...        0 min,  0.003 sec
 * total energy  :   -18.9421928 Eh     change       -0.1680050E-05 Eh
   gradient norm :     0.0000933 Eh/α   predicted    -0.7495104E-06 ( -55.39%)
   displ. norm   :     0.0244106 α      lambda       -0.6685280E-06
   maximum displ.:     0.0189339 α      in ANC's #1, #2, #3, ...

........................................................................
.............................. CYCLE   25 ..............................
........................................................................

 iter      E             dE          RMSdq      gap      omega  full diag
   1    -19.2596688 -0.192597E+02  0.659E-03    5.26       0.0  T
   2    -19.2596688 -0.145909E-08  0.392E-03    5.26       6.0  T
   3    -19.2596688  0.463860E-08  0.628E-04    5.26      37.5  T
   4    -19.2596688 -0.562002E-08  0.101E-04    5.26     232.7  T
     SCC iter.                  ...        0 min,  0.001 sec
     gradient                   ...        0 min,  0.003 sec
 * total energy  :   -18.9421936 Eh     change       -0.7195126E-06 Eh
   gradient norm :     0.0001245 Eh/α   predicted    -0.3339500E-06 ( -53.59%)
   displ. norm   :     0.0137213 α      lambda       -0.4059553E-06
   maximum displ.:     0.0114431 α      in ANC's #1, #4, #3, ...

........................................................................
.............................. CYCLE   26 ..............................
........................................................................

 iter      E             dE          RMSdq      gap      omega  full diag
   1    -19.2596804 -0.192597E+02  0.388E-03    5.26       0.0  T
   2    -19.2596804 -0.437026E-09  0.231E-03    5.26      10.2  T
   3    -19.2596804  0.271026E-09  0.201E-04    5.26     117.2  T
   4    -19.2596804 -0.506191E-09  0.629E-05    5.26     374.9  T
     SCC iter.                  ...        0 min,  0.001 sec
     gradient                   ...        0 min,  0.003 sec
 * total energy  :   -18.9421940 Eh     change       -0.4624507E-06 Eh
   gradient norm :     0.0000914 Eh/α   predicted    -0.2021406E-06 ( -56.29%)
   displ. norm   :     0.0112536 α      lambda       -0.3800236E-06
   maximum displ.:     0.0094851 α      in ANC's #1, #5, #2, ...

........................................................................
.............................. CYCLE   27 ..............................
........................................................................

 iter      E             dE          RMSdq      gap      omega  full diag
   1    -19.2596727 -0.192597E+02  0.355E-03    5.26       0.0  T
   2    -19.2596727 -0.365265E-09  0.210E-03    5.26      11.2  T
   3    -19.2596727  0.680764E-09  0.251E-04    5.26      93.8  T
   4    -19.2596727 -0.907228E-09  0.530E-05    5.26     444.9  T
     SCC iter.                  ...        0 min,  0.001 sec
     gradient                   ...        0 min,  0.003 sec
 * total energy  :   -18.9421946 Eh     change       -0.5283917E-06 Eh
   gradient norm :     0.0000813 Eh/α   predicted    -0.1887615E-06 ( -64.28%)
   displ. norm   :     0.0170135 α      lambda       -0.5751896E-06
   maximum displ.:     0.0130569 α      in ANC's #1, #2, #5, ...

........................................................................
.............................. CYCLE   28 ..............................
........................................................................

 iter      E             dE          RMSdq      gap      omega  full diag
   1    -19.2596675 -0.192597E+02  0.571E-03    5.26       0.0  T
   2    -19.2596675 -0.131655E-08  0.337E-03    5.26       7.0  T
   3    -19.2596675  0.336916E-08  0.529E-04    5.26      44.6  T
   4    -19.2596675 -0.409879E-08  0.882E-05    5.26     267.2  T
     SCC iter.                  ...        0 min,  0.001 sec
     gradient                   ...        0 min,  0.003 sec
 * total energy  :   -18.9421953 Eh     change       -0.7775525E-06 Eh
   gradient norm :     0.0000582 Eh/α   predicted    -0.2882953E-06 ( -62.92%)
   displ. norm   :     0.0226708 α      lambda       -0.6466344E-06
   maximum displ.:     0.0174023 α      in ANC's #1, #2, #5, ...

........................................................................
.............................. CYCLE   29 ..............................
........................................................................

 iter      E             dE          RMSdq      gap      omega  full diag
   1    -19.2596701 -0.192597E+02  0.781E-03    5.26       0.0  T
   2    -19.2596701 -0.193280E-08  0.460E-03    5.26       5.1  T
   3    -19.2596701  0.212497E-08  0.468E-04    5.26      50.3  T
   4    -19.2596701 -0.307089E-08  0.114E-04    5.26     207.2  T
     SCC iter.                  ...        0 min,  0.001 sec
     gradient                   ...        0 min,  0.003 sec
 * total energy  :   -18.9421962 Eh     change       -0.8412540E-06 Eh
   gradient norm :     0.0000589 Eh/α   predicted    -0.3218515E-06 ( -61.74%)
   displ. norm   :     0.0231817 α      lambda       -0.5488809E-06
   maximum displ.:     0.0180902 α      in ANC's #1, #2, #4, ...

........................................................................
.............................. CYCLE   30 ..............................
........................................................................

 iter      E             dE          RMSdq      gap      omega  full diag
   1    -19.2596582 -0.192597E+02  0.787E-03    5.26       0.0  T
   2    -19.2596582 -0.220715E-08  0.464E-03    5.26       5.1  T
   3    -19.2596581  0.354201E-08  0.566E-04    5.26      41.6  T
   4    -19.2596582 -0.462671E-08  0.122E-04    5.26     192.6  T
     SCC iter.                  ...        0 min,  0.001 sec
     gradient                   ...        0 min,  0.003 sec
 * total energy  :   -18.9421969 Eh     change       -0.7292633E-06 Eh
   gradient norm :     0.0000715 Eh/α   predicted    -0.2757724E-06 ( -62.18%)
   displ. norm   :     0.0198231 α      lambda       -0.4466029E-06
   maximum displ.:     0.0157595 α      in ANC's #1, #2, #4, ...

........................................................................
.............................. CYCLE   31 ..............................
........................................................................

 iter      E             dE          RMSdq      gap      omega  full diag
   1    -19.2596621 -0.192597E+02  0.666E-03    5.26       0.0  T
   2    -19.2596621 -0.132274E-08  0.392E-03    5.26       6.0  T
   3    -19.2596621  0.178592E-08  0.423E-04    5.26      55.7  T
   4    -19.2596621 -0.251816E-08  0.983E-05    5.26     239.7  T
     SCC iter.                  ...        0 min,  0.001 sec
     gradient                   ...        0 min,  0.003 sec
 * total energy  :   -18.9421975 Eh     change       -0.6185432E-06 Eh
   gradient norm :     0.0000671 Eh/α   predicted    -0.2225449E-06 ( -64.02%)
   displ. norm   :     0.0182822 α      lambda       -0.4413117E-06
   maximum displ.:     0.0146960 α      in ANC's #1, #2, #4, ...

........................................................................
.............................. CYCLE   32 ..............................
........................................................................

 iter      E             dE          RMSdq      gap      omega  full diag
   1    -19.2596682 -0.192597E+02  0.566E-03    5.26       0.0  T
   2    -19.2596682 -0.993555E-09  0.334E-03    5.26       7.1  T
   3    -19.2596682  0.127077E-08  0.361E-04    5.26      65.2  T
   4    -19.2596682 -0.180777E-08  0.898E-05    5.26     262.4  T
     SCC iter.                  ...        0 min,  0.001 sec
     gradient                   ...        0 min,  0.003 sec
 * total energy  :   -18.9421982 Eh     change       -0.6359097E-06 Eh
   gradient norm :     0.0000665 Eh/α   predicted    -0.2213405E-06 ( -65.19%)
   displ. norm   :     0.0216431 α      lambda       -0.5602599E-06
   maximum displ.:     0.0172296 α      in ANC's #1, #4, #2, ...

........................................................................
.............................. CYCLE   33 ..............................
........................................................................

 iter      E             dE          RMSdq      gap      omega  full diag
   1    -19.2596660 -0.192597E+02  0.630E-03    5.26       0.0  T
   2    -19.2596660 -0.120827E-08  0.374E-03    5.26       6.3  T
   3    -19.2596660  0.329766E-08  0.536E-04    5.26      43.9  T
   4    -19.2596660 -0.413111E-08  0.995E-05    5.26     236.9  T
     SCC iter.                  ...        0 min,  0.001 sec
     gradient                   ...        0 min,  0.003 sec
 * total energy  :   -18.9421990 Eh     change       -0.8000312E-06 Eh
   gradient norm :     0.0000644 Eh/α   predicted    -0.2814863E-06 ( -64.82%)
   displ. norm   :     0.0291064 α      lambda       -0.7325338E-06
   maximum displ.:     0.0229844 α      in ANC's #1, #4, #2, ...

........................................................................
.............................. CYCLE   34 ..............................
........................................................................

 iter      E             dE          RMSdq      gap      omega  full diag
   1    -19.2596689 -0.192597E+02  0.790E-03    5.26       0.0  T
   2    -19.2596689 -0.193323E-08  0.469E-03    5.26       5.0  T
   3    -19.2596689  0.516362E-08  0.676E-04    5.26      34.9  T
   4    -19.2596689 -0.649363E-08  0.129E-04    5.26     182.2  T
     SCC iter.                  ...        0 min,  0.001 sec
     gradient                   ...        0 min,  0.003 sec
 * total energy  :   -18.9422000 Eh     change       -0.1001953E-05 Eh
   gradient norm :     0.0000602 Eh/α   predicted    -0.3656371E-06 ( -63.51%)
   displ. norm   :     0.0345790 α      lambda       -0.7465366E-06
   maximum displ.:     0.0273439 α      in ANC's #1, #4, #2, ...

........................................................................
.............................. CYCLE   35 ..............................
........................................................................

 iter      E             dE          RMSdq      gap      omega  full diag
   1    -19.2596591 -0.192597E+02  0.944E-03    5.26       0.0  T
   2    -19.2596591 -0.263957E-08  0.561E-03    5.26       4.2  T
   3    -19.2596591  0.895343E-08  0.872E-04    5.26      27.0  T
   4    -19.2596591 -0.109499E-07  0.149E-04    5.26     157.7  T
     SCC iter.                  ...        0 min,  0.001 sec
     gradient                   ...        0 min,  0.003 sec
 * total energy  :   -18.9422010 Eh     change       -0.9905405E-06 Eh
   gradient norm :     0.0000782 Eh/α   predicted    -0.3732961E-06 ( -62.31%)
   displ. norm   :     0.0323459 α      lambda       -0.5730649E-06
   maximum displ.:     0.0258884 α      in ANC's #1, #4, #2, ...

........................................................................
.............................. CYCLE   36 ..............................
........................................................................

 iter      E             dE          RMSdq      gap      omega  full diag
   1    -19.2596611 -0.192597E+02  0.855E-03    5.26       0.0  T
   2    -19.2596611 -0.228034E-08  0.509E-03    5.26       4.6  T
   3    -19.2596611  0.797298E-08  0.822E-04    5.26      28.7  T
   4    -19.2596611 -0.971256E-08  0.141E-04    5.26     167.7  T
     SCC iter.                  ...        0 min,  0.001 sec
     gradient                   ...        0 min,  0.003 sec
 * total energy  :   -18.9422017 Eh     change       -0.7686035E-06 Eh
   gradient norm :     0.0000704 Eh/α   predicted    -0.2870554E-06 ( -62.65%)
   displ. norm   :     0.0265627 α      lambda       -0.4158452E-06
   maximum displ.:     0.0215219 α      in ANC's #1, #4, #2, ...

........................................................................
.............................. CYCLE   37 ..............................
........................................................................

 iter      E             dE          RMSdq      gap      omega  full diag
   1    -19.2596688 -0.192597E+02  0.720E-03    5.26       0.0  T
   2    -19.2596688 -0.147911E-08  0.428E-03    5.26       5.5  T
   3    -19.2596688  0.423609E-08  0.612E-04    5.26      38.5  T
   4    -19.2596688 -0.531420E-08  0.116E-04    5.26     204.0  T
     SCC iter.                  ...        0 min,  0.001 sec
     gradient                   ...        0 min,  0.003 sec
 * total energy  :   -18.9422023 Eh     change       -0.5803400E-06 Eh
   gradient norm :     0.0000647 Eh/α   predicted    -0.2080039E-06 ( -64.16%)
   displ. norm   :     0.0232808 α      lambda       -0.3626469E-06
   maximum displ.:     0.0189745 α      in ANC's #1, #4, #2, ...

........................................................................
.............................. CYCLE   38 ..............................
........................................................................

 iter      E             dE          RMSdq      gap      omega  full diag
   1    -19.2596757 -0.192597E+02  0.622E-03    5.26       0.0  T
   2    -19.2596757 -0.119540E-08  0.370E-03    5.26       6.4  T
   3    -19.2596757  0.368247E-08  0.564E-04    5.26      41.8  T
   4    -19.2596757 -0.454483E-08  0.102E-04    5.26     230.4  T
     SCC iter.                  ...        0 min,  0.001 sec
     gradient                   ...        0 min,  0.003 sec
 * total energy  :   -18.9422028 Eh     change       -0.5200258E-06 Eh
   gradient norm :     0.0000496 Eh/α   predicted    -0.1815927E-06 ( -65.08%)
   displ. norm   :     0.0239951 α      lambda       -0.3823133E-06
   maximum displ.:     0.0194891 α      in ANC's #1, #4, #2, ...

........................................................................
.............................. CYCLE   39 ..............................
........................................................................

 iter      E             dE          RMSdq      gap      omega  full diag
   1    -19.2596816 -0.192597E+02  0.657E-03    5.26       0.0  T
   2    -19.2596816 -0.125617E-08  0.391E-03    5.26       6.0  T
   3    -19.2596816  0.298778E-08  0.522E-04    5.26      45.2  T
   4    -19.2596816 -0.383976E-08  0.108E-04    5.26     219.0  T
     SCC iter.                  ...        0 min,  0.001 sec
     gradient                   ...        0 min,  0.003 sec
 * total energy  :   -18.9422034 Eh     change       -0.5498059E-06 Eh
   gradient norm :     0.0000407 Eh/α   predicted    -0.1924949E-06 ( -64.99%)
   displ. norm   :     0.0270643 α      lambda       -0.4207982E-06
   maximum displ.:     0.0218907 α      in ANC's #1, #4, #2, ...

........................................................................
.............................. CYCLE   40 ..............................
........................................................................

 iter      E             dE          RMSdq      gap      omega  full diag
   1    -19.2596803 -0.192597E+02  0.739E-03    5.26       0.0  T
   2    -19.2596803 -0.161681E-08  0.440E-03    5.26       5.4  T
   3    -19.2596803  0.392052E-08  0.594E-04    5.26      39.7  T
   4    -19.2596803 -0.500521E-08  0.122E-04    5.26     193.4  T
     SCC iter.                  ...        0 min,  0.001 sec
     gradient                   ...        0 min,  0.003 sec
 * total energy  :   -18.9422040 Eh     change       -0.5890805E-06 Eh
   gradient norm :     0.0000378 Eh/α   predicted    -0.2106569E-06 ( -64.24%)
   displ. norm   :     0.0273545 α      lambda       -0.3882465E-06
   maximum displ.:     0.0223058 α      in ANC's #1, #4, #2, ...

........................................................................
.............................. CYCLE   41 ..............................
........................................................................

 iter      E             dE          RMSdq      gap      omega  full diag
   1    -19.2596817 -0.192597E+02  0.769E-03    5.26       0.0  T
   2    -19.2596817 -0.173805E-08  0.457E-03    5.26       5.2  T
   3    -19.2596817  0.360019E-08  0.580E-04    5.26      40.7  T
   4    -19.2596817 -0.472369E-08  0.127E-04    5.26     186.0  T
     SCC iter.                  ...        0 min,  0.001 sec
     gradient                   ...        0 min,  0.003 sec
 * total energy  :   -18.9422045 Eh     change       -0.5300890E-06 Eh
   gradient norm :     0.0000332 Eh/α   predicted    -0.1928523E-06 ( -63.62%)
   displ. norm   :     0.0223005 α      lambda       -0.2712628E-06
   maximum displ.:     0.0185019 α      in ANC's #1, #4, #2, ...

........................................................................
.............................. CYCLE   42 ..............................
........................................................................

 iter      E             dE          RMSdq      gap      omega  full diag
   1    -19.2596862 -0.192597E+02  0.624E-03    5.26       0.0  T
   2    -19.2596862 -0.113662E-08  0.370E-03    5.26       6.4  T
   3    -19.2596862  0.235196E-08  0.468E-04    5.26      50.3  T
   4    -19.2596862 -0.308152E-08  0.102E-04    5.26     232.0  T
     SCC iter.                  ...        0 min,  0.001 sec
     gradient                   ...        0 min,  0.003 sec
 * total energy  :   -18.9422049 Eh     change       -0.3779493E-06 Eh
   gradient norm :     0.0000288 Eh/α   predicted    -0.1363639E-06 ( -63.92%)
   displ. norm   :     0.0143437 α      lambda       -0.1600186E-06
   maximum displ.:     0.0123197 α      in ANC's #1, #4, #2, ...
 * RMSD in coord.:     0.1070336 α      energy gain  -0.1887045E-04 Eh

generating ANC from exact Hessian ...
Using Lindh-Hessian (1995)
 Shifting diagonal of input Hessian by   8.228764718463413E-003
 Lowest  eigenvalues of input Hessian
    0.000000    0.000000    0.000000    0.000000    0.000000    0.000000
    0.010000    0.011172    0.013216    0.017095    0.019760    0.019914
    0.023815    0.027241    0.030402    0.041117    0.052425    0.060067
 Highest eigenvalues
    1.170781    1.206713    1.227555    1.253836    1.528403    1.927502
 

........................................................................
.............................. CYCLE   43 ..............................
........................................................................

 iter      E             dE          RMSdq      gap      omega  full diag
   1    -19.2596914 -0.192597E+02  0.417E-03    5.26       0.0  T
   2    -19.2596914 -0.533539E-09  0.247E-03    5.26       9.5  T
   3    -19.2596914  0.113882E-08  0.324E-04    5.26      72.8  T
   4    -19.2596914 -0.147846E-08  0.675E-05    5.26     349.1  T
     SCC iter.                  ...        0 min,  0.001 sec
     gradient                   ...        0 min,  0.003 sec
 * total energy  :   -18.9422051 Eh     change       -0.2300104E-06 Eh
   gradient norm :     0.0000289 Eh/α   predicted     0.0000000E+00 (-100.00%)
   displ. norm   :     0.0036058 α      lambda       -0.6092083E-07
   maximum displ.:     0.0035012 α      in ANC's #1, #4, #5, ...

........................................................................
.............................. CYCLE   44 ..............................
........................................................................

 iter      E             dE          RMSdq      gap      omega  full diag
   1    -19.2596914 -0.192597E+02  0.100E-03    5.26       0.0  T
   2    -19.2596914 -0.314664E-10  0.591E-04    5.26      39.9  T
   3    -19.2596914  0.118586E-09  0.992E-05    5.26     237.6  T
     SCC iter.                  ...        0 min,  0.001 sec
     gradient                   ...        0 min,  0.003 sec
 * total energy  :   -18.9422052 Eh     change       -0.8721770E-07 Eh
   gradient norm :     0.0000279 Eh/α   predicted    -0.3042024E-07 ( -65.12%)
   displ. norm   :     0.0042451 α      lambda       -0.6942346E-07
   maximum displ.:     0.0039384 α      in ANC's #1, #4, #5, ...

   *** GEOMETRY OPTIMIZATION CONVERGED AFTER 44 ITERATIONS ***

------------------------------------------------------------------------
 total energy gain   :        -0.0010592 Eh       -0.6647 kcal/mol
 total RMSD          :         0.3179736 a0        0.1683 Å
 total power (kW/mol):        -0.0632028 (step)   -7.9005 (real)
------------------------------------------------------------------------

 ANCopt (total)                0 d,  0 h,  0 min,  0.352 sec
 optimizer setup                ...        0 min,  0.000 sec (  0.103%)
 model hessian                  ...        0 min,  0.021 sec (  5.982%)
 ANC generation                 ...        0 min,  0.001 sec (  0.343%)
 coordinate transformation      ...        0 min,  0.000 sec (  0.075%)
 single point calculation       ...        0 min,  0.312 sec ( 88.680%)
 optimization log               ...        0 min,  0.009 sec (  2.657%)
 hessian update                 ...        0 min,  0.000 sec (  0.082%)
 rational function              ...        0 min,  0.005 sec (  1.539%)

================
 final structure:
================
$coord
       -3.74063087738606        0.72388857710434       -1.41875770540186      C
       -2.81705098444281       -1.04868082823082        0.65310007375905      C
       -0.44388042092224       -0.03487291379735        1.97484340261394      C
        1.77032831558893        0.24490263111905        0.21432986146719      C
        2.63712563888464        2.48944463796928       -0.47085102215840      C
        2.93641796078946       -2.16406578801386       -0.71117339243935      C
       -2.28695583800014        0.97811424309386       -2.84930701201642      H
       -4.19819284276876        2.56784644141223       -0.63416722991208      H
       -5.42352627210372       -0.03575276684677       -2.32060725338264      H
       -4.30414145262890       -1.28340959839140        2.06473110759159      H
       -2.42433455273665       -2.90605159764488       -0.15194009842882      H
       -0.88493155568080        1.79676778614833        2.81531419163663      H
        0.06727621351710       -1.33378838313844        3.49730575002804      H
        4.22380566502112        2.69480314399809       -1.73014691911214      H
        1.79606199654317        4.21865231699545        0.19685262654827      H
        1.59338134333493       -3.21656193071154       -1.86100307822043      H
        4.60543308106583       -1.78287827996836       -1.84483624594307      H
        3.46808570303624       -3.35456068274872        0.88069987036999      H
$end
 
 Bond Distances (Angstroems)
 ---------------------------
C1-C2=1.5234         C1-H7=1.0876         C1-H8=1.0877         C1-H9=1.0874         C2-C1=1.5234         C2-C3=1.5343         
C2-H10=1.0921        C2-H11=1.0912        C3-C2=1.5343         C3-C4=1.5042         C3-H12=1.0917        C3-H13=1.0930        
C4-C3=1.5042         C4-C5=1.3239         C4-C6=1.4986         C5-C4=1.3239         C5-H14=1.0774        C5-H15=1.0772        
C6-C4=1.4986         C6-H16=1.0888        C6-H17=1.0866        C6-H18=1.0889        H7-C1=1.0876         H8-C1=1.0877         
H9-C1=1.0874         H10-C2=1.0921        H11-C2=1.0912        H12-C3=1.0917        H13-C3=1.0930        H14-C5=1.0774        
H15-C5=1.0772        H16-C6=1.0888        H17-C6=1.0866        H18-C6=1.0889        
 C  H  Rav=1.0875 sigma=0.0050  Rmin=1.0772  Rmax=1.0930    12
 C  C  Rav=1.4769 sigma=0.0776  Rmin=1.3239  Rmax=1.5343     5
 
 selected bond angles (degree)
 --------------------
H7-C1-C2=110.50                H8-C1-C2=110.43                H8-C1-H7=108.19                H9-C1-C2=110.55                
H9-C1-H7=108.63                H9-C1-H8=108.47                C3-C2-C1=112.05                H10-C2-C1=109.34               
H10-C2-C3=108.53               H11-C2-C1=109.56               H11-C2-C3=109.70               H11-C2-H10=107.57              
C4-C3-C2=112.93                H12-C3-C2=108.73               H12-C3-C4=109.36               H13-C3-C2=108.58               
H13-C3-C4=109.00               H13-C3-H12=108.12              C5-C4-C3=121.86                C6-C4-C3=116.07                
C6-C4-C5=122.07                H14-C5-C4=122.00               H15-C5-C4=121.95               H15-C5-H14=116.05              
H16-C6-C4=110.43               H17-C6-C4=110.93               H17-C6-H16=108.48              H18-C6-C4=110.23               
H18-C6-H16=107.76              H18-C6-H17=108.94              
 
 selected dihedral angles (degree)
 ---------------------------------
C3-C2-C1-H7= 59.83            C3-C2-C1-H8=300.17            C3-C2-C1-H9=180.12            H10-C2-C1-H7=180.19           
H10-C2-C1-H8= 60.53           H10-C2-C1-H9=300.48           H11-C2-C1-H7=297.84           H11-C2-C1-H8=178.18           
H11-C2-C1-H9= 58.13           C4-C3-C2-C1=298.15            C4-C3-C2-H10=177.32           C4-C3-C2-H11= 60.06           
H12-C3-C2-C1= 59.72           H12-C3-C2-H10=298.89          H12-C3-C2-H11=181.63          H13-C3-C2-C1=177.13           
H13-C3-C2-H10= 56.30          H13-C3-C2-H11=299.04          C5-C4-C3-C2=109.94            C5-C4-C3-H12=348.72           
C5-C4-C3-H13=230.72           C6-C4-C3-C2=289.83            C6-C4-C3-H12=168.61           C6-C4-C3-H13= 50.60           
H14-C5-C4-C3=179.94           H14-C5-C4-C6=  0.06           H15-C5-C4-C3=359.88           H15-C5-C4-C6=180.00           
H16-C6-C4-C3= 64.23           H16-C6-C4-C5=244.11           H17-C6-C4-C3=184.53           H17-C6-C4-C5=  4.42           
H18-C6-C4-C3=305.27           H18-C6-C4-C5=125.16           
           -------------------------------------------------
          |                Final Singlepoint                |
           -------------------------------------------------

          ...................................................
          :                      SETUP                      :
          :.................................................:
          :  # basis functions                  36          :
          :  # atomic orbitals                  36          :
          :  # shells                           24          :
          :  # electrons                        36          :
          :  max. iterations                   250          :
          :  Hamiltonian                  GFN2-xTB          :
          :  restarted?                      false          :
          :  GBSA solvation                   true          :
          :  PC potential                    false          :
          :  electronic temp.          300.0000000     K    :
          :  accuracy                    1.0000000          :
          :  -> integral cutoff          0.2500000E+02      :
          :  -> integral neglect         0.1000000E-07      :
          :  -> SCF convergence          0.1000000E-05 Eh   :
          :  -> wf. convergence          0.1000000E-03 e    :
          :  Broyden damping             0.4000000          :
          :  net charge                          0          :
          :  unpaired electrons                  0          :
          ...................................................

 iter      E             dE          RMSdq      gap      omega  full diag
   1    -19.2596914 -0.192597E+02  0.146E-05    5.26       0.0  T
   2    -19.2596914 -0.852651E-13  0.905E-06    5.26    2605.6  T
   3    -19.2596914  0.131450E-12  0.504E-06    5.26    4674.1  T

   *** convergence criteria satisfied after 3 iterations ***

         #    Occupation            Energy/Eh            Energy/eV
      -------------------------------------------------------------
         1        2.0000           -0.6243248             -16.9887
       ...           ...                  ...                  ...
        12        2.0000           -0.4592660             -12.4973
        13        2.0000           -0.4453611             -12.1189
        14        2.0000           -0.4378749             -11.9152
        15        2.0000           -0.4351591             -11.8413
        16        2.0000           -0.4245414             -11.5524
        17        2.0000           -0.4155055             -11.3065
        18        2.0000           -0.3840185             -10.4497 (HOMO)
        19                         -0.1908291              -5.1927 (LUMO)
        20                          0.0970760               2.6416
        21                          0.1070484               2.9129
        22                          0.1156964               3.1483
        23                          0.1382125               3.7610
       ...                                ...                  ...
        36                          0.6401529              17.4194
      -------------------------------------------------------------
                  HL-Gap            0.1931895 Eh            5.2570 eV
             Fermi-level           -0.2874238 Eh           -7.8212 eV

 SCC (total)                   0 d,  0 h,  0 min,  0.007 sec
 SCC setup                      ...        0 min,  0.001 sec ( 15.094%)
 Dispersion                     ...        0 min,  0.000 sec (  0.778%)
 classical contributions        ...        0 min,  0.000 sec (  0.248%)
 integral evaluation            ...        0 min,  0.001 sec ( 16.074%)
 iterations                     ...        0 min,  0.001 sec ( 16.326%)
 molecular gradient             ...        0 min,  0.003 sec ( 49.382%)
 printout                       ...        0 min,  0.000 sec (  1.861%)

         :::::::::::::::::::::::::::::::::::::::::::::::::::::
         ::                     SUMMARY                     ::
         :::::::::::::::::::::::::::::::::::::::::::::::::::::
         :: total energy             -18.942205185137 Eh    ::
         :: total w/o Gsasa/hb       -18.941734298324 Eh    ::
         :: gradient norm              0.000028022249 Eh/a0 ::
         :: HOMO-LUMO gap              5.256952930562 eV    ::
         ::.................................................::
         :: SCC energy               -19.259646585215 Eh    ::
         :: -> isotropic ES            0.005117502754 Eh    ::
         :: -> anisotropic ES          0.005822009756 Eh    ::
         :: -> anisotropic XC          0.013265529140 Eh    ::
         :: -> dispersion             -0.010818658973 Eh    ::
         :: -> Gsolv                  -0.000842629656 Eh    ::
         ::    -> Gelec               -0.000371742843 Eh    ::
         ::    -> Gsasa               -0.001015390686 Eh    ::
         ::    -> Ghb                 -0.000536255825 Eh    ::
         ::    -> Gshift               0.001080759698 Eh    ::
         :: repulsion energy           0.317441400078 Eh    ::
         :: add. restraining           0.000000000000 Eh    ::
         :: total charge               0.000000000000 e     ::
         :::::::::::::::::::::::::::::::::::::::::::::::::::::

           ------------------------------------------------- 
          |                Numerical Hessian                |
           ------------------------------------------------- 
step length          :   0.00500
SCC accuracy         :   0.30000
Hessian scale factor :   1.00000
frozen atoms in %    :   0.00000    0
RMS gradient         :   0.00003
estimated CPU  time      0.01 min
estimated wall time      0.01 min

writing file <hessian>.

 projected vibrational frequencies (cm⁻¹)
eigval :       -0.00     0.00     0.00     0.00     0.00     0.00
eigval :       25.96    96.08   131.47   192.99   263.32   365.26
eigval :      394.37   424.46   533.89   706.16   784.24   865.67
eigval :      889.44   903.52   938.19   974.26  1009.56  1033.32
eigval :     1087.44  1099.57  1121.68  1211.22  1252.49  1279.07
eigval :     1328.41  1341.20  1395.99  1411.97  1422.32  1470.17
eigval :     1477.65  1484.81  1496.10  1498.34  1505.62  1727.40
eigval :     2954.91  2963.33  2981.41  2986.75  3005.40  3019.37
eigval :     3026.50  3029.46  3038.97  3045.23  3094.23  3110.45
           -------------------------------------------------
          |                Property Printout                |
           -------------------------------------------------

    * Orbital Energies and Occupations

         #    Occupation            Energy/Eh            Energy/eV
      -------------------------------------------------------------
         1        2.0000           -0.6243248             -16.9887
       ...           ...                  ...                  ...
         6        2.0000           -0.5289153             -14.3925
         7        2.0000           -0.5055038             -13.7555
         8        2.0000           -0.5019893             -13.6598
         9        2.0000           -0.4932587             -13.4223
        10        2.0000           -0.4768202             -12.9749
        11        2.0000           -0.4734892             -12.8843
        12        2.0000           -0.4592660             -12.4973
        13        2.0000           -0.4453611             -12.1189
        14        2.0000           -0.4378749             -11.9152
        15        2.0000           -0.4351591             -11.8413
        16        2.0000           -0.4245414             -11.5524
        17        2.0000           -0.4155055             -11.3065
        18        2.0000           -0.3840185             -10.4497 (HOMO)
        19                         -0.1908291              -5.1927 (LUMO)
        20                          0.0970760               2.6416
        21                          0.1070484               2.9129
        22                          0.1156964               3.1483
        23                          0.1382125               3.7610
        24                          0.1485623               4.0426
        25                          0.1640069               4.4629
        26                          0.1921822               5.2295
        27                          0.1982534               5.3947
        28                          0.2064908               5.6189
        29                          0.2230026               6.0682
       ...                                ...                  ...
        36                          0.6401529              17.4194
      -------------------------------------------------------------
                  HL-Gap            0.1931895 Eh            5.2570 eV
             Fermi-level           -0.2874238 Eh           -7.8212 eV

     #   Z          covCN         q      C6AA      α(0)
     1   6 C        3.752    -0.109    22.640     6.785
     2   6 C        3.800    -0.053    21.533     6.607
     3   6 C        3.809    -0.069    21.815     6.649
     4   6 C        2.937     0.017    27.630     8.621
     5   6 C        2.845    -0.116    30.940     9.116
     6   6 C        3.759    -0.118    22.814     6.809
     7   1 H        0.925     0.036     2.507     2.476
     8   1 H        0.925     0.035     2.511     2.478
     9   1 H        0.925     0.035     2.510     2.477
    10   1 H        0.924     0.032     2.552     2.498
    11   1 H        0.924     0.035     2.523     2.484
    12   1 H        0.924     0.037     2.484     2.465
    13   1 H        0.924     0.041     2.438     2.442
    14   1 H        0.926     0.026     2.645     2.543
    15   1 H        0.926     0.027     2.635     2.539
    16   1 H        0.925     0.053     2.285     2.364
    17   1 H        0.925     0.042     2.421     2.433
    18   1 H        0.925     0.049     2.327     2.385

 Mol. C6AA /au·bohr⁶  :       2353.044110
 Mol. C8AA /au·bohr⁸  :      50606.193399
 Mol. α(0) /au        :         74.171275


Wiberg/Mayer (AO) data.
largest (>0.10) Wiberg bond orders for each atom

 ---------------------------------------------------------------------------
     #   Z sym  total        # sym  WBO       # sym  WBO       # sym  WBO
 ---------------------------------------------------------------------------
     1   6 C    3.997 --     2 C    1.021     8 H    0.988     9 H    0.987
                             7 H    0.987
     2   6 C    3.997 --     1 C    1.021     3 C    0.991    10 H    0.978
                            11 H    0.977
     3   6 C    3.997 --     4 C    1.012     2 C    0.991    12 H    0.975
                            13 H    0.966
     4   6 C    3.988 --     5 C    1.927     6 C    1.026     3 C    1.012
     5   6 C    3.988 --     4 C    1.927    15 H    0.976    14 H    0.976
     6   6 C    3.996 --     4 C    1.026    17 H    0.985    18 H    0.973
                            16 H    0.967
     7   1 H    0.999 --     1 C    0.987
     8   1 H    0.999 --     1 C    0.988
     9   1 H    0.999 --     1 C    0.987
    10   1 H    0.999 --     2 C    0.978
    11   1 H    0.999 --     2 C    0.977
    12   1 H    0.999 --     3 C    0.975
    13   1 H    0.998 --     3 C    0.966
    14   1 H    0.999 --     5 C    0.976
    15   1 H    0.999 --     5 C    0.976
    16   1 H    0.997 --     6 C    0.967
    17   1 H    0.998 --     6 C    0.985
    18   1 H    0.998 --     6 C    0.973
 ---------------------------------------------------------------------------

Topologies differ in total number of bonds
Writing topology from bond orders to xtbtopo.mol

molecular dipole:
                 x           y           z       tot (Debye)
 q only:       -0.105      -0.283       0.057
   full:       -0.107      -0.287       0.056       0.791
molecular quadrupole (traceless):
                xx          xy          yy          xz          yz          zz
 q only:       -0.171      -0.989       0.114      -0.224       0.137       0.057
  q+dip:       -0.610      -0.814       1.159      -1.514       0.195      -0.549
   full:       -0.366      -0.976       0.508      -0.781       0.204      -0.142

           -------------------------------------------------
          |                Geometry Summary                 |
           -------------------------------------------------

      molecular mass/u    :       84.1597044
   center of mass at/Å    :        0.0019708       0.0054055       0.0059608
  moments of inertia/u·Å² :        0.1004259E+03   0.2118209E+03   0.2392131E+03
rotational constants/cm⁻¹ :        0.1678615E+00   0.7958436E-01   0.7047120E-01

 * 15 selected distances

     #   Z          #   Z                                           value/Å
     1   6 C        2   6 C                                       1.5234054
     2   6 C        3   6 C                                       1.5343175 (max)
     4   6 C        5   6 C                                       1.3238720
     1   6 C        7   1 H                                       1.0876200
     1   6 C        8   1 H                                       1.0877297
     1   6 C        9   1 H                                       1.0873948
     2   6 C       10   1 H                                       1.0921118
     2   6 C       11   1 H                                       1.0912018
     3   6 C       12   1 H                                       1.0916742
     3   6 C       13   1 H                                       1.0930238
     5   6 C       14   1 H                                       1.0774381
     5   6 C       15   1 H                                       1.0771553 (min)
     6   6 C       16   1 H                                       1.0888205
     6   6 C       17   1 H                                       1.0865682
     6   6 C       18   1 H                                       1.0888726

 * 2 distinct bonds (by element types)

   Z      Z             #   av. dist./Å        max./Å        min./Å
   1 H    6 C          12     1.0874676     1.0930238     1.0771553
   6 C    6 C           3     1.4605316     1.5343175     1.3238720

           -------------------------------------------------
          |               Frequency Printout                |
           -------------------------------------------------
 projected vibrational frequencies (cm⁻¹)
eigval :       -0.00     0.00     0.00     0.00     0.00     0.00
eigval :       25.96    96.08   131.47   192.99   263.32   365.26
eigval :      394.37   424.46   533.89   706.16   784.24   865.67
eigval :      889.44   903.52   938.19   974.26  1009.56  1033.32
eigval :     1087.44  1099.57  1121.68  1211.22  1252.49  1279.07
eigval :     1328.41  1341.20  1395.99  1411.97  1422.32  1470.17
eigval :     1477.65  1484.81  1496.10  1498.34  1505.62  1727.40
eigval :     2954.91  2963.33  2981.41  2986.75  3005.40  3019.37
eigval :     3026.50  3029.46  3038.97  3045.23  3094.23  3110.45
 reduced masses (amu)
   1:  9.85   2:  9.82   3: 10.00   4: 10.07   5:  9.71   6:  8.74   7:  7.66   8:  5.28
   9:  4.79  10:  3.26  11:  6.20  12:  8.47  13:  6.98  14:  7.46  15:  7.94  16:  1.69
  17:  5.22  18:  6.47  19:  4.03  20:  4.54  21:  6.78  22:  4.54  23:  4.40  24:  4.09
  25:  4.59  26:  6.34  27:  7.55  28:  4.29  29:  3.15  30:  7.76  31:  4.76  32:  4.71
  33:  3.18  34:  3.23  35:  2.50  36:  1.87  37:  1.68  38:  1.82  39:  1.82  40:  1.56
  41:  1.61  42: 11.30  43:  1.83  44:  1.92  45:  1.59  46:  1.57  47:  1.93  48:  1.58
  49:  1.94  50:  1.93  51:  1.27  52:  1.62  53:  1.53  54:  2.07
 IR intensities (km·mol⁻¹)
   1:  0.07   2:  0.07   3:  0.06   4:  0.01   5:  0.06   6:  0.10   7:  0.25   8:  0.09
   9:  0.45  10:  0.06  11:  0.16  12:  1.95  13:  0.33  14:  0.53  15:  1.39  16:  0.53
  17:  9.58  18:  6.69  19: 26.57  20:  2.39  21:  2.80  22:  1.01  23:  4.99  24:  3.76
  25:  1.13  26:  4.68  27:  3.04  28:  3.64  29:  3.05  30: 21.26  31:  2.54  32:  5.94
  33:  4.69  34:  1.34  35: 16.93  36:  1.37  37:  1.33  38:  2.90  39:  2.26  40:  0.67
  41:  0.50  42: 36.83  43: 73.95  44: 58.46  45: 89.18  46: 87.33  47: 43.95  48: 65.55
  49: 96.44  50: 83.93  51: 40.82  52: 50.47  53: 64.88  54:114.88
 Raman intensities (Ä⁴*amu⁻¹)
   1:  0.00   2:  0.00   3:  0.00   4:  0.00   5:  0.00   6:  0.00   7:  0.00   8:  0.00
   9:  0.00  10:  0.00  11:  0.00  12:  0.00  13:  0.00  14:  0.00  15:  0.00  16:  0.00
  17:  0.00  18:  0.00  19:  0.00  20:  0.00  21:  0.00  22:  0.00  23:  0.00  24:  0.00
  25:  0.00  26:  0.00  27:  0.00  28:  0.00  29:  0.00  30:  0.00  31:  0.00  32:  0.00
  33:  0.00  34:  0.00  35:  0.00  36:  0.00  37:  0.00  38:  0.00  39:  0.00  40:  0.00
  41:  0.00  42:  0.00  43:  0.00  44:  0.00  45:  0.00  46:  0.00  47:  0.00  48:  0.00
  49:  0.00  50:  0.00  51:  0.00  52:  0.00  53:  0.00  54:  0.00
 output can be read by thermo (or use thermo option).
 writing <g98.out> molden fake output.
 recommended (thermochemical) frequency scaling factor: 1.0
           -------------------------------------------------
          |             Thermodynamic Functions             |
           -------------------------------------------------

Molecule has no symmetry elements
It seems to be the C1 point group
c1  symmetry found (for desy threshold:  0.10E+00) used in thermo

          ...................................................
          :                      SETUP                      :
          :.................................................:
          :  # frequencies                          48      :
          :  # imaginary freq.                       0      :
          :  linear?                             false      :
          :  only rotor calc.                    false      :
          :  symmetry                               c1      :
          :  rotational number                       1      :
          :  scaling factor                  1.0000000      :
          :  rotor cutoff                    0.0000000 cm⁻¹ :
          :  imag. cutoff                 -100.0000000 cm⁻¹ :
          :.................................................:

    mode    ω/cm⁻¹     T·S(HO)/kcal·mol⁻¹    T·S(FR)/kcal·mol⁻¹   T·S(vib)
   ------------------------------------------------------------------------
       1     25.96    -1.82352 (100.00%)    -1.24964 (  0.00%)    -1.82352
       2     96.08    -1.05317 (100.00%)    -0.86278 (  0.00%)    -1.05317
       3    131.47    -0.87191 (100.00%)    -0.76995 (  0.00%)    -0.87191
       4    192.99    -0.65559 (100.00%)    -0.65629 (  0.00%)    -0.65559
       5    263.32    -0.48887 (100.00%)    -0.56429 (  0.00%)    -0.48887
   ------------------------------------------------------------------------

   temp. (K)  partition function   enthalpy   heat capacity  entropy
                                   cal/mol     cal/K/mol   cal/K/mol   J/K/mol
 298.15  VIB   233.                 3262.868     22.121     21.774
         ROT  0.172E+06              888.752      2.981     26.942
         INT  0.401E+08             4151.620     25.102     48.716
         TR   0.747E+27             1481.254      4.968     39.186
         TOT                        5632.8742    30.0705    87.9020   367.7819

       T/K    H(0)-H(T)+PV         H(T)/Eh          T*S/Eh         G(T)/Eh
   ------------------------------------------------------------------------
    298.15    0.897656E-02    0.171637E+00    0.417651E-01    0.129872E+00
   ------------------------------------------------------------------------

         :::::::::::::::::::::::::::::::::::::::::::::::::::::
         ::                  THERMODYNAMIC                  ::
         :::::::::::::::::::::::::::::::::::::::::::::::::::::
         :: total free energy         -18.812333433824 Eh   ::
         ::.................................................::
         :: total energy              -18.942205185149 Eh   ::
         :: zero point energy           0.162660260632 Eh   ::
         :: G(RRHO) w/o ZPVE           -0.032788509307 Eh   ::
         :: G(RRHO) contrib.            0.129871751325 Eh   ::
         :::::::::::::::::::::::::::::::::::::::::::::::::::::

optimized geometry written to: xtbopt.coord


           -------------------------------------------------
          | TOTAL ENERGY              -18.942205185149 Eh   |
          | TOTAL ENTHALPY            -18.770568368143 Eh   |
          | TOTAL FREE ENERGY         -18.812333433824 Eh   |
          | GRADIENT NORM               0.000028022157 Eh/α |
          | HOMO-LUMO GAP               5.256952597113 eV   |
           -------------------------------------------------

------------------------------------------------------------------------
 * finished run on 2025/04/11 at 10:48:00.914     
------------------------------------------------------------------------
 total:
 * wall-time:     0 d,  0 h,  0 min,  1.242 sec
 *  cpu-time:     0 d,  0 h,  0 min,  1.163 sec
 * ratio c/w:     0.937 speedup
 SCF:
 * wall-time:     0 d,  0 h,  0 min,  0.012 sec
 *  cpu-time:     0 d,  0 h,  0 min,  0.012 sec
 * ratio c/w:     0.988 speedup
 ANC optimizer:
 * wall-time:     0 d,  0 h,  0 min,  0.372 sec
 *  cpu-time:     0 d,  0 h,  0 min,  0.354 sec
 * ratio c/w:     0.950 speedup
 analytical hessian:
 * wall-time:     0 d,  0 h,  0 min,  0.799 sec
 *  cpu-time:     0 d,  0 h,  0 min,  0.786 sec
 * ratio c/w:     0.984 speedup

