
                                 *****************
                                 * O   R   C   A *
                                 *****************

                                            #,                                       
                                            ###                                      
                                            ####                                     
                                            #####                                    
                                            ######                                   
                                           ########,                                 
                                     ,,################,,,,,                         
                               ,,#################################,,                 
                          ,,##########################################,,             
                       ,#########################################, ''#####,          
                    ,#############################################,,   '####,        
                  ,##################################################,,,,####,       
                ,###########''''           ''''###############################       
              ,#####''   ,,,,##########,,,,          '''####'''          '####       
            ,##' ,,,,###########################,,,                        '##       
           ' ,,###''''                  '''############,,,                           
         ,,##''                                '''############,,,,        ,,,,,,###''
      ,#''                                            '''#######################'''  
     '                                                          ''''####''''         
             ,#######,   #######,   ,#######,      ##                                
            ,#'     '#,  ##    ##  ,#'     '#,    #''#        ,####,   ,####,        
            ##       ##  ##   ,#'  ##            #'  '#       #'       #'  '#        
            ##       ##  #######   ##           ,######,      #####,   #    #        
            '#,     ,#'  ##    ##  '#,     ,#' ,#      #,     #,   #   #,  ,#        
             '#######'   ##     ##  '#######'  #'      '#     '####' # '####'        



                #########################################################
                #                        -***-                          #
                #          Department of theory and spectroscopy        #
                #                                                       #
                #                      Frank Neese                      #
                #                                                       #
                #     Directorship, Architecture, Infrastructure        #
                #                    SHARK, DRIVERS                     #
                #        Core code/Algorithms in most modules           #
                #                                                       #
                #        Max Planck Institute fuer Kohlenforschung      #
                #                Kaiser Wilhelm Platz 1                 #
                #                 D-45470 Muelheim/Ruhr                 #
                #                      Germany                          #
                #                                                       #
                #                  All rights reserved                  #
                #                        -***-                          #
                #########################################################


                         Program Version 6.0.0  -   RELEASE  -


 With contributions from (in alphabetic order):
   Daniel Aravena         : Magnetic Suceptibility
   Michael Atanasov       : Ab Initio Ligand Field Theory (pilot matlab implementation)
   Alexander A. Auer      : GIAO ZORA, VPT2 properties, NMR spectrum
   Ute Becker             : All parallelization in ORCA, NUMFREQ, NUMCALC
   Giovanni Bistoni       : ED, misc. LED, open-shell LED, HFLD
   Martin Brehm           : Molecular dynamics
   Dmytro Bykov           : pre 5.0 version of the SCF Hessian
   Marcos Casanova-Páez   : Triplet and SCS-CIS(D). UHF-(DLPNO)-IP/EA/STEOM-CCSD. UHF-CVS-IP/STEOM-CCSD
   Vijay G. Chilkuri      : MRCI spin determinant printing, contributions to CSF-ICE
   Pauline Colinet        : FMM embedding
   Dipayan Datta          : RHF DLPNO-CCSD density
   Achintya Kumar Dutta   : EOM-CC, STEOM-CC
   Nicolas Foglia         : Exact transition moments, OPA infrastructure, MCD improvements
   Dmitry Ganyushin       : Spin-Orbit,Spin-Spin,Magnetic field MRCI
   Miquel Garcia          : C-PCM and meta-GGA Hessian, CCSD/C-PCM, Gaussian charge scheme
   Tiago L. C. Gouveia    : GS-ROHF, GS-ROCIS
   Yang Guo               : DLPNO-NEVPT2, F12-NEVPT2, CIM, IAO-localization
   Andreas Hansen         : Spin unrestricted coupled pair/coupled cluster methods
   Ingolf Harden          : AUTO-CI MPn and infrastructure 
   Benjamin Helmich-Paris : MC-RPA, TRAH-(SCF,CASSCF), AVAS, COSX integrals, SCF dyn. polar.
   Lee Huntington         : MR-EOM, pCC
   Robert Izsak           : Overlap fitted RIJCOSX, COSX-SCS-MP3, EOM
   Riya Kayal             : Wick's Theorem for AUTO-CI, AUTO-CI UHF-CCSDT
   Emily Kempfer          : AUTO-CI, RHF CISDT and CCSDT
   Christian Kollmar      : KDIIS, OOCD, Brueckner-CCSD(T), CCSD density, CASPT2, CASPT2-K, improved NEVPT2
   Axel Koslowski         : Symmetry handling
   Simone Kossmann        : Meta GGA functionals, TD-DFT gradient, OOMP2, (MP2 Hessian; deprecated post 5.0)
   Lucas Lang             : DCDCAS
   Marvin Lechner         : AUTO-CI (C++ implementation), FIC-MRCC
   Spencer Leger          : CASSCF response
   Dagmar Lenk            : GEPOL surface, SMD, ORCA-2-JSON
   Dimitrios Liakos       : Extrapolation schemes; Compound Job, initial MDCI parallelization
   Dimitrios Manganas     : Further ROCIS development; embedding schemes. LFT, Crystal Embedding
   Dimitrios Pantazis     : SARC Basis sets
   Anastasios Papadopoulos: AUTO-CI, single reference methods and gradients
   Taras Petrenko         : pre 6.0 DFT Hessian and TD-DFT gradient, (ASA, deprecated), ECA, 1-Electron XAS/XES, NRVS
   Peter Pinski           : DLPNO-MP2, DLPNO-MP2 Gradient
   Christoph Reimann      : Effective Core Potentials
   Marius Retegan         : Local ZFS, SOC
   Christoph Riplinger    : Optimizer, TS searches, QM/MM, DLPNO-CCSD(T), (RO)-DLPNO pert. Triples
   Michael Roemelt        : Original ROCIS implementation
   Masaaki Saitow         : Open-shell DLPNO-CCSD energy and density
   Barbara Sandhoefer     : DKH picture change effects
   Kantharuban Sivalingam : CASSCF convergence/infrastructure, NEVPT2 and variants, FIC-MRCI
   Bernardo de Souza      : ESD, SOC TD-DFT
   Georgi Stoychev        : AutoAux, RI-MP2 NMR, DLPNO-MP2 response, X2C
   Van Anh Tran           : RI-MP2 g-tensors
   Willem Van den Heuvel  : Paramagnetic NMR
   Zikuan Wang            : NOTCH, Electric field optimization 
   Frank Wennmohs         : Technical directorship and infrastructure
   Hang Xu                : AUTO-CI-Response properties 


 We gratefully acknowledge several colleagues who have allowed us to
 interface, adapt or use parts of their codes:
   Stefan Grimme, W. Hujo, H. Kruse, P. Pracht,  : VdW corrections, initial TS optimization,
                  C. Bannwarth, S. Ehlert,         DFT functionals, gCP, sTDA/sTD-DF
                  L. Wittmann, M. Mueller
   Ed Valeev, F. Pavosevic, A. Kumar             : LibInt (2-el integral package), F12 methods
   Garnet Chan, S. Sharma, J. Yang, R. Olivares  : DMRG
   Ulf Ekstrom                                   : XCFun DFT Library
   Mihaly Kallay                                 : mrcc  (arbitrary order and MRCC methods)
   Frank Weinhold                                : gennbo (NPA and NBO analysis)
   Simon Mueller                                 : openCOSMO-RS
   Christopher J. Cramer and Donald G. Truhlar   : smd solvation model
   Lars Goerigk                                  : TD-DFT with DH, B97 family of functionals
   V. Asgeirsson, H. Jonsson                     : NEB implementation
   FAccTs GmbH                                   : IRC, NEB, NEB-TS, DLPNO-Multilevel, CI-OPT
                                                   MM, QMMM, 2- and 3-layer-ONIOM, Crystal-QMMM,
                                                   LR-CPCM, SF, NACMEs, symmetry and pop. for TD-DFT,
                                                   nearIR, NL-DFT gradient (VV10), updates on ESD,
                                                   ML-optimized integration grids, MBIS, APM,
                                                   GOAT, DOCKER, SOLVATOR, interface openCOSMO-RS
   S Lehtola, MJT Oliveira, MAL Marques          : LibXC Library
   Liviu Ungur et al                             : ANISO software


 Your calculation uses the libint2 library for the computation of 2-el integrals
 For citations please refer to: http://libint.valeyev.net

 Your ORCA version has been built with support for libXC version: 6.2.2
 For citations please refer to: https://libxc.gitlab.io

 This ORCA versions uses:
   CBLAS   interface :  Fast vector & matrix operations
   LAPACKE interface :  Fast linear algebra routines
   SCALAPACK package :  Parallel linear algebra routines
   Shared memory     :  Shared parallel matrices
   BLAS/LAPACK       :  OpenBLAS 0.3.27  USE64BITINT DYNAMIC_ARCH NO_AFFINITY SkylakeX SINGLE_THREADED
        Core in use  :  SkylakeX
   Copyright (c) 2011-2014, The OpenBLAS Project


Your calculation utilizes the geometrical counterpoise correction gCP
Please cite in your paper:
H.Kruse, S. Grimme J.Chem.Phys., 136, (2012), 154101 
   

Your calculation utilizes the atom-pairwise dispersion correction
based on EEQ partial charges (D4)


Your calculation utilizes the SMD solvation module
Please cite in your paper:
A.V. Marenich, C.J. Cramer, D.G. Truhlar J. Phys. Chem. B, 113, (2009), 6378 

================================================================================

----- Orbital basis set information -----
Your calculation utilizes the basis: def2-mTZVPP
   Stefan Grimme, Andreas Hansen, Sebastian Ehlert, and Jan-Michael Mewes 
   J. Chem. Phys. 154, 064103 (2021). DOI: 10.1063/5.0040021

----- AuxJ basis set information -----
Your calculation utilizes the auxiliary basis: def2/J
   F. Weigend, Phys. Chem. Chem. Phys. 8, 1057 (2006).

================================================================================
                                        WARNINGS
                       Please study these warnings very carefully!
================================================================================

Using LibXC functional ID 497 : Re-regularized SCAN exchange by Furness et al
[ 1]  J. W. Furness, A. D. Kaplan, J. Ning, J. P. Perdew, and J. Sun.,  J. Phys. Chem. Lett. 11, 8208-8215 (2020)
[ 2]  J. W. Furness, A. D. Kaplan, J. Ning, J. P. Perdew, and J. Sun.,  J. Phys. Chem. Lett. 11, 9248-9248 (2020)
Using LibXC functional ID 498 : Re-regularized SCAN correlation by Furness et al
[ 1]  J. W. Furness, A. D. Kaplan, J. Ning, J. P. Perdew, and J. Sun.,  J. Phys. Chem. Lett. 11, 8208-8215 (2020)
[ 2]  J. W. Furness, A. D. Kaplan, J. Ning, J. P. Perdew, and J. Sun.,  J. Phys. Chem. Lett. 11, 9248-9248 (2020)
Using LibXC functional ID 497 : Re-regularized SCAN exchange by Furness et al
[ 1]  J. W. Furness, A. D. Kaplan, J. Ning, J. P. Perdew, and J. Sun.,  J. Phys. Chem. Lett. 11, 8208-8215 (2020)
[ 2]  J. W. Furness, A. D. Kaplan, J. Ning, J. P. Perdew, and J. Sun.,  J. Phys. Chem. Lett. 11, 9248-9248 (2020)
Using LibXC functional ID 498 : Re-regularized SCAN correlation by Furness et al
[ 1]  J. W. Furness, A. D. Kaplan, J. Ning, J. P. Perdew, and J. Sun.,  J. Phys. Chem. Lett. 11, 8208-8215 (2020)
[ 2]  J. W. Furness, A. D. Kaplan, J. Ning, J. P. Perdew, and J. Sun.,  J. Phys. Chem. Lett. 11, 9248-9248 (2020)

================================================================================
                                       INPUT FILE
================================================================================
NAME = sp_solv.inp
|  1> ! r2scan-3c def2/J RI DEFGRID2 scfconv6 printgap
|  2> %output
|  3>     printlevel normal
|  4> end
|  5> %cpcm
|  6>     smd true
|  7>     smdsolvent "water"
|  8> end
|  9> * xyz 0 1
| 10> C -2.1213882681 0.2215953601 1.3126854407
| 11> C -1.7651394105 -0.5720964495 0.0582862918
| 12> C -2.9068051502 -0.5373849413 -0.9538579046
| 13> C -0.4951630038 -0.0154087191 -0.5813092641
| 14> O 0.6057736088 -0.2303902555 0.3117186149
| 15> C 1.7884273281 0.2566093005 -0.0401349751
| 16> O 1.9697067161 0.8763005068 -1.0693368873
| 17> C 2.8483588677 -0.0609831719 0.9709151196
| 18> H -1.2922303911 0.2073107637 2.0149314934
| 19> H -2.9940114624 -0.2091677139 1.7955189991
| 20> H -2.3419039093 1.2552508282 1.055682428
| 21> H -1.5633280974 -1.6095237717 0.3420149852
| 22> H -3.8120191714 -0.9380008936 -0.5069699874
| 23> H -2.6630380702 -1.1290626622 -1.8323402782
| 24> H -3.1002122227 0.4849933591 -1.2695740208
| 25> H -0.2735366954 -0.515225706 -1.5304053791
| 26> H -0.5835648195 1.0587570568 -0.7772918425
| 27> H 3.4520360132 0.8237154232 1.1506413975
| 28> H 3.4965661137 -0.8323249841 0.5609365562
| 29> H 2.3921238872 -0.4167124379 1.8880044284
| 30> *
| 31> 
| 32>                          ****END OF INPUT****
================================================================================

                       ****************************
                       * Single Point Calculation *
                       ****************************

---------------------------------
CARTESIAN COORDINATES (ANGSTROEM)
---------------------------------
  C     -2.121388    0.221595    1.312685
  C     -1.765139   -0.572096    0.058286
  C     -2.906805   -0.537385   -0.953858
  C     -0.495163   -0.015409   -0.581309
  O      0.605774   -0.230390    0.311719
  C      1.788427    0.256609   -0.040135
  O      1.969707    0.876301   -1.069337
  C      2.848359   -0.060983    0.970915
  H     -1.292230    0.207311    2.014931
  H     -2.994011   -0.209168    1.795519
  H     -2.341904    1.255251    1.055682
  H     -1.563328   -1.609524    0.342015
  H     -3.812019   -0.938001   -0.506970
  H     -2.663038   -1.129063   -1.832340
  H     -3.100212    0.484993   -1.269574
  H     -0.273537   -0.515226   -1.530405
  H     -0.583565    1.058757   -0.777292
  H      3.452036    0.823715    1.150641
  H      3.496566   -0.832325    0.560937
  H      2.392124   -0.416712    1.888004

----------------------------
CARTESIAN COORDINATES (A.U.)
----------------------------
  NO LB      ZA    FRAG     MASS         X           Y           Z
   0 C     6.0000    0    12.011   -4.008843    0.418755    2.480616
   1 C     6.0000    0    12.011   -3.335630   -1.081106    0.110145
   2 C     6.0000    0    12.011   -5.493066   -1.015510   -1.802530
   3 C     6.0000    0    12.011   -0.935722   -0.029118   -1.098515
   4 O     8.0000    0    15.999    1.144746   -0.435374    0.589063
   5 C     6.0000    0    12.011    3.379638    0.484921   -0.075844
   6 O     8.0000    0    15.999    3.722206    1.655968   -2.020754
   7 C     6.0000    0    12.011    5.382618   -0.115241    1.834764
   8 H     1.0000    0     1.008   -2.441962    0.391761    3.807669
   9 H     1.0000    0     1.008   -5.657862   -0.395270    3.393039
  10 H     1.0000    0     1.008   -4.425557    2.372080    1.994951
  11 H     1.0000    0     1.008   -2.954262   -3.041559    0.646315
  12 H     1.0000    0     1.008   -7.203672   -1.772565   -0.958034
  13 H     1.0000    0     1.008   -5.032413   -2.133619   -3.462621
  14 H     1.0000    0     1.008   -5.858552    0.916505   -2.399147
  15 H     1.0000    0     1.008   -0.516909   -0.973635   -2.892047
  16 H     1.0000    0     1.008   -1.102778    2.000761   -1.468869
  17 H     1.0000    0     1.008    6.523403    1.556597    2.174397
  18 H     1.0000    0     1.008    6.607552   -1.572866    1.060016
  19 H     1.0000    0     1.008    4.520459   -0.787472    3.567811

--------------------------------
INTERNAL COORDINATES (ANGSTROEM)
--------------------------------
 C      0   0   0     0.000000000000     0.00000000     0.00000000
 C      1   0   0     1.526557290746     0.00000000     0.00000000
 C      2   1   0     1.526119728040   111.01244388     0.00000000
 C      2   1   3     1.527031033699   110.40893852   121.80617600
 O      4   2   1     1.433798200106   108.84764390    65.53658443
 C      5   4   2     1.326513978861   117.66625037   183.72627181
 O      6   5   4     1.214963367248   123.02256743     0.53152444
 C      6   5   4     1.498846937201   111.94762774   180.98122602
 H      1   2   3     1.086672146150   110.25038558   181.26479793
 H      1   2   3     1.086349994371   110.27400647    61.23648493
 H      1   2   3     1.087713805780   110.31862038   301.27653776
 H      2   1   3     1.094296681161   108.83756254   239.58655455
 H      3   2   1     1.086100536762   110.01198512   301.90181480
 H      3   2   1     1.086846905239   110.84845536   181.79244966
 H      3   2   1     1.087354749311   110.30471598    61.61509070
 H      4   2   1     1.095316701451   111.39887037   185.02776552
 H      4   2   1     1.095470750942   111.42516036   305.69197186
 H      8   6   5     1.086010697525   109.39683673   224.25441346
 H      8   6   5     1.087760657251   108.50702220   106.66820328
 H      8   6   5     1.084318434979   110.02858374   346.65947313

---------------------------
INTERNAL COORDINATES (A.U.)
---------------------------
 C      0   0   0     0.000000000000     0.00000000     0.00000000
 C      1   0   0     2.884775207250     0.00000000     0.00000000
 C      2   1   0     2.883948333570   111.01244388     0.00000000
 C      2   1   3     2.885670451690   110.40893852   121.80617600
 O      4   2   1     2.709485929510   108.84764390    65.53658443
 C      5   4   2     2.506748132866   117.66625037   183.72627181
 O      6   5   4     2.295948026846   123.02256743     0.53152444
 C      6   5   4     2.832410227977   111.94762774   180.98122602
 H      1   2   3     2.053512753584   110.25038558   181.26479793
 H      1   2   3     2.052903974948   110.27400647    61.23648493
 H      1   2   3     2.055481205009   110.31862038   301.27653776
 H      2   1   3     2.067921036654   108.83756254   239.58655455
 H      3   2   1     2.052432568384   110.01198512   301.90181480
 H      3   2   1     2.053843000401   110.84845536   181.79244966
 H      3   2   1     2.054802686617   110.30471598    61.61509070
 H      4   2   1     2.069848595652   111.39887037   185.02776552
 H      4   2   1     2.070139707002   111.42516036   305.69197186
 H      8   6   5     2.052262796831   109.39683673   224.25441346
 H      8   6   5     2.055569741458   108.50702220   106.66820328
 H      8   6   5     2.049064884073   110.02858374   346.65947313

---------------------
BASIS SET INFORMATION
---------------------
There are 3 groups of distinct atoms

 Group   1 Type C   : 11s6p1d contracted to 5s3p1d pattern {62111/411/1}
 Group   2 Type O   : 11s6p2d contracted to 5s3p2d pattern {62111/411/11}
 Group   3 Type H   : 4s1p contracted to 2s1p pattern {31/1}

Atom   0C    basis set group =>   1
Atom   1C    basis set group =>   1
Atom   2C    basis set group =>   1
Atom   3C    basis set group =>   1
Atom   4O    basis set group =>   2
Atom   5C    basis set group =>   1
Atom   6O    basis set group =>   2
Atom   7C    basis set group =>   1
Atom   8H    basis set group =>   3
Atom   9H    basis set group =>   3
Atom  10H    basis set group =>   3
Atom  11H    basis set group =>   3
Atom  12H    basis set group =>   3
Atom  13H    basis set group =>   3
Atom  14H    basis set group =>   3
Atom  15H    basis set group =>   3
Atom  16H    basis set group =>   3
Atom  17H    basis set group =>   3
Atom  18H    basis set group =>   3
Atom  19H    basis set group =>   3
---------------------------------
AUXILIARY/J BASIS SET INFORMATION
---------------------------------
There are 3 groups of distinct atoms

 Group   1 Type C   : 12s5p4d2f1g contracted to 6s4p3d1f1g pattern {711111/2111/211/2/1}
 Group   2 Type O   : 12s5p4d2f1g contracted to 6s4p3d1f1g pattern {711111/2111/211/2/1}
 Group   3 Type H   : 5s2p1d contracted to 3s1p1d pattern {311/2/1}

Atom   0C    basis set group =>   1
Atom   1C    basis set group =>   1
Atom   2C    basis set group =>   1
Atom   3C    basis set group =>   1
Atom   4O    basis set group =>   2
Atom   5C    basis set group =>   1
Atom   6O    basis set group =>   2
Atom   7C    basis set group =>   1
Atom   8H    basis set group =>   3
Atom   9H    basis set group =>   3
Atom  10H    basis set group =>   3
Atom  11H    basis set group =>   3
Atom  12H    basis set group =>   3
Atom  13H    basis set group =>   3
Atom  14H    basis set group =>   3
Atom  15H    basis set group =>   3
Atom  16H    basis set group =>   3
Atom  17H    basis set group =>   3
Atom  18H    basis set group =>   3
Atom  19H    basis set group =>   3

Checking for AutoStart:
The File: sp_solv.gbw exists
Trying to determine its content:
     ... Fine, the file contains calculation information
     ... Fine, the calculation information was read
     ... Fine, the file contains a basis set
     ... Fine, the basis set was read
     ... Fine, the file contains a geometry
     ... Fine, the geometry was read
     ... Fine, the file contains a set of orbitals
     ... Fine, the orbitals can be read
     => possible old guess file was deleted
     => GBW file was renamed to GES file
     => GES file is set as startup file
     => Guess is set to MORead
     ... now leaving AutoStart

------------------------------------------------------------------------------
                             ORCA STARTUP CALCULATIONS
                           -- RI-GTO INTEGRALS CHOSEN --
------------------------------------------------------------------------------
------------------------------------------------------------------------------
                   ___                                                        
                  /   \      - P O W E R E D   B Y -                         
                 /     \                                                     
                 |  |  |   _    _      __       _____    __    __             
                 |  |  |  | |  | |    /  \     |  _  \  |  |  /  |          
                  \  \/   | |  | |   /    \    | | | |  |  | /  /          
                 / \  \   | |__| |  /  /\  \   | |_| |  |  |/  /          
                |  |  |   |  __  | /  /__\  \  |    /   |      \           
                |  |  |   | |  | | |   __   |  |    \   |  |\   \          
                \     /   | |  | | |  |  |  |  | |\  \  |  | \   \       
                 \___/    |_|  |_| |__|  |__|  |_| \__\ |__|  \__/        
                                                                              
                      - O R C A' S   B I G   F R I E N D -                    
                                      &                                       
                       - I N T E G R A L  F E E D E R -                       
                                                                              
 v1 FN, 2020, v2 2021, v3 2022-2024                                           
------------------------------------------------------------------------------


----------------------
SHARK INTEGRAL PACKAGE
----------------------

Number of atoms                             ...     20
Number of basis functions                   ...    222
Number of shells                            ...    110
Maximum angular momentum                    ...      2
Integral batch strategy                     ... SHARK/LIBINT Hybrid
RI-J (if used) integral strategy            ... SPLIT-RIJ (Revised 2003 algorithm where possible)
Printlevel                                  ...      1
Contraction scheme used                     ... SEGMENTED contraction
Prescreening option                         ... SCHWARTZ
   Thresh                                   ... 1.000e-10
   Tcut                                     ... 1.000e-11
   Tpresel                                  ... 1.000e-11 
Coulomb Range Separation                    ... NOT USED
Exchange Range Separation                   ... NOT USED
Multipole approximations                    ... NOT USED
Finite Nucleus Model                        ... NOT USED
CABS basis                                  ... NOT available
Auxiliary Coulomb fitting basis             ... AVAILABLE
   # of basis functions in Aux-J            ...    524
   # of shells in Aux-J                     ...    180
   Maximum angular momentum in Aux-J        ...      4
Auxiliary J/K fitting basis                 ... NOT available
Auxiliary Correlation fitting basis         ... NOT available
Auxiliary 'external' fitting basis          ... NOT available

Checking pre-screening integrals            ... done (  0.0 sec) Dimension = 110
Check shell pair data                       ... done (  0.0 sec)
Shell pair information
Shell pair cut-off parameter TPreSel        ...   1.0e-11
Total number of shell pairs                 ...      6105
Shell pairs after pre-screening             ...      5301
Total number of primitive shell pairs       ...     21533
Primitive shell pairs kept                  ...     13230
          la=0 lb=0:   1782 shell pairs
          la=1 lb=0:   2006 shell pairs
          la=1 lb=1:    587 shell pairs
          la=2 lb=0:    560 shell pairs
          la=2 lb=1:    316 shell pairs
          la=2 lb=2:     50 shell pairs

Calculating one electron integrals          ... done (  0.0 sec)
Calculating RI/J V-Matrix + Cholesky decomp.... done (  0.1 sec)
Calculating Nuclear repulsion               ... done (  0.0 sec) ENN=    391.701035414624 Eh

Diagonalization of the overlap matrix:
Smallest eigenvalue                        ... 2.110e-04
Time for diagonalization                   ...    0.005 sec
Threshold for overlap eigenvalues          ... 1.000e-07
Number of eigenvalues below threshold      ... 0
Time for construction of square roots      ...    0.018 sec
Total time needed                          ...    0.041 sec

-------------------
DFT GRID GENERATION
-------------------

General Integration Accuracy     IntAcc      ... 4.388
Radial Grid Type                 RadialGrid  ... OptM3 with GC (2021)
Angular Grid (max. ang.)         AngularGrid ... 4 (Lebedev-302)
Angular grid pruning method      GridPruning ... 4 (adaptive)
Weight generation scheme         WeightScheme... mBecke (2022)
Basis function cutoff            BFCut       ... 1.0000e-10
Integration weight cutoff        WCut        ... 1.0000e-14
Partially contracted basis set               ... off
Rotationally invariant grid construction     ... off
Angular grids for H and He will be reduced by one unit
Diffuse basis detected: some atoms will have their outermost
                        angular grid increased by 1.

Total number of grid points                  ...    87360
Total number of batches                      ...     1377
Average number of points per batch           ...       63
Average number of grid points per atom       ...     4368
Initializing property integral containers    ... done (  0.0 sec)

SHARK setup successfully completed in   1.3 seconds

Maximum memory used throughout the entire STARTUP-calculation: 39.5 MB
-------------------------------------------------------------------------------
                                 ORCA GUESS
                   Start orbitals & Density for SCF / CASSCF
-------------------------------------------------------------------------------

------------
SCF SETTINGS
------------
Hamiltonian:
 Density Functional     Method          .... DFT(GTOs)
  Functional kind                       .... Exchange
  Functional name                       .... Re-regularized SCAN exchange by Furness et al
  Functional family                     .... MGGA
  Functional refs                              
    [ 0] J. W. Furness, A. D. Kaplan, J. Ning, J. P. Perdew, and J. Sun.,  J. Phys. Chem. Lett. 11, 8208-8215 (2020), doi: 10.1021/acs.jpclett.0c02405
    [ 1] J. W. Furness, A. D. Kaplan, J. Ning, J. P. Perdew, and J. Sun.,  J. Phys. Chem. Lett. 11, 9248-9248 (2020), doi: 10.1021/acs.jpclett.0c03077
  Functional external parameters        .... 6
    Parameter  0 _c1        =  6.670000e-01 : c1 parameter        
    Parameter  1 _c2        =  8.000000e-01 : c2 parameter        
    Parameter  2 _d         =  1.240000e+00 : d parameter         
    Parameter  3 _k1        =  6.500000e-02 : k1 parameter        
    Parameter  4 _eta       =  1.000000e-03 : eta parameter       
    Parameter  5 _dp2       =  3.610000e-01 : dp2 parameter       
  Functional kind                       .... Correlation
  Functional name                       .... Re-regularized SCAN correlation by Furness et al
  Functional family                     .... MGGA
  Functional refs                              
    [ 0] J. W. Furness, A. D. Kaplan, J. Ning, J. P. Perdew, and J. Sun.,  J. Phys. Chem. Lett. 11, 8208-8215 (2020), doi: 10.1021/acs.jpclett.0c02405
    [ 1] J. W. Furness, A. D. Kaplan, J. Ning, J. P. Perdew, and J. Sun.,  J. Phys. Chem. Lett. 11, 9248-9248 (2020), doi: 10.1021/acs.jpclett.0c03077
  Functional external parameters        .... 1
    Parameter  0 _eta       =  1.000000e-03 : Regularization parameter
 Gradients option       PostSCFGGA      .... off
 RI-approximation to the Coulomb term is turned on
   Number of AuxJ basis functions       .... 524


General Settings:
 Integral files         IntName         .... sp_solv
 Hartree-Fock type      HFTyp           .... RHF
 Total Charge           Charge          ....    0
 Multiplicity           Mult            ....    1
 Number of Electrons    NEL             ....   64
 Basis Dimension        Dim             ....  222
 Nuclear Repulsion      ENuc            ....    391.7010354146 Eh

Convergence Acceleration:
 AO-DIIS                CNVDIIS         .... on
   Start iteration      DIISMaxIt       ....    12
   Startup error        DIISStart       ....  0.200000
   # of expansion vecs  DIISMaxEq       ....     5
   Bias factor          DIISBfac        ....   1.050
   Max. coefficient     DIISMaxC        ....  10.000
 MO-DIIS                CNVKDIIS        .... off
 Trust-Rad. Augm. Hess. CNVTRAH         .... auto
   Auto Start mean grad. ratio tolernc. ....  1.125000
   Auto Start start iteration           ....     1
   Auto Start num. interpolation iter.  ....    10
   Max. Number of Micro iterations      ....    24
   Max. Number of Macro iterations      .... Maxiter - #DIIS iter
   Number of Davidson start vectors     ....     2
   Converg. threshold    (grad. norm)   ....   3.330e-04
   Grad. Scal. Fac. for Micro threshold ....   0.100
   Minimum threshold for Micro iter.    ....   1.000e-02
   NR start threshold (gradient norm)   ....   1.000e-04
   Initial trust radius                 ....   0.400
   Minimum AH scaling param. (alpha)    ....   1.000
   Maximum AH scaling param. (alpha)    .... 1000.000
   Quad. conv. algorithm                .... NR
   White noise on init. David. guess    .... on
   Maximum white noise                  ....   0.010
   Pseudo random numbers                .... off
   Inactive MOs                         .... canonical
   Orbital update algorithm             .... Taylor
   Preconditioner                       .... Diag
   Full preconditioner red. dimension   ....   250
   COSX micro iterations for RIJONX calc.... off
 SOSCF                  CNVSOSCF        .... on
   Start iteration      SOSCFMaxIt      ....   150
   Startup grad/error   SOSCFStart      ....  0.003300
   Hessian update       SOSCFHessUp     .... L-BFGS
 Level Shifting         CNVShift        .... on
   Level shift para.    LevelShift      ....    0.2500
   Turn off err/grad.   ShiftErr        ....    0.0010
 Zerner damping         CNVZerner       .... off
 Static damping         CNVDamp         .... on
   Fraction old density DampFac         ....    0.7000
   Max. Damping (<1)    DampMax         ....    0.9800
   Min. Damping (>=0)   DampMin         ....    0.0000
   Turn off err/grad.   DampErr         ....    0.1000

SCF Procedure:
 Maximum # iterations   MaxIter         ....   125
 SCF integral mode      SCFMode         .... Direct
   Integral package                     .... SHARK and LIBINT hybrid scheme
 Reset frequency        DirectResetFreq ....    20
 Integral Threshold     Thresh          ....  1.000e-10 Eh
 Primitive CutOff       TCut            ....  1.000e-11 Eh

Convergence Tolerance:
 Convergence Check Mode ConvCheckMode   .... Total+1el-Energy
 Convergence forced     ConvForced      .... 0
 Energy Change          TolE            ....  1.000e-06 Eh
 1-El. energy change                    ....  1.000e-03 Eh
 Orbital Gradient       TolG            ....  3.330e-04
 Orbital Rotation angle TolX            ....  3.330e-04
 DIIS Error             TolErr          ....  1.000e-06

---------------------
INITIAL GUESS: MOREAD
---------------------
Guess MOs are being read from file: sp_solv.ges
Input Geometry matches current geometry (good)
Atom 0: N(Shells)= 9 and 6 - projection required
Input basis set needs projection
NBasis(read)= 136
NBasis(calc)= 222
Basis set overlap was calculated
Using GuessMode=FMatrix for the initial guess
C*T matrix was formed
Effective Fockian was calculated
Effective Fockian was diagonalized
Initial density was built
                      ------------------
                      INITIAL GUESS DONE (   0.1 sec)
                      ------------------
             **** ENERGY FILE WAS UPDATED (sp_solv.en.tmp) ****
Finished Guess after   0.3 sec
Maximum memory used throughout the entire GUESS-calculation: 15.1 MB

-------------------------------------------------------------------------------------------
                                      ORCA LEAN-SCF
                              memory conserving SCF solver
-------------------------------------------------------------------------------------------

--------------------
CPCM SOLVATION MODEL
--------------------
CPCM parameters:
  Epsilon                                         ...      78.3550
  Refrac                                          ...       1.3328
  Rsolv                                           ...       1.3000
  Surface type                                    ... GAUSSIAN VDW
  Discretization scheme                           ... Constant charge density
    Threshold for H atoms                         ...       5.0000 (charges/Ang^2)
    Threshold for non-H atoms                     ...       5.0000 (charges/Ang^2)
  Epsilon function type                           ...         CPCM
Solvent:                                          ... WATER
SMD-CDS solvent descriptors:
  Soln                                            ...       1.3328
  Soln25                                          ...       1.3323
  Sola                                            ...       0.0000
  Solb                                            ...       0.0000
  Solg                                            ...       0.0000
  Solc                                            ...       0.0000
  Solh                                            ...       0.0000
Radii:
  Scheme                                          ... Element-dependent radii
  Radius for C  used is    3.4960 Bohr (=   1.8500 Ang.)
  Radius for O  used is    2.8724 Bohr (=   1.5200 Ang.)
  Radius for H  used is    2.2677 Bohr (=   1.2000 Ang.)
Calculating surface                               ...        done! (  0.0s)
Cavity surface points                             ...         1508
Cavity Volume                                     ...     876.8523
Cavity Surface-area                               ...     586.6045
Calculating surface distance matrix               ...        done! (  0.0s)
Performing Cholesky decomposition & store         ...        done! (  0.1s)
Overall time for CPCM initialization              ...                 0.1s

----------------------------------------D-I-I-S--------------------------------------------
Iteration    Energy (Eh)           Delta-E    RMSDP     MaxDP     DIISErr   Damp  Time(sec)
-------------------------------------------------------------------------------------------
               ***  Starting incremental Fock matrix formation  ***
    1    -386.0581838447546943     0.00e+00  3.44e-03  1.35e-01  6.27e-01  0.700   3.6
    2    -386.1177008127988302    -5.95e-02  2.86e-03  1.00e-01  4.41e-01  0.700   3.5
    3    -386.1598423747374227    -4.21e-02  2.12e-03  7.09e-02  3.10e-01  0.700   3.3
    4    -386.1894759876846592    -2.96e-02  1.53e-03  5.00e-02  2.17e-01  0.700   3.2
                               ***Turning on AO-DIIS***
    5    -386.2102908575607216    -2.08e-02  1.12e-03  3.60e-02  1.52e-01  0.700   3.1
    6    -386.2248872628180152    -1.46e-02  7.99e-04  2.55e-02  1.06e-01  0.700   3.2
    7    -386.2351366627962079    -1.02e-02  5.65e-04  1.80e-02  7.41e-02  0.700   3.2
    8    -386.2423210801572395    -7.18e-03  1.33e-03  4.22e-02  5.20e-02  0.000   3.7
                              *** Initializing SOSCF ***
---------------------------------------S-O-S-C-F--------------------------------------
Iteration    Energy (Eh)           Delta-E    RMSDP     MaxDP     MaxGrad    Time(sec)
--------------------------------------------------------------------------------------
    9    -386.2591220609784841    -1.68e-02  1.41e-05  4.88e-04  2.02e-04     3.2
               *** Restarting incremental Fock matrix formation ***
   10    -386.2591221752745696    -1.14e-07  7.95e-06  1.98e-04  6.36e-05     3.5
                  *** Gradient check signals convergence ***

               *****************************************************
               *                     SUCCESS                       *
               *           SCF CONVERGED AFTER  10 CYCLES          *
               *****************************************************


SMD CDS free energy correction energy :                 5.35273     Kcal/mol
Total Energy after SMD CDS correction =              -386.250592062 Eh
             **** ENERGY FILE WAS UPDATED (sp_solv.en.tmp) ****

----------------
TOTAL SCF ENERGY
----------------

Total Energy       :       -386.25059206249733 Eh          -10510.41295 eV

Components:
Nuclear Repulsion  :        391.70103541462436 Eh           10658.72705 eV
Electronic Energy  :       -777.94341053647065 Eh          -21168.91641 eV
One Electron Energy:      -1300.56496216080495 Eh          -35390.17182 eV
Two Electron Energy:        522.62155162433430 Eh           14221.25541 eV
CPCM Dielectric    :         -0.01674705342828 Eh              -0.45571 eV
SMD CDS (Gcds)     :          0.00853011277723 Eh               0.23212 eV

Virial components:
Potential Energy   :       -770.89663213087420 Eh          -20977.16382 eV
Kinetic Energy     :        384.64604006837692 Eh           10466.75087 eV
Virial Ratio       :          2.00417150269852

DFT components:
N(Alpha)           :       31.999996372486 electrons
N(Beta)            :       31.999996372486 electrons
N(Total)           :       63.999992744972 electrons
E(X)               :      -52.084768073088 Eh       
E(C)               :       -2.038439272781 Eh       
E(XC)              :      -54.123207345870 Eh       

CPCM Solvation Model Properties:
Surface-charge          :         -0.04831830066849
Corrected charge        :          0.00000000000000
Outlying charge corr.   :          0.00017569243295 Eh               0.00478 eV
Free-energy (cav+disp)  :          0.00853011277723 Eh               0.23212 eV

---------------
SCF CONVERGENCE
---------------

  Last Energy change         ...    1.1430e-07  Tolerance :   1.0000e-06
  Last MAX-Density change    ...    1.9751e-04  Tolerance :   1.0000e-05
  Last RMS-Density change    ...    7.9461e-06  Tolerance :   1.0000e-06
  Last DIIS Error            ...    2.0209e-04  Tolerance :   1.0000e-06
  Last Orbital Gradient      ...    6.3618e-05  Tolerance :   3.3300e-04
  Last Orbital Rotation      ...    1.4355e-04  Tolerance :   3.3300e-04


----------------
ORBITAL ENERGIES
----------------

  NO   OCC          E(Eh)            E(eV) 
   0   2.0000     -19.003565      -517.1133 
   1   2.0000     -18.943010      -515.4655 
   2   2.0000     -10.165263      -276.6109 
   3   2.0000     -10.079658      -274.2814 
   4   2.0000     -10.034715      -273.0585 
   5   2.0000     -10.030370      -272.9402 
   6   2.0000     -10.012161      -272.4448 
   7   2.0000     -10.009382      -272.3691 
   8   2.0000      -1.080363       -29.3982 
   9   2.0000      -0.988389       -26.8954 
  10   2.0000      -0.777218       -21.1492 
  11   2.0000      -0.722548       -19.6615 
  12   2.0000      -0.655239       -17.8300 
  13   2.0000      -0.647251       -17.6126 
  14   2.0000      -0.544989       -14.8299 
  15   2.0000      -0.529956       -14.4208 
  16   2.0000      -0.464882       -12.6501 
  17   2.0000      -0.462315       -12.5802 
  18   2.0000      -0.447646       -12.1811 
  19   2.0000      -0.420026       -11.4295 
  20   2.0000      -0.398156       -10.8344 
  21   2.0000      -0.389508       -10.5990 
  22   2.0000      -0.373280       -10.1575 
  23   2.0000      -0.359692        -9.7877 
  24   2.0000      -0.347803        -9.4642 
  25   2.0000      -0.335266        -9.1230 
  26   2.0000      -0.334663        -9.1066 
  27   2.0000      -0.305484        -8.3126 
  28   2.0000      -0.299970        -8.1626 
  29   2.0000      -0.292141        -7.9496 
  30   2.0000      -0.276854        -7.5336 
  31   2.0000      -0.252822        -6.8796 
  32   0.0000      -0.021667        -0.5896 
  33   0.0000       0.074835         2.0364 
  34   0.0000       0.092276         2.5109 
  35   0.0000       0.125095         3.4040 
  36   0.0000       0.134231         3.6526 
  37   0.0000       0.141171         3.8414 
  38   0.0000       0.143322         3.9000 
  39   0.0000       0.147432         4.0118 
  40   0.0000       0.154082         4.1928 
  41   0.0000       0.164452         4.4750 
  42   0.0000       0.173312         4.7160 
*Only the first 10 virtual orbitals were printed.

                    ********************************
                    * MULLIKEN POPULATION ANALYSIS *
                    ********************************

-----------------------
MULLIKEN ATOMIC CHARGES
-----------------------
   0 C :   -0.533974
   1 C :    0.022489
   2 C :   -0.529983
   3 C :   -0.239541
   4 O :   -0.177827
   5 C :    0.461998
   6 O :   -0.510650
   7 C :   -0.562058
   8 H :    0.161351
   9 H :    0.164043
  10 H :    0.162823
  11 H :    0.156303
  12 H :    0.165823
  13 H :    0.161076
  14 H :    0.162737
  15 H :    0.170438
  16 H :    0.180635
  17 H :    0.192610
  18 H :    0.203596
  19 H :    0.188111
Sum of atomic charges:   -0.0000000

--------------------------------
MULLIKEN REDUCED ORBITAL CHARGES
--------------------------------
  0 C s       :     3.341164  s :     3.341164
      pz      :     1.005335  p :     3.166047
      px      :     1.109256
      py      :     1.051455
      dz2     :     0.004640  d :     0.026763
      dxz     :     0.008345
      dyz     :     0.004823
      dx2y2   :     0.006145
      dxy     :     0.002810

  1 C s       :     3.033928  s :     3.033928
      pz      :     0.911031  p :     2.897768
      px      :     0.925648
      py      :     1.061089
      dz2     :     0.008792  d :     0.045815
      dxz     :     0.012051
      dyz     :     0.008207
      dx2y2   :     0.010033
      dxy     :     0.006732

  2 C s       :     3.345712  s :     3.345712
      pz      :     1.038581  p :     3.157547
      px      :     1.022312
      py      :     1.096653
      dz2     :     0.004424  d :     0.026724
      dxz     :     0.006696
      dyz     :     0.005786
      dx2y2   :     0.006275
      dxy     :     0.003543

  3 C s       :     3.337815  s :     3.337815
      pz      :     0.943834  p :     2.848449
      px      :     0.815405
      py      :     1.089210
      dz2     :     0.009783  d :     0.053277
      dxz     :     0.015299
      dyz     :     0.007328
      dx2y2   :     0.013020
      dxy     :     0.007847

  4 O s       :     3.707527  s :     3.707527
      pz      :     1.627586  p :     4.429096
      px      :     1.109005
      py      :     1.692505
      dz2     :     0.009142  d :     0.041204
      dxz     :     0.014295
      dyz     :     0.007841
      dx2y2   :     0.001828
      dxy     :     0.008099

  5 C s       :     3.116319  s :     3.116319
      pz      :     0.749361  p :     2.296436
      px      :     0.800028
      py      :     0.747047
      dz2     :     0.028379  d :     0.125246
      dxz     :     0.038255
      dyz     :     0.016107
      dx2y2   :     0.018924
      dxy     :     0.023581

  6 O s       :     3.832634  s :     3.832634
      pz      :     1.387576  p :     4.656259
      px      :     1.808166
      py      :     1.460517
      dz2     :     0.007591  d :     0.021756
      dxz     :     0.001894
      dyz     :     0.007198
      dx2y2   :     0.003148
      dxy     :     0.001925

  7 C s       :     3.376347  s :     3.376347
      pz      :     1.013189  p :     3.161570
      px      :     1.039646
      py      :     1.108735
      dz2     :     0.004038  d :     0.024141
      dxz     :     0.008239
      dyz     :     0.003574
      dx2y2   :     0.002411
      dxy     :     0.005878

  8 H s       :     0.820267  s :     0.820267
      pz      :     0.006720  p :     0.018382
      px      :     0.007996
      py      :     0.003666

  9 H s       :     0.817623  s :     0.817623
      pz      :     0.005139  p :     0.018334
      px      :     0.008481
      py      :     0.004714

 10 H s       :     0.818972  s :     0.818972
      pz      :     0.003876  p :     0.018205
      px      :     0.003965
      py      :     0.010364

 11 H s       :     0.826106  s :     0.826106
      pz      :     0.003787  p :     0.017591
      px      :     0.003401
      py      :     0.010403

 12 H s       :     0.815798  s :     0.815798
      pz      :     0.004765  p :     0.018380
      px      :     0.008927
      py      :     0.004688

 13 H s       :     0.820610  s :     0.820610
      pz      :     0.008596  p :     0.018314
      px      :     0.003885
      py      :     0.005833

 14 H s       :     0.818982  s :     0.818982
      pz      :     0.004254  p :     0.018280
      px      :     0.003859
      py      :     0.010168

 15 H s       :     0.811990  s :     0.811990
      pz      :     0.009773  p :     0.017573
      px      :     0.002826
      py      :     0.004974

 16 H s       :     0.801852  s :     0.801852
      pz      :     0.003224  p :     0.017514
      px      :     0.002695
      py      :     0.011595

 17 H s       :     0.788925  s :     0.788925
      pz      :     0.003618  p :     0.018464
      px      :     0.006114
      py      :     0.008732

 18 H s       :     0.777741  s :     0.777741
      pz      :     0.004496  p :     0.018663
      px      :     0.006536
      py      :     0.007631

 19 H s       :     0.793622  s :     0.793622
      pz      :     0.009292  p :     0.018267
      px      :     0.004601
      py      :     0.004375


------------------------
MULLIKEN OVERLAP CHARGES
------------------------
B(  0-C ,  1-C ) :   0.5126 B(  0-C ,  2-C ) :  -0.2002 B(  0-C ,  3-C ) :  -0.2520 
B(  0-C ,  8-H ) :   0.8020 B(  0-C ,  9-H ) :   0.8143 B(  0-C , 10-H ) :   0.8454 
B(  0-C , 11-H ) :  -0.0716 B(  1-C ,  2-C ) :   0.4911 B(  1-C ,  3-C ) :   0.3761 
B(  1-C ,  4-O ) :  -0.1013 B(  1-C ,  8-H ) :  -0.0657 B(  1-C ,  9-H ) :  -0.0894 
B(  1-C , 10-H ) :  -0.0844 B(  1-C , 11-H ) :   0.8636 B(  1-C , 12-H ) :  -0.0872 
B(  1-C , 13-H ) :  -0.0698 B(  1-C , 14-H ) :  -0.0769 B(  1-C , 15-H ) :  -0.0607 
B(  1-C , 16-H ) :  -0.0555 B(  2-C ,  3-C ) :  -0.1661 B(  2-C , 12-H ) :   0.8122 
B(  2-C , 13-H ) :   0.8038 B(  2-C , 14-H ) :   0.8555 B(  3-C ,  4-O ) :   0.2534 
B(  3-C ,  5-C ) :  -0.2197 B(  3-C , 11-H ) :  -0.0726 B(  3-C , 15-H ) :   0.7678 
B(  3-C , 16-H ) :   0.8378 B(  4-O ,  5-C ) :   0.4347 B(  4-O ,  6-O ) :  -0.2252 
B(  4-O , 15-H ) :  -0.0602 B(  4-O , 16-H ) :  -0.0701 B(  5-C ,  6-O ) :   0.9378 
B(  5-C ,  7-C ) :   0.4828 B(  5-C , 17-H ) :  -0.0624 B(  5-C , 19-H ) :  -0.1215 
B(  6-O ,  7-C ) :  -0.0871 B(  7-C , 17-H ) :   0.8178 B(  7-C , 18-H ) :   0.7770 
B(  7-C , 19-H ) :   0.8541 B( 15-H , 16-H ) :  -0.0595 


                     *******************************
                     * LOEWDIN POPULATION ANALYSIS *
                     *******************************

----------------------
LOEWDIN ATOMIC CHARGES
----------------------
   0 C :   -0.415744
   1 C :   -0.214724
   2 C :   -0.414884
   3 C :    0.046161
   4 O :   -0.604746
   5 C :    0.364080
   6 O :   -0.493723
   7 C :   -0.334679
   8 H :    0.161392
   9 H :    0.158370
  10 H :    0.159355
  11 H :    0.167872
  12 H :    0.160770
  13 H :    0.159037
  14 H :    0.159896
  15 H :    0.189885
  16 H :    0.191217
  17 H :    0.185797
  18 H :    0.192489
  19 H :    0.182182

-------------------------------
LOEWDIN REDUCED ORBITAL CHARGES
-------------------------------
  0 C s       :     2.969159  s :     2.969159
      pz      :     1.099944  p :     3.383920
      px      :     1.148149
      py      :     1.135826
      dz2     :     0.010246  d :     0.062665
      dxz     :     0.019724
      dyz     :     0.011315
      dx2y2   :     0.014739
      dxy     :     0.006641

  1 C s       :     2.904477  s :     2.904477
      pz      :     1.068905  p :     3.216676
      px      :     1.034258
      py      :     1.113513
      dz2     :     0.016758  d :     0.093571
      dxz     :     0.025826
      dyz     :     0.017153
      dx2y2   :     0.021253
      dxy     :     0.012582

  2 C s       :     2.967855  s :     2.967855
      pz      :     1.119670  p :     3.384387
      px      :     1.105307
      py      :     1.159411
      dz2     :     0.009761  d :     0.062642
      dxz     :     0.016085
      dyz     :     0.013709
      dx2y2   :     0.015171
      dxy     :     0.007916

  3 C s       :     2.862866  s :     2.862866
      pz      :     0.979505  p :     2.971256
      px      :     0.899423
      py      :     1.092329
      dz2     :     0.022829  d :     0.119717
      dxz     :     0.034526
      dyz     :     0.016498
      dx2y2   :     0.029698
      dxy     :     0.016165

  4 O s       :     3.460157  s :     3.460157
      pz      :     1.642304  p :     4.656013
      px      :     1.333996
      py      :     1.679712
      dz2     :     0.091144  d :     0.488576
      dxz     :     0.131831
      dyz     :     0.051574
      dx2y2   :     0.117177
      dxy     :     0.096850

  5 C s       :     2.739377  s :     2.739377
      pz      :     0.939572  p :     2.625007
      px      :     0.914517
      py      :     0.770918
      dz2     :     0.059186  d :     0.271537
      dxz     :     0.083263
      dyz     :     0.038277
      dx2y2   :     0.039951
      dxy     :     0.050861

  6 O s       :     3.546768  s :     3.546768
      pz      :     1.509102  p :     4.734260
      px      :     1.740801
      py      :     1.484357
      dz2     :     0.058385  d :     0.212695
      dxz     :     0.050618
      dyz     :     0.055856
      dx2y2   :     0.021333
      dxy     :     0.026504

  7 C s       :     2.957697  s :     2.957697
      pz      :     1.087453  p :     3.321406
      px      :     1.083455
      py      :     1.150498
      dz2     :     0.010130  d :     0.055577
      dxz     :     0.017901
      dyz     :     0.008261
      dx2y2   :     0.004457
      dxy     :     0.014829

  8 H s       :     0.794138  s :     0.794138
      pz      :     0.016336  p :     0.044470
      px      :     0.019986
      py      :     0.008148

  9 H s       :     0.797449  s :     0.797449
      pz      :     0.012164  p :     0.044181
      px      :     0.020873
      py      :     0.011144

 10 H s       :     0.796641  s :     0.796641
      pz      :     0.009004  p :     0.044004
      px      :     0.008997
      py      :     0.026003

 11 H s       :     0.789016  s :     0.789016
      pz      :     0.009418  p :     0.043112
      px      :     0.008166
      py      :     0.025529

 12 H s       :     0.795098  s :     0.795098
      pz      :     0.011356  p :     0.044132
      px      :     0.021895
      py      :     0.010881

 13 H s       :     0.796898  s :     0.796898
      pz      :     0.021089  p :     0.044065
      px      :     0.009014
      py      :     0.013962

 14 H s       :     0.796024  s :     0.796024
      pz      :     0.009719  p :     0.044080
      px      :     0.008768
      py      :     0.025594

 15 H s       :     0.768579  s :     0.768579
      pz      :     0.022395  p :     0.041536
      px      :     0.007188
      py      :     0.011952

 16 H s       :     0.766976  s :     0.766976
      pz      :     0.007326  p :     0.041808
      px      :     0.006271
      py      :     0.028211

 17 H s       :     0.769437  s :     0.769437
      pz      :     0.007915  p :     0.044765
      px      :     0.014684
      py      :     0.022167

 18 H s       :     0.762160  s :     0.762160
      pz      :     0.010851  p :     0.045351
      px      :     0.015756
      py      :     0.018744

 19 H s       :     0.773057  s :     0.773057
      pz      :     0.023031  p :     0.044761
      px      :     0.011292
      py      :     0.010438


---------------------------------
LOEWDIN BOND ORDERS (THRESH 0.050000)
---------------------------------
B(  0-C ,  1-C ) :   1.1077 B(  0-C ,  2-C ) :   0.0699 B(  0-C ,  3-C ) :   0.0665 
B(  0-C ,  8-H ) :   0.9157 B(  0-C ,  9-H ) :   0.9225 B(  0-C , 10-H ) :   0.9213 
B(  1-C ,  2-C ) :   1.1059 B(  1-C ,  3-C ) :   1.0063 B(  1-C ,  4-O ) :   0.1617 
B(  1-C , 11-H ) :   0.8533 B(  2-C ,  3-C ) :   0.0816 B(  2-C , 12-H ) :   0.9201 
B(  2-C , 13-H ) :   0.9226 B(  2-C , 14-H ) :   0.9201 B(  3-C ,  4-O ) :   1.2933 
B(  3-C ,  5-C ) :   0.0899 B(  3-C ,  6-O ) :   0.0731 B(  3-C , 15-H ) :   0.8126 
B(  3-C , 16-H ) :   0.8098 B(  4-O ,  5-C ) :   1.4669 B(  4-O ,  6-O ) :   0.4580 
B(  4-O ,  7-C ) :   0.1855 B(  4-O , 15-H ) :   0.0942 B(  4-O , 16-H ) :   0.0923 
B(  5-C ,  6-O ) :   2.1397 B(  5-C ,  7-C ) :   0.9832 B(  6-O ,  7-C ) :   0.1880 
B(  7-C , 17-H ) :   0.8982 B(  7-C , 18-H ) :   0.8902 B(  7-C , 19-H ) :   0.8979 


------------------------------------------
LOEWDIN REDUCED ORBITAL POPULATIONS PER MO
-------------------------------------------
THRESHOLD FOR PRINTING IS 0.1%%
                      0         1         2         3         4         5   
                 -19.00356 -18.94301 -10.16526 -10.07966 -10.03472 -10.03037
                   2.00000   2.00000   2.00000   2.00000   2.00000   2.00000
                  --------  --------  --------  --------  --------  --------
 1 C  s               0.0       0.0       0.0       0.0      99.6       0.0
 3 C  s               0.0       0.0       0.0      99.4       0.0       0.0
 4 O  s              99.9       0.0       0.0       0.0       0.0       0.0
 4 O  px              0.0       0.0       0.1       0.1       0.0       0.0
 4 O  dxz             0.0       0.0       0.1       0.2       0.0       0.0
 4 O  dx2y2           0.0       0.0       0.1       0.1       0.0       0.0
 5 C  s               0.0       0.0      98.9       0.0       0.0       0.0
 6 O  s               0.0      99.9       0.0       0.0       0.0       0.0
 6 O  pz              0.0       0.0       0.2       0.0       0.0       0.0
 6 O  dz2             0.0       0.0       0.1       0.0       0.0       0.0
 6 O  dyz             0.0       0.0       0.2       0.0       0.0       0.0
 7 C  s               0.0       0.0       0.0       0.0       0.0      99.7

                      6         7         8         9        10        11   
                 -10.01216 -10.00938  -1.08036  -0.98839  -0.77722  -0.72255
                   2.00000   2.00000   2.00000   2.00000   2.00000   2.00000
                  --------  --------  --------  --------  --------  --------
 0 C  s               0.0      99.7       0.0       0.0       9.5       3.3
 0 C  pz              0.0       0.0       0.0       0.0       2.3       0.3
 0 C  px              0.0       0.0       0.1       0.0       0.2       0.0
 0 C  py              0.0       0.0       0.0       0.0       0.6       0.1
 1 C  s               0.0       0.0       0.2       0.2      24.9       3.6
 1 C  pz              0.0       0.1       0.0       0.0       0.1       0.0
 1 C  px              0.0       0.0       0.6       0.3       0.0       1.9
 1 C  py              0.0       0.0       0.0       0.0       0.7       0.0
 2 C  s              99.7       0.0       0.0       0.0       9.8       4.3
 2 C  pz              0.0       0.0       0.0       0.0       1.3       0.3
 2 C  px              0.0       0.0       0.0       0.0       1.9       0.1
 3 C  s               0.0       0.0       4.1       1.9      11.8       1.4
 3 C  pz              0.0       0.0       1.5       1.0       0.4       0.2
 3 C  px              0.0       0.0       3.9       0.8       3.6       1.8
 3 C  py              0.0       0.0       0.0       0.1       0.4       0.0
 3 C  dxz             0.0       0.0       0.3       0.2       0.0       0.1
 3 C  dx2y2           0.0       0.0       0.1       0.1       0.0       0.0
 4 O  s               0.0       0.0      39.8      18.1       0.4       0.6
 4 O  pz              0.0       0.0       1.4       0.2       0.6       1.2
 4 O  px              0.0       0.0       0.8       0.7       7.1       6.8
 4 O  py              0.0       0.0       0.7       0.1       0.0       0.0
 4 O  dz2             0.0       0.0       0.0       0.0       0.0       0.5
 4 O  dxz             0.0       0.0       0.1       0.8       0.4       0.0
 4 O  dyz             0.0       0.0       0.2       0.2       0.0       0.0
 4 O  dx2y2           0.0       0.0       0.4       0.0       0.2       0.8
 4 O  dxy             0.0       0.0       0.3       0.4       0.0       0.1
 5 C  s               0.0       0.0      16.9       3.3       1.4       5.7
 5 C  pz              0.0       0.0       0.7      11.5       2.0       8.3
 5 C  px              0.0       0.0       4.2       5.8       0.4       4.3
 5 C  py              0.0       0.0       0.0       6.1       0.7       1.3
 5 C  dz2             0.0       0.0       0.0       0.9       0.0       0.0
 5 C  dxz             0.0       0.0       0.2       0.0       0.0       0.1
 5 C  dyz             0.0       0.0       0.4       0.7       0.0       0.0
 5 C  dx2y2           0.0       0.0       0.2       0.4       0.0       0.0
 5 C  dxy             0.0       0.0       0.3       0.0       0.0       0.0
 6 O  s               0.0       0.0      14.0      41.3       0.7       1.7
 6 O  pz              0.0       0.0       2.1       2.4       0.2       0.8
 6 O  px              0.0       0.0       0.2       0.0       0.0       0.2
 6 O  py              0.0       0.0       0.9       0.8       0.0       0.2
 6 O  dz2             0.0       0.0       0.1       0.1       0.1       0.5
 6 O  dxz             0.0       0.0       0.4       0.1       0.0       0.1
 6 O  dyz             0.0       0.0       0.7       0.1       0.1       0.4
 6 O  dxy             0.0       0.0       0.2       0.1       0.0       0.1
 7 C  s               0.0       0.0       1.1       0.2       1.8      26.8
 7 C  pz              0.0       0.0       0.8       0.4       0.1       0.3
 7 C  px              0.0       0.0       1.2       0.0       0.3       0.5
 7 C  py              0.0       0.0       0.1       0.1       0.0       0.0
 8 H  s               0.0       0.0       0.0       0.0       1.2       0.5
 9 H  s               0.0       0.0       0.0       0.0       1.1       0.6
10 H  s               0.0       0.0       0.0       0.0       1.2       0.5
11 H  s               0.0       0.0       0.0       0.0       3.1       0.5
11 H  py              0.0       0.0       0.0       0.0       0.3       0.0
12 H  s               0.0       0.0       0.0       0.0       1.2       0.7
13 H  s               0.0       0.0       0.0       0.0       1.2       0.7
14 H  s               0.0       0.0       0.0       0.0       1.2       0.7
15 H  s               0.0       0.0       0.3       0.1       1.5       0.2
15 H  pz              0.0       0.0       0.0       0.0       0.1       0.0
16 H  s               0.0       0.0       0.3       0.1       1.5       0.2
16 H  py              0.0       0.0       0.0       0.0       0.1       0.0
17 H  s               0.0       0.0       0.1       0.0       0.2       4.6
17 H  px              0.0       0.0       0.0       0.0       0.0       0.1
17 H  py              0.0       0.0       0.0       0.0       0.0       0.3
18 H  s               0.0       0.0       0.0       0.0       0.2       4.8
18 H  px              0.0       0.0       0.0       0.0       0.0       0.2
18 H  py              0.0       0.0       0.0       0.0       0.0       0.2
19 H  s               0.0       0.0       0.1       0.0       0.3       5.0
19 H  pz              0.0       0.0       0.0       0.0       0.0       0.4

                     12        13        14        15        16        17   
                  -0.65524  -0.64725  -0.54499  -0.52996  -0.46488  -0.46232
                   2.00000   2.00000   2.00000   2.00000   2.00000   2.00000
                  --------  --------  --------  --------  --------  --------
 0 C  s               4.3      24.7       1.7       2.7       0.5       0.0
 0 C  pz              0.0       0.7       1.7       1.4       2.0       0.0
 0 C  px              0.5       0.1       0.4       0.6       1.4       0.1
 0 C  py              0.0       0.1       0.8       3.6       0.4       0.0
 0 C  dyz             0.0       0.0       0.0       0.1       0.0       0.0
 1 C  s               0.1       0.0       6.8       6.9       0.1       0.2
 1 C  pz              0.7      14.1       0.5       1.0       0.0       0.1
 1 C  px              8.7       0.9       2.0       0.3       0.1       0.2
 1 C  py              0.0       1.4       0.3       6.8       5.0       0.0
 1 C  dxz             0.1       0.2       0.1       0.0       0.0       0.0
 1 C  dyz             0.0       0.1       0.0       0.0       0.0       0.0
 2 C  s               6.8      20.1       5.2       0.8       0.0       0.1
 2 C  pz              0.1       0.9       1.1       1.5       0.0       0.2
 2 C  px              0.4       0.1       5.1       0.8       0.0       0.5
 2 C  py              0.0       0.1       0.0       1.0       1.3       0.0
 2 C  dxz             0.0       0.0       0.1       0.1       0.0       0.0
 3 C  s              14.3       0.3       1.3       5.0       0.0       0.1
 3 C  pz              0.2       1.1       3.3      10.3       5.3       2.7
 3 C  px              0.1       0.0       7.8       0.3       3.4       0.3
 3 C  py              0.0       0.1       0.0       7.4      11.4       0.1
 3 C  dxz             0.0       0.0       0.6       0.0       0.0       0.0
 3 C  dxy             0.0       0.0       0.1       0.0       0.0       0.0
 4 O  s               0.8       0.0       2.9       3.1       0.2       0.0
 4 O  pz              1.2       0.1       0.2       4.4      13.4       0.1
 4 O  px             12.1       0.1      18.3       2.9       0.7       5.4
 4 O  py              0.2       0.0       0.8       4.0      12.0       0.1
 4 O  dz2             0.0       0.0       0.2       0.3       0.6       0.5
 4 O  dxz             1.9       0.1       0.1       0.3       0.1       0.2
 4 O  dyz             0.0       0.0       0.0       0.2       0.1       0.0
 4 O  dx2y2           0.5       0.0       0.5       0.0       0.1       0.2
 4 O  dxy             0.1       0.0       0.2       0.3       0.0       0.2
 5 C  s               0.5       0.0       3.7       0.8       0.1       4.2
 5 C  pz              0.2       0.0       0.6       0.1       5.0       0.7
 5 C  px              6.1       0.0       1.4       0.9       0.3       8.5
 5 C  py              0.2       0.0       0.6       0.0       8.6       1.6
 5 C  dxz             0.3       0.0       0.0       0.0       0.1       0.0
 5 C  dxy             0.1       0.0       0.0       0.0       0.0       0.0
 6 O  s               0.0       0.0       1.4       1.3       0.7      10.9
 6 O  pz              0.0       0.0       1.2       0.6       0.1      28.9
 6 O  px              0.3       0.0       0.6       1.4       0.0       1.5
 6 O  py              0.0       0.0       0.7       0.4       7.8       5.7
 6 O  dz2             0.0       0.0       0.1       0.0       0.4       0.5
 6 O  dxz             0.3       0.0       0.1       0.1       0.1       0.1
 6 O  dyz             0.0       0.0       0.1       0.0       0.2       0.3
 6 O  dx2y2           0.1       0.0       0.0       0.1       0.2       0.0
 7 C  s              12.5       0.0       2.6       0.0       0.0       1.4
 7 C  pz              0.0       0.0       0.8       0.0       1.1      10.5
 7 C  px              0.7       0.0       3.0       0.1       0.9       1.0
 7 C  py              0.0       0.0       0.0       0.0       2.8       3.5
 7 C  dxz             0.0       0.0       0.1       0.0       0.0       0.3
 8 H  s               0.7       6.3       1.0       0.9       0.1       0.1
 8 H  pz              0.0       0.2       0.0       0.0       0.0       0.0
 8 H  px              0.0       0.3       0.0       0.1       0.0       0.0
 9 H  s               1.2       5.6       1.1       1.3       1.6       0.0
 9 H  px              0.1       0.3       0.0       0.0       0.1       0.0
10 H  s               0.9       5.4       0.9       2.7       0.0       0.0
10 H  py              0.1       0.4       0.0       0.1       0.0       0.0
11 H  s               0.0       0.0       2.6       6.8       0.9       0.1
11 H  py              0.0       0.0       0.2       0.4       0.0       0.0
12 H  s               1.9       4.4       3.2       0.3       0.1       0.2
12 H  px              0.1       0.3       0.1       0.0       0.0       0.0
13 H  s               1.3       5.3       1.9       0.4       0.1       0.1
13 H  pz              0.1       0.3       0.1       0.0       0.0       0.0
13 H  py              0.0       0.1       0.0       0.0       0.0       0.0
14 H  s               1.5       4.5       2.5       1.3       0.3       0.1
14 H  py              0.1       0.4       0.2       0.1       0.0       0.0
15 H  s               3.4       0.3       1.2       4.4       4.8       0.5
15 H  pz              0.2       0.0       0.0       0.1       0.2       0.0
15 H  py              0.1       0.0       0.0       0.2       0.0       0.0
16 H  s               3.2       0.0       0.9       7.6       2.6       0.2
16 H  py              0.3       0.0       0.1       0.4       0.1       0.0
17 H  s               3.4       0.0       1.8       0.0       0.2       0.2
17 H  py              0.2       0.0       0.1       0.0       0.0       0.0
18 H  s               3.3       0.0       1.5       0.0       1.5       1.2
18 H  pz              0.0       0.0       0.0       0.0       0.0       0.1
18 H  py              0.1       0.0       0.1       0.0       0.0       0.0
19 H  s               2.3       0.0       0.8       0.0       0.1       5.4
19 H  pz              0.1       0.0       0.0       0.0       0.0       0.1
19 H  px              0.1       0.0       0.0       0.0       0.0       0.1

                     18        19        20        21        22        23   
                  -0.44765  -0.42003  -0.39816  -0.38951  -0.37328  -0.35969
                   2.00000   2.00000   2.00000   2.00000   2.00000   2.00000
                  --------  --------  --------  --------  --------  --------
 0 C  s               0.1       0.4       0.1       0.0       0.0       0.1
 0 C  pz              0.5      11.1       2.3       1.9       0.3       0.2
 0 C  px              0.4       0.0      11.8       5.6       0.2      14.1
 0 C  py              2.9       1.1       2.7       4.7       0.3       4.5
 1 C  s               1.0       0.6       0.0       0.1       0.0       0.0
 1 C  pz              1.9       0.0       1.1       4.1       0.7       7.8
 1 C  px              2.7       0.9       8.3       0.6       0.0       1.7
 1 C  py              2.6      11.3       0.1       2.1       0.1       0.9
 2 C  s               0.1       0.1       0.1       0.1       0.0       0.1
 2 C  pz              3.0       2.3      14.7       0.5       1.3       0.0
 2 C  px              0.1       0.1       2.3       4.3       3.3      10.6
 2 C  py              1.1       8.2       0.0       5.5       0.7       8.2
 3 C  s               0.4       0.3       0.3       0.2       0.1       0.0
 3 C  pz              0.4       3.5       1.4       0.8       0.0       0.1
 3 C  px              3.0       0.7       3.1       0.1       0.2       0.1
 3 C  py              1.5       2.0       1.7       9.8       0.3       0.3
 3 C  dxz             0.0       0.0       0.0       0.0       0.0       0.1
 3 C  dx2y2           0.0       0.1       0.0       0.1       0.0       0.0
 4 O  s               1.3       0.1       0.0       0.5       0.3       0.5
 4 O  pz              8.9       1.1       0.2       0.3       0.1       3.2
 4 O  px              0.2       0.0       0.4       0.1       1.4       1.8
 4 O  py             12.8       0.7       0.0       3.6       1.6       1.5
 4 O  dz2             0.0       0.1       0.0       0.2       0.0       0.0
 4 O  dxz             0.2       0.6       0.6       0.1       0.4       0.1
 4 O  dyz             0.3       0.1       0.0       0.2       0.0       0.0
 4 O  dx2y2           0.6       0.1       0.0       0.2       0.2       0.2
 4 O  dxy             0.1       0.7       0.1       0.7       0.0       0.0
 5 C  s               0.2       0.1       0.2       0.1       0.1       0.0
 5 C  pz              2.5       4.6       3.6       0.2       1.0       0.2
 5 C  px              5.6       0.2       3.0       0.4       0.9       0.1
 5 C  py              4.0       5.2       0.4       2.1       0.6       0.8
 5 C  dz2             0.0       0.0       0.0       0.0       0.4       0.0
 5 C  dxz             0.1       0.0       0.0       0.0       0.0       0.1
 5 C  dx2y2           0.0       0.0       0.0       0.0       0.3       0.0
 5 C  dxy             0.0       0.0       0.0       0.2       0.0       0.1
 6 O  s               3.0       0.2       0.9       0.1       0.4       0.1
 6 O  pz              5.6       0.2       2.7       2.1       3.1       2.2
 6 O  px              8.4       0.0       3.9       0.1       0.8       0.0
 6 O  py              0.4       7.3       2.6       0.5       1.5       0.1
 6 O  dz2             0.0       0.3       0.0       0.1       0.0       0.0
 6 O  dxz             0.3       0.0       0.2       0.0       0.0       0.0
 6 O  dyz             0.1       0.1       0.1       0.1       0.0       0.0
 6 O  dx2y2           0.2       0.1       0.0       0.0       0.0       0.0
 6 O  dxy             0.1       0.0       0.0       0.1       0.0       0.1
 7 C  s               0.9       0.0       0.1       0.0       0.0       0.0
 7 C  pz              4.1       1.2       4.7       4.1      16.7       0.2
 7 C  px              6.4       2.9       1.5       0.5      22.6       0.0
 7 C  py              0.4       7.8       1.8      12.7       4.9      10.7
 7 C  dz2             0.0       0.0       0.0       0.0       0.3       0.0
 7 C  dxz             0.1       0.0       0.1       0.0       0.1       0.0
 7 C  dyz             0.0       0.1       0.0       0.0       0.2       0.0
 7 C  dxy             0.0       0.0       0.0       0.1       0.0       0.1
 8 H  s               0.6       2.7       5.6       2.7       0.2       2.9
 8 H  pz              0.0       0.0       0.1       0.0       0.0       0.1
 8 H  px              0.0       0.1       0.1       0.0       0.0       0.0
 9 H  s               0.1       2.2       2.5       0.1       0.0       3.1
 9 H  pz              0.0       0.0       0.1       0.0       0.0       0.0
 9 H  py              0.0       0.0       0.0       0.0       0.0       0.1
10 H  s               0.9       0.5       0.2       3.6       0.1       3.5
10 H  py              0.0       0.0       0.0       0.1       0.0       0.1
11 H  s               1.9       2.2       0.0       1.3       0.0       0.0
12 H  s               0.3       0.3       2.6       2.8       1.3       1.5
12 H  py              0.0       0.0       0.0       0.0       0.0       0.1
13 H  s               0.4       3.2       5.4       1.0       1.4       2.1
13 H  pz              0.0       0.1       0.1       0.0       0.0       0.1
13 H  py              0.0       0.0       0.1       0.0       0.0       0.0
14 H  s               0.8       1.4       0.4       0.7       0.3       5.7
14 H  py              0.0       0.0       0.0       0.0       0.0       0.1
15 H  s               0.8       3.7       0.5       1.2       0.2       0.3
16 H  s               0.0       0.1       1.4       4.9       0.0       0.1
16 H  py              0.0       0.0       0.1       0.1       0.0       0.0
17 H  s               3.3       0.7       0.0       6.5       6.8       4.5
17 H  pz              0.0       0.0       0.0       0.0       0.2       0.0
17 H  px              0.0       0.1       0.0       0.1       0.0       0.1
17 H  py              0.1       0.0       0.0       0.1       0.1       0.0
18 H  s               0.6       4.9       0.5       3.6       3.8       3.0
18 H  px              0.0       0.1       0.0       0.1       0.0       0.1
18 H  py              0.0       0.1       0.0       0.0       0.3       0.0
19 H  s               0.5       0.1       1.8       0.1      18.8       0.3
19 H  pz              0.0       0.0       0.0       0.0       0.4       0.0

                     24        25        26        27        28        29   
                  -0.34780  -0.33527  -0.33466  -0.30548  -0.29997  -0.29214
                   2.00000   2.00000   2.00000   2.00000   2.00000   2.00000
                  --------  --------  --------  --------  --------  --------
 0 C  s               0.0       0.0       0.0       0.0       0.8       0.1
 0 C  pz              5.0       1.0       0.1       3.5      12.5       3.1
 0 C  px              3.7       0.5       1.0      14.9       1.3       0.3
 0 C  py             20.1       2.1       1.2       0.0       6.2       4.8
 0 C  dz2             0.0       0.0       0.0       0.1       0.1       0.1
 0 C  dxz             0.1       0.0       0.0       0.7       0.0       0.1
 0 C  dyz             0.0       0.0       0.0       0.0       0.1       0.0
 0 C  dx2y2           0.2       0.0       0.0       0.0       0.0       0.3
 1 C  s               0.0       0.1       0.1       0.1       0.0       0.4
 1 C  pz              0.0       0.3       0.1       4.2       8.6       5.9
 1 C  px              0.0       0.4       0.5      16.2       3.0       1.8
 1 C  py              0.0       0.2       0.0       0.1       7.9      14.2
 1 C  dz2             0.1       0.0       0.0       0.1       0.3       0.0
 1 C  dxz             0.0       0.0       0.0       0.6       0.0       0.1
 1 C  dyz             0.1       0.0       0.0       0.0       0.3       0.0
 1 C  dx2y2           0.0       0.0       0.0       0.0       0.0       0.7
 1 C  dxy             0.0       0.1       0.0       0.0       0.0       0.2
 2 C  s               0.0       0.0       0.0       0.8       0.0       0.2
 2 C  pz              2.2       0.5       7.3      10.8       4.9       2.4
 2 C  px              2.0       0.0       9.3      12.0       1.3       0.4
 2 C  py             18.7       3.4       0.0       0.2       5.3       4.1
 2 C  dz2             0.0       0.0       0.1       0.0       0.3       0.0
 2 C  dxz             0.0       0.0       0.0       0.2       0.0       0.0
 2 C  dyz             0.0       0.0       0.1       0.0       0.3       0.1
 2 C  dx2y2           0.1       0.0       0.1       0.0       0.0       0.3
 2 C  dxy             0.1       0.0       0.1       0.0       0.0       0.2
 3 C  s               0.0       0.2       0.3       0.4       0.1       1.0
 3 C  pz              0.5       0.5       3.8       2.1       1.9       5.2
 3 C  px              0.2       3.0       1.6       3.4       1.0       5.0
 3 C  py              0.0       6.1       2.2       0.2       0.2       4.4
 3 C  dz2             0.0       0.0       0.1       0.0       0.0       0.1
 3 C  dxz             0.0       0.0       0.1       0.2       0.0       0.0
 3 C  dx2y2           0.0       0.2       0.1       0.0       0.0       0.5
 3 C  dxy             0.0       0.0       0.0       0.0       0.2       0.0
 4 O  s               0.3       2.1       0.8       0.2       0.2       0.4
 4 O  pz              2.6      13.1      12.1       0.1       0.1       4.4
 4 O  px              0.1       0.4       0.9       1.1       0.2       0.1
 4 O  py              0.0       6.0       1.3       0.2       9.1       0.6
 4 O  dz2             0.0       0.2       0.1       0.6       0.1       0.3
 4 O  dxz             0.0       0.3       0.0       0.1       0.0       0.0
 4 O  dyz             0.0       0.2       0.0       0.0       0.0       0.2
 4 O  dx2y2           0.1       0.1       0.3       0.2       0.1       0.7
 4 O  dxy             0.0       0.7       0.2       0.1       0.0       0.0
 5 C  s               0.0       0.3       0.1       0.0       0.0       0.1
 5 C  pz              0.1       4.7       0.4       0.0       0.1       0.1
 5 C  px              0.0       0.1       1.0       0.5       0.0       0.5
 5 C  py              0.7       1.6       3.2       0.0       0.7       0.1
 5 C  dz2             0.0       0.4       0.1       0.0       0.1       0.0
 5 C  dxz             0.0       0.4       0.2       0.0       0.0       0.1
 5 C  dyz             0.0       0.0       0.3       0.0       0.1       0.0
 5 C  dx2y2           0.0       0.0       0.2       0.0       0.2       0.0
 5 C  dxy             0.0       0.2       0.0       0.0       0.1       0.0
 6 O  s               0.1       0.4       0.2       0.0       0.0       0.1
 6 O  pz              1.5       0.2       7.8       0.0       4.5       0.2
 6 O  px              0.1       0.6       1.4       1.1       0.2       0.1
 6 O  py              0.5      18.2       4.1       0.0       7.1       0.6
 6 O  dz2             0.0       0.1       0.0       0.0       0.0       0.0
 6 O  dyz             0.0       0.1       0.1       0.0       0.0       0.0
 7 C  s               0.0       0.1       0.1       0.0       0.0       0.0
 7 C  pz              0.3       3.7       0.8       0.0       0.0       0.0
 7 C  px              0.8       2.3       6.8       0.4       0.0       0.0
 7 C  py              2.2       5.4       3.6       0.1       0.3       0.0
 7 C  dxy             0.0       0.2       0.1       0.0       0.0       0.0
 8 H  s               0.0       0.0       0.5      12.1       0.6       0.4
 8 H  py              0.2       0.0       0.0       0.0       0.1       0.0
 9 H  s               9.1       1.5       0.8       3.7       0.7       3.5
 9 H  pz              0.0       0.0       0.0       0.1       0.1       0.0
 9 H  px              0.2       0.0       0.0       0.0       0.0       0.1
[...]
 3 C  dx2y2           3.9       3.8       1.1       0.1       0.0       0.0
 3 C  dxy             0.9       0.2       0.1       0.1       0.0       0.0
 4 O  s               0.7      28.5       3.5       0.9       0.0       0.0
 4 O  pz              0.0       9.3       0.1       0.3       0.0       0.0
 4 O  px              0.0       2.1      31.1       1.1       0.0       0.0
 4 O  py              0.0       1.7       1.5       0.0       0.0       0.0
 4 O  dz2             0.0       0.6       4.4       0.0       0.0       0.0
 4 O  dxz             0.2       6.2      12.1       1.9       0.0       0.0
 4 O  dyz             0.0       1.7       0.1       0.1       0.0       0.0
 4 O  dx2y2           0.1      14.7       3.1       0.6       0.0       0.0
 4 O  dxy             0.0       0.6       9.2       0.2       0.0       0.0
 5 C  s               0.0       0.3       3.6       4.6       0.2       0.4
 5 C  pz              0.0       0.4       0.2       5.8       0.0       0.0
 5 C  px              0.1       1.4       5.5       0.5       0.0       0.0
 5 C  py              0.0       0.4       0.6       2.3       0.0       0.0
 5 C  dz2             0.0       0.7       1.7       2.6       0.0       0.0
 5 C  dxz             0.0       0.6       3.1       0.2       0.0       0.0
 5 C  dyz             0.0       0.0       0.2       3.6       0.0       0.0
 5 C  dx2y2           0.0       0.9       2.6       0.4       0.0       0.0
 5 C  dxy             0.0       0.9       3.8       0.0       0.0       0.0
 6 O  s               0.3       1.0       1.1      17.6       0.0       0.0
 6 O  pz              0.0       0.4       0.8      15.4       0.0       0.0
 6 O  px              0.1       0.3       0.0       0.6       0.0       0.0
 6 O  py              0.0       0.2       0.2       5.5       0.0       0.0
 6 O  dz2             0.0       0.4       0.6      10.9       0.0       0.0
 6 O  dxz             0.1       0.7       0.8       2.0       0.0       0.0
 6 O  dyz             0.0       0.7       0.7      18.2       0.0       0.0
 6 O  dx2y2           0.0       0.2       0.0       1.6       0.0       0.0
 6 O  dxy             0.1       0.2       0.1       0.7       0.0       0.0
 7 C  s               0.0       0.0       0.0       0.0      83.9       8.8
 7 C  pz              0.0       0.0       0.1       0.0       0.0       0.0
 7 C  px              0.1       0.0       0.0       0.0       0.0       0.0
 7 C  dz2             0.1       0.0       0.0       0.0       0.0       0.0
 7 C  dxz             0.0       0.1       0.2       0.0       0.0       0.0
 7 C  dxy             0.0       0.0       0.1       0.1       0.0       0.0
 8 H  s               0.5       0.0       0.0       0.0       0.0       0.0
 8 H  pz              0.6       0.0       0.0       0.0       0.0       0.0
 8 H  px              0.4       0.0       0.0       0.0       0.0       0.0
10 H  s               0.8       0.0       0.0       0.0       0.0       0.0
10 H  py              2.2       0.0       0.0       0.0       0.0       0.0
11 H  s               7.4       0.0       0.0       0.0       0.0       0.0
11 H  pz              0.5       0.0       0.0       0.0       0.0       0.0
11 H  px              0.6       0.0       0.0       0.0       0.0       0.0
11 H  py             18.2       0.0       0.0       0.0       0.0       0.0
12 H  s               0.1       0.0       0.0       0.0       0.0       0.0
12 H  px              0.3       0.0       0.0       0.0       0.0       0.0
13 H  s               0.1       0.0       0.0       0.0       0.0       0.0
13 H  pz              0.1       0.0       0.0       0.0       0.0       0.0
13 H  px              0.2       0.0       0.0       0.0       0.0       0.0
13 H  py              0.1       0.0       0.0       0.0       0.0       0.0
14 H  s               1.0       0.0       0.0       0.0       0.0       0.0
14 H  pz              0.2       0.0       0.0       0.0       0.0       0.0
14 H  px              0.2       0.1       0.0       0.0       0.0       0.0
14 H  py              2.7       0.0       0.0       0.0       0.0       0.0
15 H  s               0.0       0.5       0.1       0.0       0.0       0.0
15 H  pz              0.1       0.3       0.0       0.0       0.0       0.0
15 H  px              0.2       0.5       0.1       0.0       0.0       0.0
15 H  py              0.0       0.4       0.1       0.0       0.0       0.0
16 H  s               1.9       0.4       0.1       0.0       0.0       0.0
16 H  pz              0.1       0.0       0.1       0.0       0.0       0.0
16 H  px              0.1       0.1       0.0       0.0       0.0       0.0
16 H  py              4.8       0.8       0.1       0.0       0.0       0.0
19 H  pz              0.1       0.0       0.0       0.0       0.0       0.0

                    216       217       218       219       220       221   
                  21.99922  22.07575  22.10305  22.23966  43.62843  43.75321
                   0.00000   0.00000   0.00000   0.00000   0.00000   0.00000
                  --------  --------  --------  --------  --------  --------
 0 C  s              42.5       6.8       0.6       0.0       0.0       0.0
 1 C  s               0.0       7.6      80.9       4.5       0.0       0.0
 2 C  s              55.0       0.3       2.4       0.0       0.0       0.0
 3 C  s               2.0      72.9      10.4       6.7       0.0       0.0
 4 O  s               0.0       0.1       0.0       0.1       2.6      97.3
 4 O  px              0.0       0.0       0.0       0.2       0.0       0.0
 5 C  s               0.1       9.1       1.3      87.8       0.0       0.0
 6 O  s               0.0       0.1       0.0       0.2      97.3       2.6
 6 O  pz              0.0       0.0       0.0       0.1       0.0       0.0
 7 C  s               0.1       3.0       3.8       0.0       0.0       0.0



                      *****************************
                      * MAYER POPULATION ANALYSIS *
                      *****************************

  NA   - Mulliken gross atomic population
  ZA   - Total nuclear charge
  QA   - Mulliken gross atomic charge
  VA   - Mayer's total valence
  BVA  - Mayer's bonded valence
  FA   - Mayer's free valence

  ATOM       NA         ZA         QA         VA         BVA        FA
  0 C      6.5340     6.0000    -0.5340     3.7528     3.7528    -0.0000
  1 C      5.9775     6.0000     0.0225     3.5771     3.5771    -0.0000
  2 C      6.5300     6.0000    -0.5300     3.7719     3.7719    -0.0000
  3 C      6.2395     6.0000    -0.2395     3.6172     3.6172     0.0000
  4 O      8.1778     8.0000    -0.1778     1.9758     1.9758     0.0000
  5 C      5.5380     6.0000     0.4620     3.7286     3.7286     0.0000
  6 O      8.5106     8.0000    -0.5106     1.8724     1.8724     0.0000
  7 C      6.5621     6.0000    -0.5621     3.8483     3.8483     0.0000
  8 H      0.8386     1.0000     0.1614     0.9606     0.9606     0.0000
  9 H      0.8360     1.0000     0.1640     0.9594     0.9594    -0.0000
 10 H      0.8372     1.0000     0.1628     0.9632     0.9632    -0.0000
 11 H      0.8437     1.0000     0.1563     0.9608     0.9608    -0.0000
 12 H      0.8342     1.0000     0.1658     0.9586     0.9586    -0.0000
 13 H      0.8389     1.0000     0.1611     0.9602     0.9602     0.0000
 14 H      0.8373     1.0000     0.1627     0.9618     0.9618    -0.0000
 15 H      0.8296     1.0000     0.1704     0.9477     0.9477     0.0000
 16 H      0.8194     1.0000     0.1806     0.9490     0.9490     0.0000
 17 H      0.8074     1.0000     0.1926     0.9503     0.9503    -0.0000
 18 H      0.7964     1.0000     0.2036     0.9454     0.9454     0.0000
 19 H      0.8119     1.0000     0.1881     0.9543     0.9543    -0.0000

  Mayer bond orders larger than 0.100000
B(  0-C ,  1-C ) :   0.9118 B(  0-C ,  8-H ) :   0.9682 B(  0-C ,  9-H ) :   0.9718 
B(  0-C , 10-H ) :   0.9789 B(  1-C ,  2-C ) :   0.8980 B(  1-C ,  3-C ) :   0.9373 
B(  1-C , 11-H ) :   0.9486 B(  2-C , 12-H ) :   0.9687 B(  2-C , 13-H ) :   0.9698 
B(  2-C , 14-H ) :   0.9787 B(  3-C ,  4-O ) :   0.8018 B(  3-C , 15-H ) :   0.9410 
B(  3-C , 16-H ) :   0.9571 B(  4-O ,  5-C ) :   1.0937 B(  5-C ,  6-O ) :   1.7435 
B(  5-C ,  7-C ) :   0.9378 B(  7-C , 17-H ) :   0.9557 B(  7-C , 18-H ) :   0.9314 
B(  7-C , 19-H ) :   0.9758 

-------
TIMINGS
-------

Total SCF time: 0 days 0 hours 0 min 34 sec 

Total time                  ....      34.088 sec
Sum of individual times     ....      32.841 sec  ( 96.3%)

SCF preparation             ....       0.333 sec  (  1.0%)
Fock matrix formation       ....      31.377 sec  ( 92.0%)
  Startup                   ....       0.068 sec  (  0.2% of F)
  Split-RI-J                ....       5.192 sec  ( 16.5% of F)
  XC integration            ....      19.725 sec  ( 62.9% of F)
    XC Preparation          ....       0.000 sec  (  0.0% of XC)
    Basis function eval.    ....       3.546 sec  ( 18.0% of XC)
    Density eval.           ....       5.901 sec  ( 29.9% of XC)
    XC-Functional eval.     ....       2.556 sec  ( 13.0% of XC)
    XC-Potential eval.      ....       6.483 sec  ( 32.9% of XC)
  CPCM terms                ....       5.774 sec  ( 18.4% of F)
Diagonalization             ....       0.000 sec  (  0.0%)
Density matrix formation    ....       0.325 sec  (  1.0%)
Total Energy calculation    ....       0.054 sec  (  0.2%)
Population analysis         ....       0.133 sec  (  0.4%)
Orbital Transformation      ....       0.062 sec  (  0.2%)
Orbital Orthonormalization  ....       0.000 sec  (  0.0%)
DIIS solution               ....       0.503 sec  (  1.5%)
  MO trafo                  ....       0.000 sec  (  0.0 % of DIIS)
  Orb grad                  ....       0.000 sec  (  0.0 % of DIIS)
  Energy W gradient         ....       0.000 sec  (  0.0 % of DIIS)
  DIIS error                ....       0.017 sec  (  3.3 % of DIIS)
  DIIS work                 ....       0.428 sec  ( 85.0 % of DIIS)
  Form Q                    ....       0.000 sec  (  0.0 % of DIIS)
  Form QpQm                 ....       0.000 sec  (  0.0 % of DIIS)
  Exp/Cayley                ....       0.000 sec  (  0.0 % of DIIS)
  Orb update                ....       0.000 sec  (  0.0 % of DIIS)
  Wake-sleep                ....       0.028 sec  (  5.7 % of DIIS)
SOSCF solution              ....       0.054 sec  (  0.2%)
  MO trafo                  ....       0.042 sec  ( 77.9 % of SOSCF)
  Orb grad                  ....       0.001 sec  (  1.1 % of SOSCF)
  Rot update                ....       0.000 sec  (  0.1 % of SOSCF)
  Step                      ....       0.011 sec  ( 20.7 % of SOSCF)
Finished LeanSCF after  34.2 sec

Maximum memory used throughout the entire LEANSCF-calculation: 30.6 MB


-------------------------------------------------------------------------------
                          DFT DISPERSION CORRECTION                            
                                                                               
                                DFTD4 V3.4.0                                   
-------------------------------------------------------------------------------
The R2SCAN3C composite method is recognized
Using three-body term ABC
Active option DFTDOPT                   ...         5   

-------------------------   ----------------
Dispersion correction           -0.005082673
-------------------------   ----------------

------------------   -----------------
gCP correction             0.011872113
------------------   -----------------

-------------------------   --------------------
FINAL SINGLE POINT ENERGY      -386.243802622470
-------------------------   --------------------


------------------------------------------------------------------------------
                              ORCA PROPERTY CALCULATIONS
------------------------------------------------------------------------------

GBWName                                 ... sp_solv.gbw
Number of atoms                         ...     20
Number of basis functions               ...    222
Max core memory                         ...   1024 MB

Electric properties:
Dipole moment                           ... YES
Quadrupole moment                       ...  NO
Static polarizability (Dipole/Dipole)   ...  NO
Static polarizability (Dipole/Quad.)    ...  NO
Static polarizability (Quad./Quad.)     ...  NO
Static polarizability (Velocity)        ...  NO

Atomic electric properties:
Dipole moment                           ...  NO
Quadrupole moment                       ...  NO
Static polarizability                   ...  NO

Choice of electric origin               ... Center of mass
Position of electric origin             ...    -0.000032    -0.000007     0.000010

General magnetic properties:
Magnetizability                         ...  NO

EPR properties:
g-Tensor (aka g-matrix)                 ...  NO
Zero-Field splitting spin-orbit         ...  NO
Zero-field splitting spin-spin          ...  NO
Hyperfine couplings                     ...  NO (   0 nuclei)
Quadrupole couplings                    ...  NO (   0 nuclei)
Contact density                         ...  NO (   0 nuclei)

NMR properties:
Chemical shifts                         ...  NO (   0 nuclei)
Spin-rotation constants                 ...  NO (   0 nuclei)
Spin-spin couplings                     ...  NO (   0 nuclei,    0 pairs)

Choice of magnetic origin               ... GIAO
Position of magnetic origin             ...     0.000000     0.000000     0.000000

Properties with geometric perturbations:
SCF Hessian                             ...  NO
IR spectrum                             ...  NO
VCD spectrum                            ...  NO
X-ray spectroscopy properties:
SCF XES/XAS/RIXS spectra                ...  NO


-------------
DIPOLE MOMENT
-------------

Method             : SCF
Type of density    : Electron Density
Multiplicity       :   1
Irrep              :   0
Energy             :  -386.2505920624973328 Eh
Relativity type    : 
Basis              : AO
                                X                 Y                 Z
Electronic contribution:      8.056845375       1.025339490      -1.873563134
Nuclear contribution   :     -8.670923291      -1.697877038       2.701145417
                        -----------------------------------------
Total Dipole Moment    :     -0.614077916      -0.672537548       0.827582282
                        -----------------------------------------
Magnitude (a.u.)       :      1.230565266
Magnitude (Debye)      :      3.127848333



--------------------
Rotational spectrum 
--------------------
 
Rotational constants in cm-1:             0.149437             0.032939             0.029193 
Rotational constants in MHz :          4480.022988           987.476209           875.177727 

Dipole components along the rotational axes: 
x,y,z [a.u.] :     0.663471     0.910212    -0.495592 
x,y,z [Debye]:     1.686411     2.313574    -1.259694 

 

Dipole moment calculation done in   0.0 sec 

Maximum memory used throughout the entire PROP-calculation: 13.8 MB

--------------------------------
SUGGESTED CITATIONS FOR THIS RUN
--------------------------------

Below you find a list of papers that are relevant to this ORCA run
We neither can nor want to force you to cite these papers, but we appreciate if you do
You receive ORCA, which is the product of decades of hard work by many enthusiastic individuals, for free
The only thing we kindly ask in return is that you cite our papers,
We deeply appreciate it, if you show your appreciation for ORCA by not just citing the generic ORCA reference.

Please note that relegating all ORCA citations to the supporting information does *not* help us.
SI sections are not indexed - citations you put there will not count into any citation statistics
But we need these citations in order to attract the funding resources that allow us to do what we are doing

Therefore, if you are a happy ORCA user, please consider citing a few of the papers listed below in the main body of your paper

In addition to the list printed below, the program has created the file sp_solv.bibtex that contains the list in bibtex format
You can import this file easily into all common literature databanks and citation aid programs


List of essential papers. We consider these as the minimum necessary citations

  1. Neese,F.
     Software update: the ORCA program system, version 5.0
     WIRES Comput. Molec. Sci., 2022 12(1)e1606
     doi.org/10.1002/wcms.1606
  2. Grimme,S.; Hansen,A.; Ehlert,S.; Mewes,J.
     r2SCAN-3c: A 'Swiss army knife' composite electronic-structure method
     J. Chem. Phys., 2021 154 064103
     doi.org/10.1063/5.0040021

List of papers to cite with high priority. The work reported in these papers was absolutely
necessary for this run to complete.
Our perspective: the developers of density functionals and basis sets usually get cited in chemistry papers
Good! But without the algorithms to do something with them, the functionals or basis sets would not do anything.
Hence, in our opinion, the algorithm design and method developments papers are equally worthy of getting cited

  1. Neese,F.
     An improvement of the resolution of the identity approximation for the formation of the Coulomb matrix
     J. Comp. Chem., 2003 24(14)1740-1747
     doi.org/10.1002/jcc.10318
  2. Garcia-Rates,M.; Neese,F.
     Effect of the Solute Cavity on the Solvation Energy and its Derivatives within the Framework of the Gaussian Charge Scheme
     J. Comput. Chem., 2020 41 922-939
     doi.org/10.1002/jcc.26139
  3. Neese,F.
     The SHARK Integral Generation and Digestion System
     J. Comp. Chem., 2022  1-16
     doi.org/10.1002/jcc.26942
  4. Lehtola,S.; Steigemann,C.; Oliveira,M.; Marques,M.
     Recent developments in Libxc - A comprehensive library of functionals for density functional theory
     Software X, 2018 7 
     doi.org/10.1016/j.softx.2017.11.002
  5. Caldeweyher,E.; Bannwarth,C.; Grimme,S.
     Extension of the D3 dispersion coefficient model
     J. Chem. Phys., 2017 147 034112-XXXX
     doi.org/10.1063/1.4993215
  6. Caldeweyher,E.; Ehlert,S.; Hansen,A.; Neugebauer,H.; Spicher,S.; Bannwarth,C.; Grimme,S.
     A generally applicable atomic-charge dependent London dispersion correction
     J. Chem. Phys., 2019 150 154122-XXXX
     doi.org/10.1063/1.5090222
  7. Caldeweyher,E.; Mewes,J.; Ehlert,S.; Grimme,S.
     Extension and evaluation of the D4 London-dispersion model for periodic systems
     Phys. Chem. Chem. Phys., 2020 22(16)8499-8512
     doi.org/10.1039/D0CP00502A

List of suggested additional citations. These are papers that are important in the 'surrounding' of 
of this run, or papers that preceded the highly important papers. If you like your results we are grateful for a citation.

  1. Neese,F.
     The ORCA program system
     WIRES Comput. Molec. Sci., 2012 2(1)73-78
     doi.org/10.1002/wcms.81
  2. Neese,F.
     Software update: the ORCA program system, version 4.0
     WIRES Comput. Molec. Sci., 2018 8(1)1-6
     doi.org/10.1002/wcms.1327
  3. Neese,F.; Wennmohs,F.; Becker,U.; Riplinger,C.
     The ORCA quantum chemistry program package
     J. Chem. Phys., 2020 152 Art. No. L224108
     doi.org/10.1063/5.0004608

List of optional additional citations

  1. Neese,F.
     Approximate second-order SCF convergence for spin unrestricted wavefunctions
     Chem. Phys. Lett., 2000 325(1-3)93-98
     doi.org/10.1016/s0009-2614(00)00662-x

Timings for individual modules:

Sum of individual times          ...       36.009 sec (=   0.600 min)
Startup calculation              ...        1.344 sec (=   0.022 min)   3.7 %
SCF iterations                   ...       34.558 sec (=   0.576 min)  96.0 %
Property calculations            ...        0.106 sec (=   0.002 min)   0.3 %
                             ****ORCA TERMINATED NORMALLY****
TOTAL RUN TIME: 0 days 0 hours 0 minutes 37 seconds 105 msec
