
                                 *****************
                                 * O   R   C   A *
                                 *****************

                                            #,                                       
                                            ###                                      
                                            ####                                     
                                            #####                                    
                                            ######                                   
                                           ########,                                 
                                     ,,################,,,,,                         
                               ,,#################################,,                 
                          ,,##########################################,,             
                       ,#########################################, ''#####,          
                    ,#############################################,,   '####,        
                  ,##################################################,,,,####,       
                ,###########''''           ''''###############################       
              ,#####''   ,,,,##########,,,,          '''####'''          '####       
            ,##' ,,,,###########################,,,                        '##       
           ' ,,###''''                  '''############,,,                           
         ,,##''                                '''############,,,,        ,,,,,,###''
      ,#''                                            '''#######################'''  
     '                                                          ''''####''''         
             ,#######,   #######,   ,#######,      ##                                
            ,#'     '#,  ##    ##  ,#'     '#,    #''#        ,####,   ,####,        
            ##       ##  ##   ,#'  ##            #'  '#       #'       #'  '#        
            ##       ##  #######   ##           ,######,      #####,   #    #        
            '#,     ,#'  ##    ##  '#,     ,#' ,#      #,     #,   #   #,  ,#        
             '#######'   ##     ##  '#######'  #'      '#     '####' # '####'        



                #########################################################
                #                        -***-                          #
                #          Department of theory and spectroscopy        #
                #                                                       #
                #                      Frank Neese                      #
                #                                                       #
                #     Directorship, Architecture, Infrastructure        #
                #                    SHARK, DRIVERS                     #
                #        Core code/Algorithms in most modules           #
                #                                                       #
                #        Max Planck Institute fuer Kohlenforschung      #
                #                Kaiser Wilhelm Platz 1                 #
                #                 D-45470 Muelheim/Ruhr                 #
                #                      Germany                          #
                #                                                       #
                #                  All rights reserved                  #
                #                        -***-                          #
                #########################################################


                         Program Version 6.0.0  -   RELEASE  -


 With contributions from (in alphabetic order):
   Daniel Aravena         : Magnetic Suceptibility
   Michael Atanasov       : Ab Initio Ligand Field Theory (pilot matlab implementation)
   Alexander A. Auer      : GIAO ZORA, VPT2 properties, NMR spectrum
   Ute Becker             : All parallelization in ORCA, NUMFREQ, NUMCALC
   Giovanni Bistoni       : ED, misc. LED, open-shell LED, HFLD
   Martin Brehm           : Molecular dynamics
   Dmytro Bykov           : pre 5.0 version of the SCF Hessian
   Marcos Casanova-Páez   : Triplet and SCS-CIS(D). UHF-(DLPNO)-IP/EA/STEOM-CCSD. UHF-CVS-IP/STEOM-CCSD
   Vijay G. Chilkuri      : MRCI spin determinant printing, contributions to CSF-ICE
   Pauline Colinet        : FMM embedding
   Dipayan Datta          : RHF DLPNO-CCSD density
   Achintya Kumar Dutta   : EOM-CC, STEOM-CC
   Nicolas Foglia         : Exact transition moments, OPA infrastructure, MCD improvements
   Dmitry Ganyushin       : Spin-Orbit,Spin-Spin,Magnetic field MRCI
   Miquel Garcia          : C-PCM and meta-GGA Hessian, CCSD/C-PCM, Gaussian charge scheme
   Tiago L. C. Gouveia    : GS-ROHF, GS-ROCIS
   Yang Guo               : DLPNO-NEVPT2, F12-NEVPT2, CIM, IAO-localization
   Andreas Hansen         : Spin unrestricted coupled pair/coupled cluster methods
   Ingolf Harden          : AUTO-CI MPn and infrastructure 
   Benjamin Helmich-Paris : MC-RPA, TRAH-(SCF,CASSCF), AVAS, COSX integrals, SCF dyn. polar.
   Lee Huntington         : MR-EOM, pCC
   Robert Izsak           : Overlap fitted RIJCOSX, COSX-SCS-MP3, EOM
   Riya Kayal             : Wick's Theorem for AUTO-CI, AUTO-CI UHF-CCSDT
   Emily Kempfer          : AUTO-CI, RHF CISDT and CCSDT
   Christian Kollmar      : KDIIS, OOCD, Brueckner-CCSD(T), CCSD density, CASPT2, CASPT2-K, improved NEVPT2
   Axel Koslowski         : Symmetry handling
   Simone Kossmann        : Meta GGA functionals, TD-DFT gradient, OOMP2, (MP2 Hessian; deprecated post 5.0)
   Lucas Lang             : DCDCAS
   Marvin Lechner         : AUTO-CI (C++ implementation), FIC-MRCC
   Spencer Leger          : CASSCF response
   Dagmar Lenk            : GEPOL surface, SMD, ORCA-2-JSON
   Dimitrios Liakos       : Extrapolation schemes; Compound Job, initial MDCI parallelization
   Dimitrios Manganas     : Further ROCIS development; embedding schemes. LFT, Crystal Embedding
   Dimitrios Pantazis     : SARC Basis sets
   Anastasios Papadopoulos: AUTO-CI, single reference methods and gradients
   Taras Petrenko         : pre 6.0 DFT Hessian and TD-DFT gradient, (ASA, deprecated), ECA, 1-Electron XAS/XES, NRVS
   Peter Pinski           : DLPNO-MP2, DLPNO-MP2 Gradient
   Christoph Reimann      : Effective Core Potentials
   Marius Retegan         : Local ZFS, SOC
   Christoph Riplinger    : Optimizer, TS searches, QM/MM, DLPNO-CCSD(T), (RO)-DLPNO pert. Triples
   Michael Roemelt        : Original ROCIS implementation
   Masaaki Saitow         : Open-shell DLPNO-CCSD energy and density
   Barbara Sandhoefer     : DKH picture change effects
   Kantharuban Sivalingam : CASSCF convergence/infrastructure, NEVPT2 and variants, FIC-MRCI
   Bernardo de Souza      : ESD, SOC TD-DFT
   Georgi Stoychev        : AutoAux, RI-MP2 NMR, DLPNO-MP2 response, X2C
   Van Anh Tran           : RI-MP2 g-tensors
   Willem Van den Heuvel  : Paramagnetic NMR
   Zikuan Wang            : NOTCH, Electric field optimization 
   Frank Wennmohs         : Technical directorship and infrastructure
   Hang Xu                : AUTO-CI-Response properties 


 We gratefully acknowledge several colleagues who have allowed us to
 interface, adapt or use parts of their codes:
   Stefan Grimme, W. Hujo, H. Kruse, P. Pracht,  : VdW corrections, initial TS optimization,
                  C. Bannwarth, S. Ehlert,         DFT functionals, gCP, sTDA/sTD-DF
                  L. Wittmann, M. Mueller
   Ed Valeev, F. Pavosevic, A. Kumar             : LibInt (2-el integral package), F12 methods
   Garnet Chan, S. Sharma, J. Yang, R. Olivares  : DMRG
   Ulf Ekstrom                                   : XCFun DFT Library
   Mihaly Kallay                                 : mrcc  (arbitrary order and MRCC methods)
   Frank Weinhold                                : gennbo (NPA and NBO analysis)
   Simon Mueller                                 : openCOSMO-RS
   Christopher J. Cramer and Donald G. Truhlar   : smd solvation model
   Lars Goerigk                                  : TD-DFT with DH, B97 family of functionals
   V. Asgeirsson, H. Jonsson                     : NEB implementation
   FAccTs GmbH                                   : IRC, NEB, NEB-TS, DLPNO-Multilevel, CI-OPT
                                                   MM, QMMM, 2- and 3-layer-ONIOM, Crystal-QMMM,
                                                   LR-CPCM, SF, NACMEs, symmetry and pop. for TD-DFT,
                                                   nearIR, NL-DFT gradient (VV10), updates on ESD,
                                                   ML-optimized integration grids, MBIS, APM,
                                                   GOAT, DOCKER, SOLVATOR, interface openCOSMO-RS
   S Lehtola, MJT Oliveira, MAL Marques          : LibXC Library
   Liviu Ungur et al                             : ANISO software


 Your calculation uses the libint2 library for the computation of 2-el integrals
 For citations please refer to: http://libint.valeyev.net

 Your ORCA version has been built with support for libXC version: 6.2.2
 For citations please refer to: https://libxc.gitlab.io

 This ORCA versions uses:
   CBLAS   interface :  Fast vector & matrix operations
   LAPACKE interface :  Fast linear algebra routines
   SCALAPACK package :  Parallel linear algebra routines
   Shared memory     :  Shared parallel matrices
   BLAS/LAPACK       :  OpenBLAS 0.3.27  USE64BITINT DYNAMIC_ARCH NO_AFFINITY SkylakeX SINGLE_THREADED
        Core in use  :  SkylakeX
   Copyright (c) 2011-2014, The OpenBLAS Project


Your calculation utilizes the geometrical counterpoise correction gCP
Please cite in your paper:
H.Kruse, S. Grimme J.Chem.Phys., 136, (2012), 154101 
   

Your calculation utilizes the atom-pairwise dispersion correction
based on EEQ partial charges (D4)


================================================================================

----- Orbital basis set information -----
Your calculation utilizes the basis: def2-mTZVPP
   Stefan Grimme, Andreas Hansen, Sebastian Ehlert, and Jan-Michael Mewes 
   J. Chem. Phys. 154, 064103 (2021). DOI: 10.1063/5.0040021

----- AuxJ basis set information -----
Your calculation utilizes the auxiliary basis: def2/J
   F. Weigend, Phys. Chem. Chem. Phys. 8, 1057 (2006).

================================================================================
                                        WARNINGS
                       Please study these warnings very carefully!
================================================================================

Using LibXC functional ID 497 : Re-regularized SCAN exchange by Furness et al
[ 1]  J. W. Furness, A. D. Kaplan, J. Ning, J. P. Perdew, and J. Sun.,  J. Phys. Chem. Lett. 11, 8208-8215 (2020)
[ 2]  J. W. Furness, A. D. Kaplan, J. Ning, J. P. Perdew, and J. Sun.,  J. Phys. Chem. Lett. 11, 9248-9248 (2020)
Using LibXC functional ID 498 : Re-regularized SCAN correlation by Furness et al
[ 1]  J. W. Furness, A. D. Kaplan, J. Ning, J. P. Perdew, and J. Sun.,  J. Phys. Chem. Lett. 11, 8208-8215 (2020)
[ 2]  J. W. Furness, A. D. Kaplan, J. Ning, J. P. Perdew, and J. Sun.,  J. Phys. Chem. Lett. 11, 9248-9248 (2020)
Using LibXC functional ID 497 : Re-regularized SCAN exchange by Furness et al
[ 1]  J. W. Furness, A. D. Kaplan, J. Ning, J. P. Perdew, and J. Sun.,  J. Phys. Chem. Lett. 11, 8208-8215 (2020)
[ 2]  J. W. Furness, A. D. Kaplan, J. Ning, J. P. Perdew, and J. Sun.,  J. Phys. Chem. Lett. 11, 9248-9248 (2020)
Using LibXC functional ID 498 : Re-regularized SCAN correlation by Furness et al
[ 1]  J. W. Furness, A. D. Kaplan, J. Ning, J. P. Perdew, and J. Sun.,  J. Phys. Chem. Lett. 11, 8208-8215 (2020)
[ 2]  J. W. Furness, A. D. Kaplan, J. Ning, J. P. Perdew, and J. Sun.,  J. Phys. Chem. Lett. 11, 9248-9248 (2020)

================================================================================
                                       INPUT FILE
================================================================================
NAME = sp_gas.inp
|  1> ! r2scan-3c def2/J RI DEFGRID2 scfconv6 printgap
|  2> %output
|  3>     printlevel normal
|  4> end
|  5> * xyz 0 1
|  6> C 1.6977001022 1.2750255708 -0.1235331288
|  7> C 1.4434144679 -0.2106327681 0.1236315154
|  8> C 1.4510306081 -0.9975302153 -1.1854180877
|  9> C 0.1619587014 -0.450023328 0.9323882673
| 10> C -1.1620707804 -0.0381475748 0.3432052841
| 11> O -2.2107073261 -0.2134897558 0.935877168
| 12> O -1.1288905157 0.5248396037 -0.8492030462
| 13> H 2.6676883773 1.411802645 -0.5944636924
| 14> H 1.6914579589 1.8252213777 0.8145330825
| 15> H 0.93787127 1.6922312607 -0.777061466
| 16> H 2.2615464511 -0.5905605963 0.7469477611
| 17> H 1.2690241393 -2.053366 -0.9979007966
| 18> H 0.6868693162 -0.6271110226 -1.8620267935
| 19> H 2.4176911132 -0.8977621174 -1.6723246994
| 20> H 0.2309908179 0.0659289266 1.8941058645
| 21> H 0.0646168578 -1.5142712972 1.1639818342
| 22> H -2.0207395795 0.7661916334 -1.1674362573
| 23> *
| 24> 
| 25>                          ****END OF INPUT****
================================================================================

                       ****************************
                       * Single Point Calculation *
                       ****************************

---------------------------------
CARTESIAN COORDINATES (ANGSTROEM)
---------------------------------
  C      1.697700    1.275026   -0.123533
  C      1.443414   -0.210633    0.123632
  C      1.451031   -0.997530   -1.185418
  C      0.161959   -0.450023    0.932388
  C     -1.162071   -0.038148    0.343205
  O     -2.210707   -0.213490    0.935877
  O     -1.128891    0.524840   -0.849203
  H      2.667688    1.411803   -0.594464
  H      1.691458    1.825221    0.814533
  H      0.937871    1.692231   -0.777061
  H      2.261546   -0.590561    0.746948
  H      1.269024   -2.053366   -0.997901
  H      0.686869   -0.627111   -1.862027
  H      2.417691   -0.897762   -1.672325
  H      0.230991    0.065929    1.894106
  H      0.064617   -1.514271    1.163982
  H     -2.020740    0.766192   -1.167436

----------------------------
CARTESIAN COORDINATES (A.U.)
----------------------------
  NO LB      ZA    FRAG     MASS         X           Y           Z
   0 C     6.0000    0    12.011    3.208188    2.409449   -0.233444
   1 C     6.0000    0    12.011    2.727658   -0.398038    0.233630
   2 C     6.0000    0    12.011    2.742050   -1.885059   -2.240116
   3 C     6.0000    0    12.011    0.306058   -0.850421    1.761958
   4 C     6.0000    0    12.011   -2.195996   -0.072088    0.648564
   5 O     8.0000    0    15.999   -4.177631   -0.403437    1.768552
   6 O     8.0000    0    15.999   -2.133294    0.991803   -1.604761
   7 H     1.0000    0     1.008    5.041200    2.667920   -1.123374
   8 H     1.0000    0     1.008    3.196392    3.449169    1.539244
   9 H     1.0000    0     1.008    1.772320    3.197854   -1.468433
  10 H     1.0000    0     1.008    4.273703   -1.115998    1.411527
  11 H     1.0000    0     1.008    2.398108   -3.880299   -1.885759
  12 H     1.0000    0     1.008    1.297995   -1.185068   -3.518721
  13 H     1.0000    0     1.008    4.568774   -1.696525   -3.160236
  14 H     1.0000    0     1.008    0.436509    0.124588    3.579341
  15 H     1.0000    0     1.008    0.122108   -2.861558    2.199607
  16 H     1.0000    0     1.008   -3.818644    1.447892   -2.206135

--------------------------------
INTERNAL COORDINATES (ANGSTROEM)
--------------------------------
 C      0   0   0     0.000000000000     0.00000000     0.00000000
 C      1   0   0     1.527393939066     0.00000000     0.00000000
 C      2   1   0     1.527375677879   111.19836061     0.00000000
 C      2   1   3     1.534120010107   112.09560986   233.68399978
 C      4   2   1     1.506596260596   119.02948422    63.18911999
 O      5   4   2     1.217227771365   121.82373130   179.42754475
 O      5   4   2     1.319050082176   116.62176573   359.35103791
 H      1   2   3     1.086904235704   109.94334832   299.70507901
 H      1   2   3     1.087530508568   110.58228153   180.07387065
 H      1   2   3     1.085587273991   110.77526969    59.47723660
 H      2   1   3     1.096452570214   107.74657507   117.87779378
 H      3   2   1     1.087694025634   110.58003957   180.00648760
 H      3   2   1     1.085795652562   110.78140243   300.60572803
 H      3   2   1     1.086951817698   109.94211396    60.38105553
 H      4   2   1     1.093559737234   109.71057122   301.36306244
 H      4   2   1     1.093496572784   109.74779270   185.06824704
 H      7   5   4     0.977199023479   112.13871092   180.07187039

---------------------------
INTERNAL COORDINATES (A.U.)
---------------------------
 C      0   0   0     0.000000000000     0.00000000     0.00000000
 C      1   0   0     2.886356243447     0.00000000     0.00000000
 C      2   1   0     2.886321734804   111.19836061     0.00000000
 C      2   1   3     2.899066675670   112.09560986   233.68399978
 C      4   2   1     2.847054326916   119.02948422    63.18911999
 O      5   4   2     2.300227130482   121.82373130   179.42754475
 O      5   4   2     2.492643412240   116.62176573   359.35103791
 H      1   2   3     2.053951339279   109.94334832   299.70507901
 H      1   2   3     2.055134823478   110.58228153   180.07387065
 H      1   2   3     2.051462642313   110.77526969    59.47723660
 H      2   1   3     2.071995076539   107.74657507   117.87779378
 H      3   2   1     2.055443825950   110.58003957   180.00648760
 H      3   2   1     2.051856420745   110.78140243   300.60572803
 H      3   2   1     2.054041256216   109.94211396    60.38105553
 H      4   2   1     2.066528414455   109.71057122   301.36306244
 H      4   2   1     2.066409050944   109.74779270   185.06824704
 H      7   5   4     1.846638532711   112.13871092   180.07187039

---------------------
BASIS SET INFORMATION
---------------------
There are 3 groups of distinct atoms

 Group   1 Type C   : 11s6p1d contracted to 5s3p1d pattern {62111/411/1}
 Group   2 Type O   : 11s6p2d contracted to 5s3p2d pattern {62111/411/11}
 Group   3 Type H   : 4s1p contracted to 2s1p pattern {31/1}

Atom   0C    basis set group =>   1
Atom   1C    basis set group =>   1
Atom   2C    basis set group =>   1
Atom   3C    basis set group =>   1
Atom   4C    basis set group =>   1
Atom   5O    basis set group =>   2
Atom   6O    basis set group =>   2
Atom   7H    basis set group =>   3
Atom   8H    basis set group =>   3
Atom   9H    basis set group =>   3
Atom  10H    basis set group =>   3
Atom  11H    basis set group =>   3
Atom  12H    basis set group =>   3
Atom  13H    basis set group =>   3
Atom  14H    basis set group =>   3
Atom  15H    basis set group =>   3
Atom  16H    basis set group =>   3
---------------------------------
AUXILIARY/J BASIS SET INFORMATION
---------------------------------
There are 3 groups of distinct atoms

 Group   1 Type C   : 12s5p4d2f1g contracted to 6s4p3d1f1g pattern {711111/2111/211/2/1}
 Group   2 Type O   : 12s5p4d2f1g contracted to 6s4p3d1f1g pattern {711111/2111/211/2/1}
 Group   3 Type H   : 5s2p1d contracted to 3s1p1d pattern {311/2/1}

Atom   0C    basis set group =>   1
Atom   1C    basis set group =>   1
Atom   2C    basis set group =>   1
Atom   3C    basis set group =>   1
Atom   4C    basis set group =>   1
Atom   5O    basis set group =>   2
Atom   6O    basis set group =>   2
Atom   7H    basis set group =>   3
Atom   8H    basis set group =>   3
Atom   9H    basis set group =>   3
Atom  10H    basis set group =>   3
Atom  11H    basis set group =>   3
Atom  12H    basis set group =>   3
Atom  13H    basis set group =>   3
Atom  14H    basis set group =>   3
Atom  15H    basis set group =>   3
Atom  16H    basis set group =>   3

Checking for AutoStart:
The File: sp_gas.gbw exists
Trying to determine its content:
     ... Fine, the file contains calculation information
     ... Fine, the calculation information was read
     ... Fine, the file contains a basis set
     ... Fine, the basis set was read
     ... Fine, the file contains a geometry
     ... Fine, the geometry was read
     ... Fine, the file contains a set of orbitals
     ... Fine, the orbitals can be read
     => possible old guess file was deleted
     => GBW file was renamed to GES file
     => GES file is set as startup file
     => Guess is set to MORead
     ... now leaving AutoStart

------------------------------------------------------------------------------
                             ORCA STARTUP CALCULATIONS
                           -- RI-GTO INTEGRALS CHOSEN --
------------------------------------------------------------------------------
------------------------------------------------------------------------------
                   ___                                                        
                  /   \      - P O W E R E D   B Y -                         
                 /     \                                                     
                 |  |  |   _    _      __       _____    __    __             
                 |  |  |  | |  | |    /  \     |  _  \  |  |  /  |          
                  \  \/   | |  | |   /    \    | | | |  |  | /  /          
                 / \  \   | |__| |  /  /\  \   | |_| |  |  |/  /          
                |  |  |   |  __  | /  /__\  \  |    /   |      \           
                |  |  |   | |  | | |   __   |  |    \   |  |\   \          
                \     /   | |  | | |  |  |  |  | |\  \  |  | \   \       
                 \___/    |_|  |_| |__|  |__|  |_| \__\ |__|  \__/        
                                                                              
                      - O R C A' S   B I G   F R I E N D -                    
                                      &                                       
                       - I N T E G R A L  F E E D E R -                       
                                                                              
 v1 FN, 2020, v2 2021, v3 2022-2024                                           
------------------------------------------------------------------------------


----------------------
SHARK INTEGRAL PACKAGE
----------------------

Number of atoms                             ...     17
Number of basis functions                   ...    193
Number of shells                            ...     95
Maximum angular momentum                    ...      2
Integral batch strategy                     ... SHARK/LIBINT Hybrid
RI-J (if used) integral strategy            ... SPLIT-RIJ (Revised 2003 algorithm where possible)
Printlevel                                  ...      1
Contraction scheme used                     ... SEGMENTED contraction
Prescreening option                         ... SCHWARTZ
   Thresh                                   ... 1.000e-10
   Tcut                                     ... 1.000e-11
   Tpresel                                  ... 1.000e-11 
Coulomb Range Separation                    ... NOT USED
Exchange Range Separation                   ... NOT USED
Multipole approximations                    ... NOT USED
Finite Nucleus Model                        ... NOT USED
CABS basis                                  ... NOT available
Auxiliary Coulomb fitting basis             ... AVAILABLE
   # of basis functions in Aux-J            ...    453
   # of shells in Aux-J                     ...    155
   Maximum angular momentum in Aux-J        ...      4
Auxiliary J/K fitting basis                 ... NOT available
Auxiliary Correlation fitting basis         ... NOT available
Auxiliary 'external' fitting basis          ... NOT available

Checking pre-screening integrals            ... done (  0.0 sec) Dimension = 95
Check shell pair data                       ... done (  0.0 sec)
Shell pair information
Shell pair cut-off parameter TPreSel        ...   1.0e-11
Total number of shell pairs                 ...      4560
Shell pairs after pre-screening             ...      4241
Total number of primitive shell pairs       ...     16115
Primitive shell pairs kept                  ...     10894
          la=0 lb=0:   1398 shell pairs
          la=1 lb=0:   1584 shell pairs
          la=1 lb=1:    474 shell pairs
          la=2 lb=0:    473 shell pairs
          la=2 lb=1:    268 shell pairs
          la=2 lb=2:     44 shell pairs

Calculating one electron integrals          ... done (  0.0 sec)
Calculating RI/J V-Matrix + Cholesky decomp.... done (  0.1 sec)
Calculating Nuclear repulsion               ... done (  0.0 sec) ENN=    322.796033592400 Eh

Diagonalization of the overlap matrix:
Smallest eigenvalue                        ... 1.347e-04
Time for diagonalization                   ...    0.004 sec
Threshold for overlap eigenvalues          ... 1.000e-07
Number of eigenvalues below threshold      ... 0
Time for construction of square roots      ...    0.014 sec
Total time needed                          ...    0.026 sec

-------------------
DFT GRID GENERATION
-------------------

General Integration Accuracy     IntAcc      ... 4.388
Radial Grid Type                 RadialGrid  ... OptM3 with GC (2021)
Angular Grid (max. ang.)         AngularGrid ... 4 (Lebedev-302)
Angular grid pruning method      GridPruning ... 4 (adaptive)
Weight generation scheme         WeightScheme... mBecke (2022)
Basis function cutoff            BFCut       ... 1.0000e-10
Integration weight cutoff        WCut        ... 1.0000e-14
Partially contracted basis set               ... off
Rotationally invariant grid construction     ... off
Angular grids for H and He will be reduced by one unit
Diffuse basis detected: some atoms will have their outermost
                        angular grid increased by 1.

Total number of grid points                  ...    74821
Total number of batches                      ...     1178
Average number of points per batch           ...       63
Average number of grid points per atom       ...     4401
Initializing property integral containers    ... done (  0.0 sec)

SHARK setup successfully completed in   1.1 seconds

Maximum memory used throughout the entire STARTUP-calculation: 34.0 MB
-------------------------------------------------------------------------------
                                 ORCA GUESS
                   Start orbitals & Density for SCF / CASSCF
-------------------------------------------------------------------------------

------------
SCF SETTINGS
------------
Hamiltonian:
 Density Functional     Method          .... DFT(GTOs)
  Functional kind                       .... Exchange
  Functional name                       .... Re-regularized SCAN exchange by Furness et al
  Functional family                     .... MGGA
  Functional refs                              
    [ 0] J. W. Furness, A. D. Kaplan, J. Ning, J. P. Perdew, and J. Sun.,  J. Phys. Chem. Lett. 11, 8208-8215 (2020), doi: 10.1021/acs.jpclett.0c02405
    [ 1] J. W. Furness, A. D. Kaplan, J. Ning, J. P. Perdew, and J. Sun.,  J. Phys. Chem. Lett. 11, 9248-9248 (2020), doi: 10.1021/acs.jpclett.0c03077
  Functional external parameters        .... 6
    Parameter  0 _c1        =  6.670000e-01 : c1 parameter        
    Parameter  1 _c2        =  8.000000e-01 : c2 parameter        
    Parameter  2 _d         =  1.240000e+00 : d parameter         
    Parameter  3 _k1        =  6.500000e-02 : k1 parameter        
    Parameter  4 _eta       =  1.000000e-03 : eta parameter       
    Parameter  5 _dp2       =  3.610000e-01 : dp2 parameter       
  Functional kind                       .... Correlation
  Functional name                       .... Re-regularized SCAN correlation by Furness et al
  Functional family                     .... MGGA
  Functional refs                              
    [ 0] J. W. Furness, A. D. Kaplan, J. Ning, J. P. Perdew, and J. Sun.,  J. Phys. Chem. Lett. 11, 8208-8215 (2020), doi: 10.1021/acs.jpclett.0c02405
    [ 1] J. W. Furness, A. D. Kaplan, J. Ning, J. P. Perdew, and J. Sun.,  J. Phys. Chem. Lett. 11, 9248-9248 (2020), doi: 10.1021/acs.jpclett.0c03077
  Functional external parameters        .... 1
    Parameter  0 _eta       =  1.000000e-03 : Regularization parameter
 Gradients option       PostSCFGGA      .... off
 RI-approximation to the Coulomb term is turned on
   Number of AuxJ basis functions       .... 453


General Settings:
 Integral files         IntName         .... sp_gas
 Hartree-Fock type      HFTyp           .... RHF
 Total Charge           Charge          ....    0
 Multiplicity           Mult            ....    1
 Number of Electrons    NEL             ....   56
 Basis Dimension        Dim             ....  193
 Nuclear Repulsion      ENuc            ....    322.7960335924 Eh

Convergence Acceleration:
 AO-DIIS                CNVDIIS         .... on
   Start iteration      DIISMaxIt       ....    12
   Startup error        DIISStart       ....  0.200000
   # of expansion vecs  DIISMaxEq       ....     5
   Bias factor          DIISBfac        ....   1.050
   Max. coefficient     DIISMaxC        ....  10.000
 MO-DIIS                CNVKDIIS        .... off
 Trust-Rad. Augm. Hess. CNVTRAH         .... auto
   Auto Start mean grad. ratio tolernc. ....  1.125000
   Auto Start start iteration           ....     1
   Auto Start num. interpolation iter.  ....    10
   Max. Number of Micro iterations      ....    24
   Max. Number of Macro iterations      .... Maxiter - #DIIS iter
   Number of Davidson start vectors     ....     2
   Converg. threshold    (grad. norm)   ....   3.330e-04
   Grad. Scal. Fac. for Micro threshold ....   0.100
   Minimum threshold for Micro iter.    ....   1.000e-02
   NR start threshold (gradient norm)   ....   1.000e-04
   Initial trust radius                 ....   0.400
   Minimum AH scaling param. (alpha)    ....   1.000
   Maximum AH scaling param. (alpha)    .... 1000.000
   Quad. conv. algorithm                .... NR
   White noise on init. David. guess    .... on
   Maximum white noise                  ....   0.010
   Pseudo random numbers                .... off
   Inactive MOs                         .... canonical
   Orbital update algorithm             .... Taylor
   Preconditioner                       .... Diag
   Full preconditioner red. dimension   ....   250
   COSX micro iterations for RIJONX calc.... off
 SOSCF                  CNVSOSCF        .... on
   Start iteration      SOSCFMaxIt      ....   150
   Startup grad/error   SOSCFStart      ....  0.003300
   Hessian update       SOSCFHessUp     .... L-BFGS
 Level Shifting         CNVShift        .... on
   Level shift para.    LevelShift      ....    0.2500
   Turn off err/grad.   ShiftErr        ....    0.0010
 Zerner damping         CNVZerner       .... off
 Static damping         CNVDamp         .... on
   Fraction old density DampFac         ....    0.7000
   Max. Damping (<1)    DampMax         ....    0.9800
   Min. Damping (>=0)   DampMin         ....    0.0000
   Turn off err/grad.   DampErr         ....    0.1000

SCF Procedure:
 Maximum # iterations   MaxIter         ....   125
 SCF integral mode      SCFMode         .... Direct
   Integral package                     .... SHARK and LIBINT hybrid scheme
 Reset frequency        DirectResetFreq ....    20
 Integral Threshold     Thresh          ....  1.000e-10 Eh
 Primitive CutOff       TCut            ....  1.000e-11 Eh

Convergence Tolerance:
 Convergence Check Mode ConvCheckMode   .... Total+1el-Energy
 Convergence forced     ConvForced      .... 0
 Energy Change          TolE            ....  1.000e-06 Eh
 1-El. energy change                    ....  1.000e-03 Eh
 Orbital Gradient       TolG            ....  3.330e-04
 Orbital Rotation angle TolX            ....  3.330e-04
 DIIS Error             TolErr          ....  1.000e-06

---------------------
INITIAL GUESS: MOREAD
---------------------
Guess MOs are being read from file: sp_gas.ges
Input Geometry matches current geometry (good)
Atom 0: N(Shells)= 9 and 6 - projection required
Input basis set needs projection
NBasis(read)= 118
NBasis(calc)= 193
Basis set overlap was calculated
Using GuessMode=FMatrix for the initial guess
C*T matrix was formed
Effective Fockian was calculated
Effective Fockian was diagonalized
Initial density was built
                      ------------------
                      INITIAL GUESS DONE (   0.1 sec)
                      ------------------
             **** ENERGY FILE WAS UPDATED (sp_gas.en.tmp) ****
Finished Guess after   0.3 sec
Maximum memory used throughout the entire GUESS-calculation: 13.3 MB

-------------------------------------------------------------------------------------------
                                      ORCA LEAN-SCF
                              memory conserving SCF solver
-------------------------------------------------------------------------------------------

----------------------------------------D-I-I-S--------------------------------------------
Iteration    Energy (Eh)           Delta-E    RMSDP     MaxDP     DIISErr   Damp  Time(sec)
-------------------------------------------------------------------------------------------
               ***  Starting incremental Fock matrix formation  ***
    1    -346.7655621894599562     0.00e+00  4.23e-03  1.62e-01  6.24e-01  0.700   2.2
    2    -346.8201449972458477    -5.46e-02  3.40e-03  1.04e-01  4.39e-01  0.700   2.1
    3    -346.8587629073591643    -3.86e-02  2.49e-03  7.57e-02  3.08e-01  0.700   2.1
    4    -346.8858872129172823    -2.71e-02  1.79e-03  5.40e-02  2.15e-01  0.700   2.0
                               ***Turning on AO-DIIS***
    5    -346.9049206311718763    -1.90e-02  1.30e-03  3.88e-02  1.51e-01  0.700   2.0
    6    -346.9182659327926785    -1.33e-02  9.19e-04  2.74e-02  1.05e-01  0.700   2.0
    7    -346.9276244367603113    -9.36e-03  6.48e-04  1.93e-02  7.38e-02  0.700   2.0
    8    -346.9341825928084972    -6.56e-03  1.52e-03  4.52e-02  5.17e-02  0.000   1.9
                              *** Initializing SOSCF ***
---------------------------------------S-O-S-C-F--------------------------------------
Iteration    Energy (Eh)           Delta-E    RMSDP     MaxDP     MaxGrad    Time(sec)
--------------------------------------------------------------------------------------
    9    -346.9495093524478762    -1.53e-02  9.51e-06  2.69e-04  1.74e-04     2.0
               *** Restarting incremental Fock matrix formation ***
   10    -346.9495093878904299    -3.54e-08  1.38e-05  6.44e-04  1.10e-04     2.3
   11    -346.9495088362552906     5.52e-07  9.51e-06  4.26e-04  3.21e-04     1.7
                 **** Energy Check signals convergence ****

               *****************************************************
               *                     SUCCESS                       *
               *           SCF CONVERGED AFTER  11 CYCLES          *
               *****************************************************

             **** ENERGY FILE WAS UPDATED (sp_gas.en.tmp) ****

----------------
TOTAL SCF ENERGY
----------------

Total Energy       :       -346.94950883625529 Eh           -9440.97611 eV

Components:
Nuclear Repulsion  :        322.79603359239979 Eh            8783.72663 eV
Electronic Energy  :       -669.74554242865509 Eh          -18224.70274 eV
One Electron Energy:      -1110.94369129880283 Eh          -30230.31472 eV
Two Electron Energy:        441.19814887014775 Eh           12005.61198 eV

Virial components:
Potential Energy   :       -692.50480866613145 Eh          -18844.01385 eV
Kinetic Energy     :        345.55529982987616 Eh            9403.03775 eV
Virial Ratio       :          2.00403469142874

DFT components:
N(Alpha)           :       27.999926029328 electrons
N(Beta)            :       27.999926029328 electrons
N(Total)           :       55.999852058656 electrons
E(X)               :      -46.165591152585 Eh       
E(C)               :       -1.795291309306 Eh       
E(XC)              :      -47.960882461890 Eh       

---------------
SCF CONVERGENCE
---------------

  Last Energy change         ...   -5.5164e-07  Tolerance :   1.0000e-06
  Last MAX-Density change    ...    4.2581e-04  Tolerance :   1.0000e-05
  Last RMS-Density change    ...    9.5081e-06  Tolerance :   1.0000e-06
  Last DIIS Error            ...    1.7373e-04  Tolerance :   1.0000e-06
  Last Orbital Gradient      ...    3.2096e-04  Tolerance :   3.3300e-04
  Last Orbital Rotation      ...    3.4122e-04  Tolerance :   3.3300e-04


----------------
ORBITAL ENERGIES
----------------

  NO   OCC          E(Eh)            E(eV) 
   0   2.0000     -19.007671      -517.2250 
   1   2.0000     -18.931290      -515.1466 
   2   2.0000     -10.163875      -276.5731 
   3   2.0000     -10.048250      -273.4268 
   4   2.0000     -10.045529      -273.3527 
   5   2.0000     -10.017284      -272.5841 
   6   2.0000     -10.017184      -272.5814 
   7   2.0000      -1.082981       -29.4694 
   8   2.0000      -0.976918       -26.5833 
   9   2.0000      -0.787240       -21.4219 
  10   2.0000      -0.696733       -18.9591 
  11   2.0000      -0.654403       -17.8072 
  12   2.0000      -0.607344       -16.5267 
  13   2.0000      -0.543292       -14.7837 
  14   2.0000      -0.459350       -12.4996 
  15   2.0000      -0.448126       -12.1941 
  16   2.0000      -0.443503       -12.0683 
  17   2.0000      -0.419445       -11.4137 
  18   2.0000      -0.396429       -10.7874 
  19   2.0000      -0.394963       -10.7475 
  20   2.0000      -0.364326        -9.9138 
  21   2.0000      -0.352937        -9.6039 
  22   2.0000      -0.341850        -9.3022 
  23   2.0000      -0.310136        -8.4392 
  24   2.0000      -0.308422        -8.3926 
  25   2.0000      -0.298016        -8.1094 
  26   2.0000      -0.286459        -7.7950 
  27   2.0000      -0.238509        -6.4902 
  28   0.0000      -0.022164        -0.6031 
  29   0.0000       0.048638         1.3235 
  30   0.0000       0.086950         2.3660 
  31   0.0000       0.121504         3.3063 
  32   0.0000       0.131618         3.5815 
  33   0.0000       0.131945         3.5904 
  34   0.0000       0.135911         3.6983 
  35   0.0000       0.148721         4.0469 
  36   0.0000       0.153130         4.1669 
  37   0.0000       0.158271         4.3068 
  38   0.0000       0.175120         4.7653 
*Only the first 10 virtual orbitals were printed.

                    ********************************
                    * MULLIKEN POPULATION ANALYSIS *
                    ********************************

-----------------------
MULLIKEN ATOMIC CHARGES
-----------------------
   0 C :   -0.535439
   1 C :    0.075579
   2 C :   -0.535698
   3 C :   -0.341034
   4 C :    0.295021
   5 O :   -0.392132
   6 O :   -0.331508
   7 H :    0.144917
   8 H :    0.145129
   9 H :    0.174592
  10 H :    0.149920
  11 H :    0.145365
  12 H :    0.174470
  13 H :    0.145024
  14 H :    0.175474
  15 H :    0.175494
  16 H :    0.334826
Sum of atomic charges:    0.0000000

--------------------------------
MULLIKEN REDUCED ORBITAL CHARGES
--------------------------------
  0 C s       :     3.353633  s :     3.353633
      pz      :     1.097503  p :     3.154991
      px      :     1.105551
      py      :     0.951937
      dz2     :     0.003408  d :     0.026815
      dxz     :     0.005000
      dyz     :     0.007067
      dx2y2   :     0.007044
      dxy     :     0.004297

  1 C s       :     2.989351  s :     2.989351
      pz      :     0.960341  p :     2.888607
      px      :     0.999356
      py      :     0.928911
      dz2     :     0.007557  d :     0.046462
      dxz     :     0.011278
      dyz     :     0.009973
      dx2y2   :     0.010515
      dxy     :     0.007139

  2 C s       :     3.353903  s :     3.353903
      pz      :     0.987343  p :     3.154978
      px      :     1.106364
      py      :     1.061271
      dz2     :     0.005110  d :     0.026818
      dxz     :     0.007879
      dyz     :     0.005072
      dx2y2   :     0.007081
      dxy     :     0.001675

  3 C s       :     3.217822  s :     3.217822
      pz      :     1.074975  p :     3.087877
      px      :     0.892273
      py      :     1.120629
      dz2     :     0.006452  d :     0.035334
      dxz     :     0.008114
      dyz     :     0.004789
      dx2y2   :     0.010648
      dxy     :     0.005331

  4 C s       :     3.135074  s :     3.135074
      pz      :     0.797541  p :     2.444061
      px      :     0.881907
      py      :     0.764613
      dz2     :     0.036612  d :     0.125844
      dxz     :     0.029682
      dyz     :     0.020051
      dx2y2   :     0.020089
      dxy     :     0.019411

  5 O s       :     3.831404  s :     3.831404
      pz      :     1.624117  p :     4.537556
      px      :     1.404008
      py      :     1.509431
      dz2     :     0.001665  d :     0.023172
      dxz     :     0.009290
      dyz     :     0.002270
      dx2y2   :     0.002554
      dxy     :     0.007393

  6 O s       :     3.713616  s :     3.713616
      pz      :     1.387953  p :     4.586684
      px      :     1.527800
      py      :     1.670931
      dz2     :     0.007068  d :     0.031207
      dxz     :     0.007043
      dyz     :     0.002441
      dx2y2   :     0.009015
      dxy     :     0.005641

  7 H s       :     0.836778  s :     0.836778
      pz      :     0.005141  p :     0.018304
      px      :     0.009430
      py      :     0.003733

  8 H s       :     0.836600  s :     0.836600
      pz      :     0.008876  p :     0.018271
      px      :     0.003757
      py      :     0.005638

  9 H s       :     0.806782  s :     0.806782
      pz      :     0.006363  p :     0.018627
      px      :     0.007711
      py      :     0.004552

 10 H s       :     0.832726  s :     0.832726
      pz      :     0.005621  p :     0.017354
      px      :     0.007539
      py      :     0.004194

 11 H s       :     0.836371  s :     0.836371
      pz      :     0.003751  p :     0.018264
      px      :     0.003968
      py      :     0.010545

 12 H s       :     0.806918  s :     0.806918
      pz      :     0.006363  p :     0.018612
      px      :     0.007691
      py      :     0.004558

 13 H s       :     0.836674  s :     0.836674
      pz      :     0.005263  p :     0.018301
      px      :     0.009338
      py      :     0.003700

 14 H s       :     0.806508  s :     0.806508
      pz      :     0.009535  p :     0.018018
      px      :     0.003281
      py      :     0.005202

 15 H s       :     0.806500  s :     0.806500
      pz      :     0.003979  p :     0.018007
      px      :     0.003308
      py      :     0.010720

 16 H s       :     0.624490  s :     0.624490
      pz      :     0.009360  p :     0.040685
      px      :     0.020642
      py      :     0.010683


------------------------
MULLIKEN OVERLAP CHARGES
------------------------
B(  0-C ,  1-C ) :   0.4914 B(  0-C ,  2-C ) :  -0.2143 B(  0-C ,  3-C ) :  -0.1371 
B(  0-C ,  7-H ) :   0.7941 B(  0-C ,  8-H ) :   0.7952 B(  0-C ,  9-H ) :   0.8693 
B(  0-C , 10-H ) :  -0.0552 B(  1-C ,  2-C ) :   0.4914 B(  1-C ,  3-C ) :   0.1756 
B(  1-C ,  4-C ) :  -0.1045 B(  1-C ,  6-O ) :   0.1076 B(  1-C ,  7-H ) :  -0.0685 
B(  1-C ,  8-H ) :  -0.0839 B(  1-C ,  9-H ) :  -0.1010 B(  1-C , 10-H ) :   0.8538 
B(  1-C , 11-H ) :  -0.0844 B(  1-C , 12-H ) :  -0.1010 B(  1-C , 13-H ) :  -0.0681 
B(  1-C , 14-H ) :  -0.0653 B(  1-C , 15-H ) :  -0.0652 B(  2-C ,  3-C ) :  -0.1369 
B(  2-C , 10-H ) :  -0.0557 B(  2-C , 11-H ) :   0.7955 B(  2-C , 12-H ) :   0.8688 
B(  2-C , 13-H ) :   0.7940 B(  3-C ,  4-C ) :   0.5063 B(  3-C ,  5-O ) :  -0.2168 
B(  3-C ,  6-O ) :  -0.2997 B(  3-C , 10-H ) :  -0.1127 B(  3-C , 14-H ) :   0.7739 
B(  3-C , 15-H ) :   0.7754 B(  4-C ,  5-O ) :   1.1486 B(  4-C ,  6-O ) :   0.3739 
B(  5-O ,  6-O ) :  -0.2402 B(  6-O , 16-H ) :   0.5798 


                     *******************************
                     * LOEWDIN POPULATION ANALYSIS *
                     *******************************

----------------------
LOEWDIN ATOMIC CHARGES
----------------------
   0 C :   -0.410850
   1 C :   -0.237348
   2 C :   -0.410825
   3 C :   -0.232503
   4 C :    0.344483
   5 O :   -0.429186
   6 O :   -0.416718
   7 H :    0.153861
   8 H :    0.153900
   9 H :    0.168550
  10 H :    0.158294
  11 H :    0.154003
  12 H :    0.168495
  13 H :    0.153903
  14 H :    0.190310
  15 H :    0.190259
  16 H :    0.301371

-------------------------------
LOEWDIN REDUCED ORBITAL CHARGES
-------------------------------
  0 C s       :     2.966963  s :     2.966963
      pz      :     1.155234  p :     3.380913
      px      :     1.152780
      py      :     1.072899
      dz2     :     0.008334  d :     0.062974
      dxz     :     0.012542
      dyz     :     0.016053
      dx2y2   :     0.017109
      dxy     :     0.008936

  1 C s       :     2.903909  s :     2.903909
      pz      :     1.085706  p :     3.238115
      px      :     1.072657
      py      :     1.079752
      dz2     :     0.015007  d :     0.095324
      dxz     :     0.024395
      dyz     :     0.019983
      dx2y2   :     0.022538
      dxy     :     0.013401

  2 C s       :     2.967012  s :     2.967012
      pz      :     1.096688  p :     3.380850
      px      :     1.156623
      py      :     1.127539
      dz2     :     0.011524  d :     0.062963
      dxz     :     0.018282
      dyz     :     0.011914
      dx2y2   :     0.017494
      dxy     :     0.003749

  3 C s       :     2.919123  s :     2.919123
      pz      :     1.097195  p :     3.238844
      px      :     1.013888
      py      :     1.127760
      dz2     :     0.013516  d :     0.074536
      dxz     :     0.017171
      dyz     :     0.010321
      dx2y2   :     0.023994
      dxy     :     0.009533

  4 C s       :     2.750108  s :     2.750108
      pz      :     0.879179  p :     2.633574
      px      :     1.007164
      py      :     0.747231
      dz2     :     0.079716  d :     0.271835
      dxz     :     0.067253
      dyz     :     0.044577
      dx2y2   :     0.044327
      dxy     :     0.035961

  5 O s       :     3.556355  s :     3.556355
      pz      :     1.625219  p :     4.665758
      px      :     1.550185
      py      :     1.490355
      dz2     :     0.042310  d :     0.207072
      dxz     :     0.053831
      dyz     :     0.022246
      dx2y2   :     0.052888
      dxy     :     0.035798

  6 O s       :     3.472816  s :     3.472816
      pz      :     1.486868  p :     4.681011
      px      :     1.533091
      py      :     1.661053
      dz2     :     0.064568  d :     0.262891
      dxz     :     0.074977
      dyz     :     0.056962
      dx2y2   :     0.029595
      dxy     :     0.036789

  7 H s       :     0.802420  s :     0.802420
      pz      :     0.011943  p :     0.043718
      px      :     0.023333
      py      :     0.008443

  8 H s       :     0.802508  s :     0.802508
      pz      :     0.022039  p :     0.043591
      px      :     0.008331
      py      :     0.013222

  9 H s       :     0.785767  s :     0.785767
      pz      :     0.015601  p :     0.045683
      px      :     0.019306
      py      :     0.010775

 10 H s       :     0.798666  s :     0.798666
      pz      :     0.014026  p :     0.043040
      px      :     0.018566
      py      :     0.010448

 11 H s       :     0.802420  s :     0.802420
      pz      :     0.008581  p :     0.043577
      px      :     0.008874
      py      :     0.026122

 12 H s       :     0.785858  s :     0.785858
      pz      :     0.015787  p :     0.045647
      px      :     0.019277
      py      :     0.010583

 13 H s       :     0.802383  s :     0.802383
      pz      :     0.012297  p :     0.043715
      px      :     0.023181
      py      :     0.008237

 14 H s       :     0.765741  s :     0.765741
      pz      :     0.023872  p :     0.043949
      px      :     0.007422
      py      :     0.012656

 15 H s       :     0.765819  s :     0.765819
      pz      :     0.009428  p :     0.043922
      px      :     0.007655
      py      :     0.026839

 16 H s       :     0.582841  s :     0.582841
      pz      :     0.024437  p :     0.115788
      px      :     0.063658
      py      :     0.027694


---------------------------------
LOEWDIN BOND ORDERS (THRESH 0.050000)
---------------------------------
B(  0-C ,  1-C ) :   1.1087 B(  0-C ,  2-C ) :   0.0689 B(  0-C ,  3-C ) :   0.0656 
B(  0-C ,  7-H ) :   0.9224 B(  0-C ,  8-H ) :   0.9229 B(  0-C ,  9-H ) :   0.9069 
B(  1-C ,  2-C ) :   1.1087 B(  1-C ,  3-C ) :   1.0662 B(  1-C ,  4-C ) :   0.0581 
B(  1-C , 10-H ) :   0.8585 B(  2-C ,  3-C ) :   0.0655 B(  2-C , 11-H ) :   0.9228 
B(  2-C , 12-H ) :   0.9069 B(  2-C , 13-H ) :   0.9224 B(  3-C ,  4-C ) :   0.9402 
B(  3-C ,  5-O ) :   0.1940 B(  3-C ,  6-O ) :   0.1577 B(  3-C , 14-H ) :   0.8525 
B(  3-C , 15-H ) :   0.8527 B(  4-C ,  5-O ) :   2.1941 B(  4-C ,  6-O ) :   1.4883 
B(  4-C , 16-H ) :   0.0568 B(  5-O ,  6-O ) :   0.4813 B(  6-O , 16-H ) :   0.9091 


------------------------------------------
LOEWDIN REDUCED ORBITAL POPULATIONS PER MO
-------------------------------------------
THRESHOLD FOR PRINTING IS 0.1%%
                      0         1         2         3         4         5   
                 -19.00767 -18.93129 -10.16387 -10.04825 -10.04553 -10.01728
                   2.00000   2.00000   2.00000   2.00000   2.00000   2.00000
                  --------  --------  --------  --------  --------  --------
 1 C  s               0.0       0.0       0.0       0.1      99.6       0.0
 2 C  s               0.0       0.0       0.0       0.0       0.0      99.7
 3 C  s               0.0       0.0       0.0      99.6       0.1       0.0
 4 C  s               0.0       0.0      98.9       0.0       0.0       0.0
 5 O  s               0.0      99.9       0.0       0.0       0.0       0.0
 5 O  px              0.0       0.0       0.2       0.0       0.0       0.0
 5 O  dxz             0.0       0.0       0.2       0.0       0.0       0.0
 5 O  dx2y2           0.0       0.0       0.1       0.0       0.0       0.0
 6 O  s              99.9       0.0       0.0       0.0       0.0       0.0
 6 O  pz              0.0       0.0       0.1       0.0       0.0       0.0
 6 O  dz2             0.0       0.0       0.2       0.0       0.0       0.0
 6 O  dyz             0.0       0.0       0.1       0.0       0.0       0.0

                      6         7         8         9        10        11   
                 -10.01718  -1.08298  -0.97692  -0.78724  -0.69673  -0.65440
                   2.00000   2.00000   2.00000   2.00000   2.00000   2.00000
                  --------  --------  --------  --------  --------  --------
 0 C  s              99.7       0.0       0.0       9.4       8.6      22.6
 0 C  pz              0.0       0.0       0.0       0.1       0.1       0.2
 0 C  px              0.0       0.1       0.0       0.2       0.1       0.0
 0 C  py              0.0       0.0       0.0       3.0       0.3       0.8
 1 C  s               0.0       0.1       0.0      25.8       3.2       0.0
 1 C  pz              0.0       0.0       0.0       0.0       4.7       2.9
 1 C  px              0.0       0.3       0.0       0.9       4.4       0.2
 1 C  py              0.1       0.0       0.0       0.0       0.6      13.2
 1 C  dz2             0.0       0.0       0.0       0.0       0.0       0.2
 1 C  dyz             0.0       0.0       0.0       0.0       0.0       0.2
 1 C  dx2y2           0.0       0.0       0.0       0.0       0.2       0.0
 2 C  s               0.0       0.0       0.0       9.4       8.6      22.6
 2 C  pz              0.0       0.0       0.0       2.4       0.1       0.2
 2 C  px              0.0       0.1       0.0       0.0       0.2       0.0
 2 C  py              0.0       0.0       0.0       0.9       0.3       0.7
 3 C  s               0.0       1.0       0.3      17.2      16.4       0.0
 3 C  pz              0.0       0.4       0.0       1.1       0.3       0.2
 3 C  px              0.0       1.4       0.6       1.7       3.2       0.0
 3 C  py              0.0       0.2       0.0       0.1       0.0       0.8
 4 C  s               0.0      16.7       4.2       1.3       4.7       0.0
 4 C  pz              0.0       3.2      12.7       0.4       0.5       0.0
 4 C  px              0.0       1.6       9.0       5.4       9.8       0.0
 4 C  py              0.0       1.0       1.9       0.3       0.4       0.1
 4 C  dz2             0.0       0.4       0.4       0.0       0.0       0.0
 4 C  dxz             0.0       0.1       0.8       0.0       0.1       0.0
 4 C  dyz             0.0       0.6       0.1       0.0       0.0       0.0
 4 C  dx2y2           0.0       0.1       0.8       0.0       0.0       0.0
 5 O  s               0.0      11.0      43.6       0.5       2.2       0.0
 5 O  pz              0.0       1.2       0.7       0.0       0.1       0.0
 5 O  px              0.0       1.8       3.1       0.2       1.2       0.0
 5 O  py              0.0       0.1       0.1       0.0       0.0       0.0
 5 O  dz2             0.0       0.1       0.1       0.1       0.3       0.0
 5 O  dxz             0.0       0.9       0.1       0.0       0.1       0.0
 5 O  dyz             0.0       0.2       0.1       0.0       0.0       0.0
 5 O  dx2y2           0.0       0.2       0.1       0.2       0.7       0.0
 5 O  dxy             0.0       0.1       0.0       0.0       0.0       0.0
 6 O  s               0.0      44.7      15.8       0.4       0.4       0.0
 6 O  pz              0.0       2.0       0.7       0.4       3.2       0.0
 6 O  px              0.0       0.9       0.2       0.7       2.1       0.0
 6 O  py              0.0       0.3       0.1       0.2       1.0       0.1
 6 O  dz2             0.0       0.3       0.4       0.0       0.3       0.0
 6 O  dxz             0.0       0.0       0.5       0.2       0.3       0.0
 6 O  dyz             0.0       0.4       0.3       0.1       0.2       0.0
 6 O  dx2y2           0.0       0.0       0.0       0.0       0.1       0.0
 6 O  dxy             0.0       0.0       0.1       0.1       0.0       0.1
 7 H  s               0.0       0.0       0.0       1.1       1.9       5.1
 7 H  px              0.0       0.0       0.0       0.1       0.1       0.3
 8 H  s               0.0       0.0       0.0       1.2       1.4       5.9
 8 H  pz              0.0       0.0       0.0       0.1       0.1       0.4
 8 H  py              0.0       0.0       0.0       0.0       0.0       0.1
 9 H  s               0.0       0.0       0.0       1.2       1.5       5.0
 9 H  pz              0.0       0.0       0.0       0.0       0.0       0.2
 9 H  px              0.0       0.0       0.0       0.0       0.1       0.2
10 H  s               0.0       0.0       0.0       3.4       0.7       0.0
10 H  px              0.0       0.0       0.0       0.2       0.0       0.0
11 H  s               0.0       0.0       0.0       1.2       1.4       5.9
11 H  py              0.0       0.0       0.0       0.1       0.1       0.5
12 H  s               0.0       0.0       0.0       1.2       1.5       5.0
12 H  pz              0.0       0.0       0.0       0.0       0.1       0.2
12 H  px              0.0       0.0       0.0       0.0       0.1       0.2
13 H  s               0.0       0.0       0.0       1.1       1.9       5.1
13 H  px              0.0       0.0       0.0       0.1       0.1       0.3
14 H  s               0.0       0.1       0.0       2.3       3.6       0.0
14 H  pz              0.0       0.0       0.0       0.2       0.3       0.0
15 H  s               0.0       0.1       0.0       2.3       3.6       0.0
15 H  py              0.0       0.0       0.0       0.2       0.3       0.0
16 H  s               0.0       6.7       2.3       0.4       1.5       0.0
16 H  pz              0.0       0.2       0.1       0.0       0.0       0.0
16 H  px              0.0       1.2       0.5       0.1       0.2       0.0
16 H  py              0.0       0.1       0.0       0.0       0.0       0.0

                     12        13        14        15        16        17   
                  -0.60734  -0.54329  -0.45935  -0.44813  -0.44350  -0.41944
                   2.00000   2.00000   2.00000   2.00000   2.00000   2.00000
                  --------  --------  --------  --------  --------  --------
 0 C  s               1.6       4.1       0.2       0.4       0.4       0.0
 0 C  pz              0.3       1.0       0.6       0.9       1.3       0.0
 0 C  px              0.0       0.0       5.1       1.3       0.1      10.6
 0 C  py              0.4       6.2       0.4       0.6       6.7       0.1
 0 C  dx2y2           0.0       0.1       0.0       0.0       0.1       0.0
 1 C  s               1.6      12.1       0.2       0.0       1.8       0.2
 1 C  pz              4.0       3.4       1.3       0.5       4.9       0.6
 1 C  px              0.2       1.1       6.4       0.0       2.4      18.1
 1 C  py              0.8       0.9       0.6       1.7       0.8       0.7
 2 C  s               1.6       4.1       0.2       0.4       0.4       0.1
 2 C  pz              0.8       6.4       0.1       1.9       1.4       0.0
 2 C  px              0.0       0.1       4.2       1.0       0.8      10.4
 2 C  py              0.0       0.7       2.0       0.0       5.8       0.2
 2 C  dyz             0.0       0.1       0.0       0.0       0.1       0.0
 3 C  s               5.3       1.4       0.1       0.0       1.3       0.1
 3 C  pz              2.2       1.7       4.8       4.7       4.1       3.8
 3 C  px              2.8       9.6       0.2       0.3       9.5       2.9
 3 C  py              0.8       0.1       0.9      19.9       2.0       0.6
 3 C  dxz             0.1       0.1       0.0       0.0       0.0       0.1
 3 C  dx2y2           0.0       0.0       0.0       0.0       0.3       0.0
 4 C  s               4.6       0.2       1.8       0.0       2.8       0.2
 4 C  pz              4.5       4.2       0.2       3.8       7.0       0.4
 4 C  px              0.9       2.0       3.1       0.2       1.9       2.9
 4 C  py              0.8       1.2       0.1      18.5       1.5       0.1
 4 C  dz2             0.1       0.0       0.0       0.0       0.0       0.1
 4 C  dxz             0.1       0.1       0.4       0.0       0.0       0.1
 5 O  s               0.8       0.3       8.3       0.0       4.5       2.5
 5 O  pz              0.5       0.6       7.9       1.9       0.0       7.2
 5 O  px              0.4       1.0       8.0       0.0      16.6       2.2
 5 O  py              0.1       0.2       1.2       7.9       0.1       1.3
 5 O  dz2             0.0       0.2       0.1       0.2       0.3       0.1
 5 O  dxz             0.6       0.1       0.2       0.2       0.0       0.1
 5 O  dyz             0.0       0.0       0.1       0.2       0.0       0.0
 5 O  dx2y2           0.1       0.2       0.0       0.0       0.4       0.1
 5 O  dxy             0.1       0.1       0.0       1.0       0.0       0.0
 6 O  s               1.0       0.2       3.2       0.0       0.1       3.2
 6 O  pz             22.5       5.9       6.4       3.2       3.5       0.9
 6 O  px             11.6       0.4      19.7       0.2       0.3      11.9
 6 O  py              6.8       1.5       0.5      13.3       1.2       0.0
 6 O  dz2             0.4       0.0       0.1       0.5       0.2       0.1
 6 O  dxz             0.1       0.1       0.1       0.0       0.4       0.0
 6 O  dyz             0.1       0.0       0.0       0.5       0.2       0.0
 6 O  dx2y2           0.2       0.0       0.1       0.2       0.0       0.4
 7 H  s               0.6       2.2       1.5       1.2       0.0       3.0
 7 H  px              0.0       0.1       0.0       0.0       0.0       0.0
 8 H  s               0.3       1.9       0.7       0.0       3.0       0.0
 8 H  pz              0.0       0.1       0.0       0.0       0.1       0.0
 9 H  s               0.7       3.1       0.8       0.1       0.4       1.6
 9 H  px              0.0       0.1       0.0       0.0       0.0       0.0
10 H  s               0.9       7.8       1.4       0.0       0.3       5.2
10 H  pz              0.0       0.1       0.0       0.0       0.1       0.1
10 H  px              0.1       0.3       0.0       0.0       0.0       0.0
11 H  s               0.3       1.9       0.7       0.0       3.0       0.0
12 H  s               0.7       3.1       0.8       0.1       0.4       1.7
12 H  px              0.0       0.1       0.0       0.0       0.0       0.0
13 H  s               0.6       2.2       1.5       1.2       0.0       2.9
13 H  px              0.0       0.1       0.0       0.1       0.0       0.0
14 H  s               2.4       1.2       0.9       5.8       2.5       0.4
14 H  pz              0.1       0.0       0.0       0.2       0.0       0.0
15 H  s               2.4       1.2       0.9       5.3       2.9       0.5
15 H  pz              0.0       0.0       0.0       0.1       0.0       0.0
15 H  px              0.0       0.0       0.0       0.0       0.1       0.0
15 H  py              0.2       0.1       0.0       0.1       0.1       0.0
16 H  s              10.4       1.5       0.8       0.0       0.9       1.0
16 H  pz              0.0       0.0       0.2       0.0       0.0       0.1
16 H  px              0.9       0.1       0.0       0.0       0.1       0.0
16 H  py              0.0       0.0       0.0       0.2       0.0       0.0

                     18        19        20        21        22        23   
                  -0.39643  -0.39496  -0.36433  -0.35294  -0.34185  -0.31014
                   2.00000   2.00000   2.00000   2.00000   2.00000   2.00000
                  --------  --------  --------  --------  --------  --------
 0 C  s               0.1       0.0       0.0       0.0       0.0       0.2
 0 C  pz              7.4      17.9       1.3       0.5      15.5       3.8
 0 C  px              0.0       0.2       1.6      26.1       0.6       6.8
 0 C  py              3.6       3.4       0.2       0.9       0.0       2.5
 0 C  dxz             0.0       0.0       0.0       0.2       0.0       0.1
 0 C  dyz             0.0       0.0       0.0       0.0       0.1       0.1
 0 C  dx2y2           0.1       0.0       0.0       0.0       0.1       0.3
 1 C  pz              1.5       5.7       1.0       0.0       0.2       9.7
 1 C  px              0.1       0.0       0.6       0.0       0.0       8.4
 1 C  py              8.4       0.9       0.3       0.0       0.8       1.2
 1 C  dz2             0.0       0.1       0.1       0.0       0.0       0.0
 1 C  dxz             0.0       0.1       0.0       0.1       0.0       0.3
 1 C  dx2y2           0.0       0.0       0.0       0.0       0.0       0.5
 1 C  dxy             0.0       0.0       0.0       0.2       0.0       0.0
 2 C  s               0.1       0.0       0.0       0.0       0.0       0.2
 2 C  pz             10.9       1.1       0.9       0.6       7.1       7.1
 2 C  px              0.0       1.1       1.3      26.6       1.1       5.9
 2 C  py              1.6      17.5       0.7       0.7       7.9       0.1
 2 C  dxz             0.0       0.0       0.1       0.3       0.0       0.2
 2 C  dx2y2           0.1       0.1       0.0       0.0       0.2       0.2
 3 C  s               0.0       1.0       0.4       0.0       0.0       1.3
 3 C  pz              2.0       5.1       7.4       0.0       2.9      12.4
 3 C  px              0.1       0.2       3.3       0.0       0.1       7.8
 3 C  py              7.4       1.5       2.2       0.0      13.3       1.8
 3 C  dz2             0.0       0.1       0.0       0.0       0.2       0.0
 3 C  dyz             0.0       0.0       0.0       0.0       0.2       0.0
 3 C  dx2y2           0.0       0.2       0.0       0.0       0.1       0.2
 4 C  s               0.0       0.5       0.4       0.0       0.0       0.1
 4 C  pz              1.4       1.8       0.8       0.3       0.0       0.6
 4 C  px              0.1       0.6       9.4       0.0       0.0       0.1
 4 C  py              5.8       0.6       0.0       1.2       0.2       0.1
 4 C  dz2             0.1       0.0       0.1       0.0       0.1       0.2
 4 C  dxz             0.0       0.1       0.7       0.0       0.0       0.1
 4 C  dx2y2           0.1       0.0       0.0       0.0       0.1       0.2
 4 C  dxy             0.1       0.0       0.2       0.0       0.1       0.0
 5 O  s               0.0       0.4       3.5       0.0       0.0       0.1
 5 O  pz              1.1       0.1       4.6       0.6       0.1       1.8
 5 O  px              0.1       4.3      18.2       0.0       0.0       0.3
 5 O  py              4.7       0.3       0.3       2.6       0.2       0.3
 5 O  dz2             0.2       0.1       0.0       0.0       0.1       0.0
 5 O  dxz             0.0       0.0       0.1       0.0       0.0       0.0
 5 O  dyz             0.2       0.0       0.0       0.0       0.1       0.0
 5 O  dx2y2           0.0       0.0       0.1       0.0       0.0       0.0
 5 O  dxy             0.1       0.0       0.0       0.1       0.0       0.0
 6 O  s               0.0       0.4       3.0       0.0       0.0       0.0
 6 O  pz              4.0       2.7       3.1       0.0       2.1       1.3
 6 O  px              0.2       1.6      19.7       0.0       0.1       0.5
 6 O  py             19.2       0.2       0.2       0.2       8.9       0.3
 6 O  dz2             0.1       0.1       0.0       0.1       0.0       0.1
 6 O  dxz             0.0       0.1       1.4       0.1       0.0       0.0
 6 O  dyz             0.1       0.0       0.1       0.1       0.0       0.1
 6 O  dx2y2           0.0       0.1       0.1       0.0       0.0       0.0
 6 O  dxy             0.0       0.0       0.4       0.6       0.1       0.0
 7 H  s               1.4       1.5       0.3       8.6       3.3       7.4
 7 H  pz              0.0       0.0       0.0       0.2       0.0       0.0
 7 H  px              0.1       0.1       0.0       0.0       0.1       0.0
 8 H  s               0.6       9.0       0.3       0.0       6.2       1.1
 8 H  pz              0.0       0.1       0.0       0.0       0.0       0.0
 8 H  px              0.0       0.0       0.0       0.2       0.0       0.1
 9 H  s               3.2       0.6       2.1       9.3       1.6       0.1
 9 H  pz              0.0       0.0       0.0       0.2       0.0       0.1
 9 H  px              0.1       0.1       0.0       0.0       0.1       0.0
10 H  s               0.0       1.6       1.2       0.0       0.0       0.0
10 H  pz              0.0       0.0       0.0       0.0       0.0       0.1
11 H  s               1.1       8.4       0.3       0.0       6.2       1.1
11 H  px              0.0       0.0       0.0       0.2       0.0       0.0
11 H  py              0.0       0.2       0.0       0.0       0.1       0.0
12 H  s               3.3       0.4       1.9       9.4       1.7       0.1
12 H  pz              0.0       0.0       0.0       0.2       0.0       0.1
12 H  px              0.1       0.1       0.0       0.0       0.2       0.0
13 H  s               1.7       1.2       0.2       8.7       3.3       7.3
13 H  pz              0.0       0.0       0.0       0.2       0.0       0.0
13 H  py              0.0       0.1       0.0       0.0       0.0       0.0
14 H  s               3.2       2.3       1.0       0.0       6.9       1.9
14 H  pz              0.1       0.0       0.0       0.0       0.1       0.0
14 H  px              0.0       0.0       0.0       0.0       0.0       0.1
14 H  py              0.0       0.1       0.1       0.0       0.0       0.1
15 H  s               2.7       2.8       1.0       0.0       6.8       1.9
15 H  py              0.0       0.1       0.0       0.0       0.1       0.0
16 H  s               0.0       0.0       2.7       0.0       0.0       0.0
16 H  pz              0.1       0.1       0.2       0.0       0.0       0.0
16 H  py              0.3       0.0       0.0       0.0       0.1       0.0

                     24        25        26        27        28        29   
                  -0.30842  -0.29802  -0.28646  -0.23851  -0.02216   0.04864
                   2.00000   2.00000   2.00000   2.00000   0.00000   0.00000
                  --------  --------  --------  --------  --------  --------
 0 C  s               0.5       0.2       0.2       0.0       0.1       3.3
 0 C  pz              2.1       4.6       0.1       0.1       0.0       0.1
 0 C  px              0.2       3.7       0.9       0.1       0.1       0.5
 0 C  py             18.7       4.0       1.7       0.0       0.0       0.7
 0 C  dz2             0.1       0.0       0.0       0.0       0.0       0.0
 0 C  dxz             0.0       0.1       0.0       0.0       0.0       0.0
 0 C  dyz             0.3       0.2       0.0       0.0       0.0       0.0
 0 C  dx2y2           0.0       0.0       0.0       0.0       0.0       0.1
 0 C  dxy             0.0       0.2       0.0       0.0       0.0       0.0
 1 C  s               0.0       0.1       0.0       0.2       0.0       2.6
 1 C  pz              3.7       9.6       0.5       0.1       0.1       0.5
 1 C  px              0.2       7.2       0.0       2.9       0.0       0.2
 1 C  py             17.5       3.0       2.1       0.0       0.3       0.1
 1 C  dz2             0.3       0.0       0.1       0.0       0.0       0.0
 1 C  dxz             0.0       0.4       0.0       0.1       0.0       0.0
 1 C  dyz             0.3       0.2       0.1       0.0       0.0       0.0
 1 C  dx2y2           0.1       0.2       0.0       0.0       0.0       0.0
 1 C  dxy             0.0       0.2       0.0       0.0       0.0       0.0
 2 C  s               0.4       0.2       0.2       0.0       0.1       3.4
 2 C  pz              5.6       7.5       0.8       0.0       0.0       0.6
 2 C  px              0.3       4.2       0.5       0.1       0.1       0.4
 2 C  py             15.0       0.6       1.5       0.0       0.0       0.2
 2 C  dz2             0.3       0.0       0.0       0.0       0.0       0.1
 2 C  dxz             0.0       0.3       0.0       0.0       0.0       0.0
 2 C  dx2y2           0.1       0.1       0.0       0.0       0.0       0.0
 3 C  s               0.0       0.2       0.0       0.3       0.0       7.8
 3 C  pz              0.3       0.3       0.6       0.5       0.0       0.4
 3 C  px              0.0       1.3       0.0       5.6       0.0       1.6
 3 C  py              1.6       0.1       2.7       0.2       0.1       0.0
 3 C  dz2             0.1       0.1       0.1       0.0       0.6       0.0
 3 C  dxz             0.0       0.1       0.0       0.1       0.2       0.1
 3 C  dyz             0.1       0.0       0.1       0.0       0.5       0.0
 3 C  dx2y2           0.0       0.2       0.0       0.0       0.3       0.3
 3 C  dxy             0.1       0.1       0.0       0.0       0.5       0.0
 4 C  s               0.0       0.6       0.0       0.5       0.0      10.0
 4 C  pz              0.1       0.1       0.6       1.2       7.4       3.6
 4 C  px              0.0       2.3       0.0       0.7       0.3       2.0
 4 C  py              0.4       0.1       2.5       0.3      33.0       1.1
 4 C  dz2             0.1       0.0       0.6       1.8       0.0       0.1
 4 C  dxz             0.0       0.1       0.1       0.4       0.2       0.4
 4 C  dyz             0.1       0.0       0.5       0.6       0.0       0.7
 4 C  dx2y2           0.0       0.0       0.1       0.8       0.0       0.3
 4 C  dxy             0.0       0.0       0.8       0.2       0.9       0.2
 5 O  s               0.0       0.2       0.0       0.0       0.0       0.6
 5 O  pz              0.7       2.7       8.8      40.6       4.2       0.9
 5 O  px              0.0       0.5       0.4      18.9       0.2       1.0
 5 O  py              3.2       0.4      39.4      12.0      18.7       0.3
 5 O  dz2             0.0       0.0       0.0       0.3       0.5       0.1
 5 O  dxz             0.0       0.0       0.0       0.0       0.8       0.1
 5 O  dyz             0.0       0.0       0.0       0.1       0.6       0.1
 5 O  dx2y2           0.0       0.0       0.0       0.2       0.0       1.2
 5 O  dxy             0.1       0.0       0.1       0.0       4.1       0.0
 6 O  s               0.0       0.9       0.0       0.5       0.0       7.7
 6 O  pz              1.5       0.9       5.0       4.7       1.7       0.8
 6 O  px              0.1       4.2       0.2       2.1       0.1       4.0
 6 O  py              6.4       0.1      21.9       0.8       7.6       0.3
 6 O  dz2             0.0       0.0       0.3       0.1       3.1       0.6
 6 O  dxz             0.0       0.1       0.0       0.2       0.3       1.4
 6 O  dyz             0.0       0.0       0.3       0.1       2.6       0.3
 6 O  dx2y2           0.0       0.0       0.1       0.1       1.4       0.2
 6 O  dxy             0.0       0.0       0.0       0.0       0.4       0.4
 7 H  s               0.0       0.5       0.3       0.1       0.1       0.8
 7 H  px              0.0       0.0       0.0       0.0       0.0       0.2
 7 H  py              0.2       0.0       0.0       0.0       0.0       0.1
 8 H  s               7.2       0.9       0.4       0.0       0.0       0.5
 8 H  pz              0.1       0.0       0.0       0.0       0.0       0.3
 9 H  s               0.0       7.8       0.1       0.1       0.1       0.4
 9 H  px              0.0       0.1       0.0       0.0       0.0       0.3
 9 H  py              0.2       0.0       0.0       0.0       0.0       0.0
10 H  s               0.0      16.3       0.0       1.1       0.0       0.3
10 H  px              0.0       0.1       0.0       0.0       0.0       0.2
10 H  py              0.2       0.0       0.0       0.0       0.0       0.0
11 H  s               7.3       0.9       0.4       0.0       0.0       0.5
11 H  pz              0.1       0.0       0.0       0.0       0.0       0.1
11 H  py              0.0       0.0       0.0       0.0       0.0       0.1
12 H  s               0.0       7.7       0.2       0.1       0.1       0.4
12 H  px              0.0       0.1       0.0       0.0       0.0       0.2
12 H  py              0.1       0.0       0.0       0.0       0.0       0.1
13 H  s               0.0       0.5       0.3       0.1       0.1       0.8
13 H  pz              0.1       0.1       0.0       0.0       0.0       0.0
13 H  px              0.0       0.0       0.0       0.0       0.0       0.2
13 H  py              0.1       0.0       0.0       0.0       0.0       0.1
14 H  s               1.4       0.6       1.8       0.0       3.7       1.9
14 H  pz              0.0       0.0       0.0       0.0       0.2       0.4
14 H  px              0.0       0.0       0.0       0.1       0.1       0.1
14 H  py              0.0       0.0       0.0       0.0       0.0       0.2
15 H  s               1.4       0.6       1.7       0.0       3.6       1.9
15 H  py              0.0       0.0       0.0       0.0       0.1       0.7
16 H  s               0.0       0.6       0.0       0.4       0.0      22.2
16 H  pz              0.0       0.0       0.1       0.1       0.1       0.8
16 H  px              0.0       0.0       0.0       0.0       0.0       4.2
16 H  py              0.1       0.0       0.4       0.0       0.3       0.4

                     30        31        32        33        34        35   
                   0.08695   0.12150   0.13162   0.13195   0.13591   0.14872
                   0.00000   0.00000   0.00000   0.00000   0.00000   0.00000
                  --------  --------  --------  --------  --------  --------
 0 C  s               6.7       0.3       8.7      15.0       1.5       0.5
 0 C  pz              0.3       0.1       4.8       0.1       0.2       6.3
 0 C  px              1.2       4.9       1.0       1.8       5.3       1.9
 0 C  py              1.0       4.5       3.6      14.1      10.5       3.7
 0 C  dz2             0.1       0.2       0.1       0.1       0.8       0.2
 0 C  dyz             0.1       0.1       0.1       0.5       0.0       0.7
 0 C  dx2y2           0.2       0.2       0.2       0.0       0.2       1.5
 0 C  dxy             0.0       0.1       0.1       0.0       0.7       0.1
 1 C  s               5.9       6.8       0.2       0.0       9.3       1.6
 1 C  pz              1.7       3.2       2.0       2.1       3.2       2.1
 1 C  px              3.8       4.5       2.7       0.1       4.8       3.6
 1 C  py              0.7       1.0       0.3      10.3       1.0       0.2
 1 C  dz2             0.0       0.0       0.0       0.7       0.1       0.6
 1 C  dxz             0.1       0.4       0.6       0.0       1.3       0.0
 1 C  dyz             0.0       0.1       0.0       0.7       0.1       0.7
 1 C  dx2y2           0.1       0.0       0.1       0.2       0.5       0.0
 1 C  dxy             0.1       0.1       0.1       0.0       0.5       0.0
 2 C  s               6.7       0.4       8.7      14.6       1.7       0.5
 2 C  pz              0.6       2.0       8.3       7.3       5.8       5.9
 2 C  px              1.0       6.5       0.9       0.5       3.5       2.9
 2 C  py              0.9       1.5       0.2       7.1       7.3       3.1
 2 C  dz2             0.2       0.2       0.0       0.4       0.1       0.0
 2 C  dxz             0.1       0.0       0.3       0.0       0.2       0.0
 2 C  dyz             0.1       0.2       0.0       0.0       1.2       0.1
 2 C  dx2y2           0.0       0.1       0.3       0.1       0.0       2.4
 2 C  dxy             0.0       0.1       0.0       0.1       0.2       0.1
 3 C  s               3.8       1.6       9.4       0.0       0.5       1.6
 3 C  pz              3.4       1.9       9.3       0.0       3.4       8.3
 3 C  px              0.5       8.8       0.2       0.0       6.5       6.8
 3 C  py              0.8       0.9       1.9       0.2       0.5       2.5
 3 C  dz2             0.0       0.1       0.0       0.2       0.4       0.0
 3 C  dxz             0.0       0.2       0.0       0.0       1.5       0.5
 3 C  dyz             0.1       0.3       0.0       0.2       0.2       0.1
 3 C  dx2y2           0.7       0.0       0.0       0.0       0.0       0.3
 3 C  dxy             0.0       0.1       0.0       0.3       0.3       0.2
 4 C  s               0.7       8.8       2.1       0.0       0.9       1.9
 4 C  pz              0.6       1.8       2.2       0.1       0.3       0.4
 4 C  px              5.9       2.1       0.4       0.0       0.7       2.0
 4 C  py              0.4       0.3       0.4       0.5       0.1       0.1
 4 C  dxz             0.1       0.4       0.0       0.0       0.0       0.1
 4 C  dyz             0.0       0.3       0.1       0.0       0.3       0.1
 4 C  dx2y2           0.0       0.8       0.1       0.0       0.1       0.0
 5 O  s               0.1       2.3       0.6       0.0       0.1       0.0
 5 O  pz              0.1       0.2       0.4       0.0       0.6       0.1
 5 O  px              0.1       0.5       0.1       0.0       0.0       0.2
 5 O  py              0.0       0.0       0.1       0.0       0.1       0.0
 5 O  dz2             0.0       0.1       0.0       0.0       0.2       0.0
 5 O  dxz             0.5       0.0       0.0       0.0       1.7       0.3
 5 O  dyz             0.2       1.2       0.1       0.0       0.5       0.0
 5 O  dx2y2           0.2       1.3       0.4       0.0       0.0       0.1
 5 O  dxy             0.2       0.1       0.0       0.1       0.4       0.1
 6 O  s               1.0       0.0       0.2       0.0       0.3       0.0
 6 O  pz              1.0       0.9       1.9       0.2       0.4       0.4
 6 O  px              6.4       0.8       0.0       0.0       0.7       0.1
[...]
 2 C  dyz             0.1       0.2       1.6       0.0       0.0       0.0
 2 C  dx2y2           0.7       0.5       0.4       0.0       0.0       0.0
 2 C  dxy             0.1       0.1       0.3       0.0       0.0       0.0
 3 C  s               0.0       0.0       0.5       0.1       0.2       0.0
 3 C  pz              1.8       1.3       0.1       0.1       0.0       0.0
 3 C  px              0.1       0.1       0.6       0.1       0.0       0.0
 3 C  py              8.8       0.3       0.0       0.0       0.0       0.0
 3 C  dz2             8.4       0.5       0.0       0.0       0.0       0.0
 3 C  dxz             0.1       0.2       1.8       0.1       0.1       0.1
 3 C  dyz             8.2       0.0       0.0       0.0       0.0       0.0
 3 C  dx2y2           2.7       2.2       0.0       0.1       0.0       0.0
 3 C  dxy             0.2       0.3       0.4       0.0       0.0       0.0
 4 C  s               0.0       0.9       0.1       1.5       7.5       0.1
 4 C  pz              0.0       0.5       0.1       6.0       0.2       2.7
 4 C  px              0.0       0.0       0.0       0.6       4.3       1.2
 4 C  py              0.2       0.1       0.0       1.2       0.0       0.4
 4 C  dz2             0.3       1.9       0.7       4.9       0.5       1.7
 4 C  dxz             0.0       9.6       2.0       0.2       3.0       0.4
 4 C  dyz             0.3       0.0       0.1       3.5       1.1       0.5
 4 C  dx2y2           0.1       2.0       0.4       0.8       0.9       1.7
 4 C  dxy             0.0       3.1       0.6       0.0       0.3       0.0
 5 O  s               0.0       0.8       0.2       1.0      16.6       2.5
 5 O  pz              0.0       5.3       0.9       0.3       3.9       1.0
 5 O  px              0.0       0.4       0.1       0.7      15.1       2.1
 5 O  py              0.1       1.3       0.2       0.0       0.3       0.1
 5 O  dz2             0.0      10.9       2.3       0.0       1.0       0.0
 5 O  dxz             0.1       2.5       0.5       3.0      13.0       3.8
 5 O  dyz             0.0       3.5       0.5       0.0       0.4       0.1
 5 O  dx2y2           0.0       4.9       1.4       0.2      13.1       0.9
 5 O  dxy             0.7       1.3       0.3       0.6       0.9       0.5
 6 O  s               0.0       0.3       1.4      28.7       1.0       3.6
 6 O  pz              0.0       2.0       0.2      10.3       4.1       5.8
 6 O  px              0.0       6.5       0.6       3.2       1.6      12.0
 6 O  py              0.2       0.2       0.1       1.8       1.2       2.2
 6 O  dz2             0.2       0.1       0.4       6.0       3.3       9.2
 6 O  dxz             0.0      12.8       3.6       1.3       0.5       5.6
 6 O  dyz             0.2       0.0       0.1      13.9       1.5       0.2
 6 O  dx2y2           0.1       0.6       1.2       2.3       0.9      14.6
 6 O  dxy             0.0       2.5       0.5       1.1       0.2       3.6
 7 H  s               1.5       0.0       0.0       0.0       0.0       0.0
 7 H  pz              0.8       0.0       0.0       0.0       0.0       0.0
 7 H  px              2.6       0.0       0.1       0.0       0.0       0.0
 7 H  py              0.0       0.0       0.1       0.0       0.0       0.0
 8 H  pz              0.0       0.1       0.0       0.0       0.0       0.0
 8 H  px              0.2       0.0       0.0       0.0       0.0       0.0
 9 H  s               0.5       0.4       0.9       0.0       0.0       0.0
 9 H  pz              0.9       0.4       0.8       0.0       0.0       0.0
 9 H  px              0.2       0.8       1.8       0.0       0.0       0.0
 9 H  py              0.3       0.1       0.2       0.0       0.0       0.0
10 H  s               0.0       0.9       7.8       0.0       0.0       0.0
10 H  pz              0.0       1.2       6.1       0.0       0.0       0.0
10 H  px              0.0       0.8      11.0       0.0       0.0       0.0
10 H  py              0.0       0.4       2.3       0.0       0.0       0.0
11 H  px              0.2       0.0       0.0       0.0       0.0       0.0
11 H  py              0.1       0.1       0.0       0.0       0.0       0.0
12 H  s               0.5       0.4       0.9       0.0       0.0       0.0
12 H  pz              1.1       0.3       0.7       0.0       0.0       0.0
12 H  px              0.2       0.7       1.7       0.0       0.0       0.0
12 H  py              0.2       0.2       0.4       0.0       0.0       0.0
13 H  s               1.4       0.0       0.0       0.0       0.0       0.0
13 H  pz              0.7       0.0       0.1       0.0       0.0       0.0
13 H  px              2.6       0.0       0.0       0.0       0.0       0.0
14 H  s               6.0       0.4       0.0       0.0       0.0       0.0
14 H  pz             12.7       0.3       0.0       0.0       0.0       0.0
14 H  py              1.4       0.7       0.0       0.0       0.0       0.0
15 H  s               6.1       0.4       0.0       0.0       0.0       0.0
15 H  pz              2.0       0.1       0.0       0.0       0.0       0.0
15 H  py             12.3       1.0       0.0       0.0       0.0       0.0
16 H  s               0.0       0.0       0.1       1.9       1.2      10.7
16 H  pz              0.0       0.9       0.3       0.5       0.2       1.3
16 H  px              0.0       1.3       0.2       3.0       1.2      10.2
16 H  py              0.0       0.1       0.1       0.3       0.1       0.8

                    186       187       188       189       190       191   
                  21.97966  22.00488  22.04898  22.16561  22.28288  43.62178
                   0.00000   0.00000   0.00000   0.00000   0.00000   0.00000
                  --------  --------  --------  --------  --------  --------
 0 C  s              31.7      49.6       2.0       6.6       9.7       0.0
 1 C  s              33.6       0.0       0.0      37.7      28.6       0.0
 2 C  s              31.2      50.1       1.9       6.7       9.6       0.0
 3 C  s               2.9       0.0      94.8       1.9       0.0       0.0
 4 C  s               0.4       0.0       0.9      46.5      51.2       0.1
 5 O  s               0.0       0.0       0.0       0.1       0.2      67.3
 6 O  s               0.0       0.0       0.0       0.0       0.1      32.5

                    192   
                  43.69352
                   0.00000
                  --------
 5 O  s              32.6
 6 O  s              67.3


                      *****************************
                      * MAYER POPULATION ANALYSIS *
                      *****************************

  NA   - Mulliken gross atomic population
  ZA   - Total nuclear charge
  QA   - Mulliken gross atomic charge
  VA   - Mayer's total valence
  BVA  - Mayer's bonded valence
  FA   - Mayer's free valence

  ATOM       NA         ZA         QA         VA         BVA        FA
  0 C      6.5354     6.0000    -0.5354     3.7824     3.7824     0.0000
  1 C      5.9244     6.0000     0.0756     3.4985     3.4985    -0.0000
  2 C      6.5357     6.0000    -0.5357     3.7818     3.7818     0.0000
  3 C      6.3410     6.0000    -0.3410     3.7009     3.7009    -0.0000
  4 C      5.7050     6.0000     0.2950     4.0383     4.0383    -0.0000
  5 O      8.3921     8.0000    -0.3921     1.9689     1.9689     0.0000
  6 O      8.3315     8.0000    -0.3315     1.9435     1.9435    -0.0000
  7 H      0.8551     1.0000     0.1449     0.9638     0.9638    -0.0000
  8 H      0.8549     1.0000     0.1451     0.9644     0.9644    -0.0000
  9 H      0.8254     1.0000     0.1746     0.9608     0.9608     0.0000
 10 H      0.8501     1.0000     0.1499     0.9559     0.9559     0.0000
 11 H      0.8546     1.0000     0.1454     0.9643     0.9643     0.0000
 12 H      0.8255     1.0000     0.1745     0.9607     0.9607     0.0000
 13 H      0.8550     1.0000     0.1450     0.9638     0.9638    -0.0000
 14 H      0.8245     1.0000     0.1755     0.9571     0.9571     0.0000
 15 H      0.8245     1.0000     0.1755     0.9571     0.9571     0.0000
 16 H      0.6652     1.0000     0.3348     0.8956     0.8956     0.0000

  Mayer bond orders larger than 0.100000
B(  0-C ,  1-C ) :   0.8956 B(  0-C ,  7-H ) :   0.9705 B(  0-C ,  8-H ) :   0.9720 
B(  0-C ,  9-H ) :   0.9783 B(  1-C ,  2-C ) :   0.8954 B(  1-C ,  3-C ) :   0.8974 
B(  1-C , 10-H ) :   0.9540 B(  2-C , 11-H ) :   0.9721 B(  2-C , 12-H ) :   0.9781 
B(  2-C , 13-H ) :   0.9704 B(  3-C ,  4-C ) :   0.9998 B(  3-C , 14-H ) :   0.9379 
B(  3-C , 15-H ) :   0.9386 B(  4-C ,  5-O ) :   1.9362 B(  4-C ,  6-O ) :   1.0607 
B(  6-O , 16-H ) :   0.8554 

-------
TIMINGS
-------

Total SCF time: 0 days 0 hours 0 min 22 sec 

Total time                  ....      22.677 sec
Sum of individual times     ....      22.147 sec  ( 97.7%)

SCF preparation             ....       0.182 sec  (  0.8%)
Fock matrix formation       ....      21.008 sec  ( 92.6%)
  Startup                   ....       0.059 sec  (  0.3% of F)
  Split-RI-J                ....       3.730 sec  ( 17.8% of F)
  XC integration            ....      16.590 sec  ( 79.0% of F)
    XC Preparation          ....       0.000 sec  (  0.0% of XC)
    Basis function eval.    ....       2.976 sec  ( 17.9% of XC)
    Density eval.           ....       4.782 sec  ( 28.8% of XC)
    XC-Functional eval.     ....       2.230 sec  ( 13.4% of XC)
    XC-Potential eval.      ....       5.469 sec  ( 33.0% of XC)
Diagonalization             ....       0.000 sec  (  0.0%)
Density matrix formation    ....       0.267 sec  (  1.2%)
Total Energy calculation    ....       0.037 sec  (  0.2%)
Population analysis         ....       0.100 sec  (  0.4%)
Orbital Transformation      ....       0.053 sec  (  0.2%)
Orbital Orthonormalization  ....       0.000 sec  (  0.0%)
DIIS solution               ....       0.418 sec  (  1.8%)
  MO trafo                  ....       0.000 sec  (  0.0 % of DIIS)
  Orb grad                  ....       0.000 sec  (  0.0 % of DIIS)
  Energy W gradient         ....       0.000 sec  (  0.0 % of DIIS)
  DIIS error                ....       0.010 sec  (  2.5 % of DIIS)
  DIIS work                 ....       0.358 sec  ( 85.7 % of DIIS)
  Form Q                    ....       0.000 sec  (  0.0 % of DIIS)
  Form QpQm                 ....       0.000 sec  (  0.0 % of DIIS)
  Exp/Cayley                ....       0.000 sec  (  0.0 % of DIIS)
  Orb update                ....       0.000 sec  (  0.0 % of DIIS)
  Wake-sleep                ....       0.022 sec  (  5.1 % of DIIS)
SOSCF solution              ....       0.082 sec  (  0.4%)
  MO trafo                  ....       0.048 sec  ( 57.7 % of SOSCF)
  Orb grad                  ....       0.001 sec  (  1.5 % of SOSCF)
  Rot update                ....       0.011 sec  ( 13.6 % of SOSCF)
  Step                      ....       0.022 sec  ( 27.1 % of SOSCF)
Finished LeanSCF after  22.8 sec

Maximum memory used throughout the entire LEANSCF-calculation: 20.7 MB


-------------------------------------------------------------------------------
                          DFT DISPERSION CORRECTION                            
                                                                               
                                DFTD4 V3.4.0                                   
-------------------------------------------------------------------------------
The R2SCAN3C composite method is recognized
Using three-body term ABC
Active option DFTDOPT                   ...         5   

-------------------------   ----------------
Dispersion correction           -0.004491449
-------------------------   ----------------

------------------   -----------------
gCP correction             0.009542100
------------------   -----------------

-------------------------   --------------------
FINAL SINGLE POINT ENERGY      -346.944458185138
-------------------------   --------------------


------------------------------------------------------------------------------
                              ORCA PROPERTY CALCULATIONS
------------------------------------------------------------------------------

GBWName                                 ... sp_gas.gbw
Number of atoms                         ...     17
Number of basis functions               ...    193
Max core memory                         ...   1024 MB

Electric properties:
Dipole moment                           ... YES
Quadrupole moment                       ...  NO
Static polarizability (Dipole/Dipole)   ...  NO
Static polarizability (Dipole/Quad.)    ...  NO
Static polarizability (Quad./Quad.)     ...  NO
Static polarizability (Velocity)        ...  NO

Atomic electric properties:
Dipole moment                           ...  NO
Quadrupole moment                       ...  NO
Static polarizability                   ...  NO

Choice of electric origin               ... Center of mass
Position of electric origin             ...     0.000044    -0.000002    -0.000005

General magnetic properties:
Magnetizability                         ...  NO

EPR properties:
g-Tensor (aka g-matrix)                 ...  NO
Zero-Field splitting spin-orbit         ...  NO
Zero-field splitting spin-spin          ...  NO
Hyperfine couplings                     ...  NO (   0 nuclei)
Quadrupole couplings                    ...  NO (   0 nuclei)
Contact density                         ...  NO (   0 nuclei)

NMR properties:
Chemical shifts                         ...  NO (   0 nuclei)
Spin-rotation constants                 ...  NO (   0 nuclei)
Spin-spin couplings                     ...  NO (   0 nuclei,    0 pairs)

Choice of magnetic origin               ... GIAO
Position of magnetic origin             ...     0.000000     0.000000     0.000000

Properties with geometric perturbations:
SCF Hessian                             ...  NO
IR spectrum                             ...  NO
VCD spectrum                            ...  NO
X-ray spectroscopy properties:
SCF XES/XAS/RIXS spectra                ...  NO


-------------
DIPOLE MOMENT
-------------

Method             : SCF
Type of density    : Electron Density
Multiplicity       :   1
Irrep              :   0
Energy             :  -346.9495088362552906 Eh
Relativity type    : 
Basis              : AO
                                X                 Y                 Z
Electronic contribution:     -8.900534285       0.091630587       1.809128050
Nuclear contribution   :      9.526374912       0.078079126      -2.298768038
                        -----------------------------------------
Total Dipole Moment    :      0.625840628       0.169709713      -0.489639987
                        -----------------------------------------
Magnitude (a.u.)       :      0.812542427
Magnitude (Debye)      :      2.065318715



--------------------
Rotational spectrum 
--------------------
 
Rotational constants in cm-1:             0.146322             0.056980             0.056241 
Rotational constants in MHz :          4386.608538          1708.229764          1686.050018 

Dipole components along the rotational axes: 
x,y,z [a.u.] :     0.733213    -0.350082    -0.008102 
x,y,z [Debye]:     1.863680    -0.889839    -0.020595 

 

Dipole moment calculation done in   0.0 sec 

Maximum memory used throughout the entire PROP-calculation: 11.8 MB

--------------------------------
SUGGESTED CITATIONS FOR THIS RUN
--------------------------------

Below you find a list of papers that are relevant to this ORCA run
We neither can nor want to force you to cite these papers, but we appreciate if you do
You receive ORCA, which is the product of decades of hard work by many enthusiastic individuals, for free
The only thing we kindly ask in return is that you cite our papers,
We deeply appreciate it, if you show your appreciation for ORCA by not just citing the generic ORCA reference.

Please note that relegating all ORCA citations to the supporting information does *not* help us.
SI sections are not indexed - citations you put there will not count into any citation statistics
But we need these citations in order to attract the funding resources that allow us to do what we are doing

Therefore, if you are a happy ORCA user, please consider citing a few of the papers listed below in the main body of your paper

In addition to the list printed below, the program has created the file sp_gas.bibtex that contains the list in bibtex format
You can import this file easily into all common literature databanks and citation aid programs


List of essential papers. We consider these as the minimum necessary citations

  1. Neese,F.
     Software update: the ORCA program system, version 5.0
     WIRES Comput. Molec. Sci., 2022 12(1)e1606
     doi.org/10.1002/wcms.1606
  2. Grimme,S.; Hansen,A.; Ehlert,S.; Mewes,J.
     r2SCAN-3c: A 'Swiss army knife' composite electronic-structure method
     J. Chem. Phys., 2021 154 064103
     doi.org/10.1063/5.0040021

List of papers to cite with high priority. The work reported in these papers was absolutely
necessary for this run to complete.
Our perspective: the developers of density functionals and basis sets usually get cited in chemistry papers
Good! But without the algorithms to do something with them, the functionals or basis sets would not do anything.
Hence, in our opinion, the algorithm design and method developments papers are equally worthy of getting cited

  1. Neese,F.
     An improvement of the resolution of the identity approximation for the formation of the Coulomb matrix
     J. Comp. Chem., 2003 24(14)1740-1747
     doi.org/10.1002/jcc.10318
  2. Neese,F.
     The SHARK Integral Generation and Digestion System
     J. Comp. Chem., 2022  1-16
     doi.org/10.1002/jcc.26942
  3. Lehtola,S.; Steigemann,C.; Oliveira,M.; Marques,M.
     Recent developments in Libxc - A comprehensive library of functionals for density functional theory
     Software X, 2018 7 
     doi.org/10.1016/j.softx.2017.11.002
  4. Caldeweyher,E.; Bannwarth,C.; Grimme,S.
     Extension of the D3 dispersion coefficient model
     J. Chem. Phys., 2017 147 034112-XXXX
     doi.org/10.1063/1.4993215
  5. Caldeweyher,E.; Ehlert,S.; Hansen,A.; Neugebauer,H.; Spicher,S.; Bannwarth,C.; Grimme,S.
     A generally applicable atomic-charge dependent London dispersion correction
     J. Chem. Phys., 2019 150 154122-XXXX
     doi.org/10.1063/1.5090222
  6. Caldeweyher,E.; Mewes,J.; Ehlert,S.; Grimme,S.
     Extension and evaluation of the D4 London-dispersion model for periodic systems
     Phys. Chem. Chem. Phys., 2020 22(16)8499-8512
     doi.org/10.1039/D0CP00502A

List of suggested additional citations. These are papers that are important in the 'surrounding' of 
of this run, or papers that preceded the highly important papers. If you like your results we are grateful for a citation.

  1. Neese,F.
     The ORCA program system
     WIRES Comput. Molec. Sci., 2012 2(1)73-78
     doi.org/10.1002/wcms.81
  2. Neese,F.
     Software update: the ORCA program system, version 4.0
     WIRES Comput. Molec. Sci., 2018 8(1)1-6
     doi.org/10.1002/wcms.1327
  3. Neese,F.; Wennmohs,F.; Becker,U.; Riplinger,C.
     The ORCA quantum chemistry program package
     J. Chem. Phys., 2020 152 Art. No. L224108
     doi.org/10.1063/5.0004608

List of optional additional citations

  1. Neese,F.
     Approximate second-order SCF convergence for spin unrestricted wavefunctions
     Chem. Phys. Lett., 2000 325(1-3)93-98
     doi.org/10.1016/s0009-2614(00)00662-x

Timings for individual modules:

Sum of individual times          ...       24.275 sec (=   0.405 min)
Startup calculation              ...        1.100 sec (=   0.018 min)   4.5 %
SCF iterations                   ...       23.075 sec (=   0.385 min)  95.1 %
Property calculations            ...        0.101 sec (=   0.002 min)   0.4 %
                             ****ORCA TERMINATED NORMALLY****
TOTAL RUN TIME: 0 days 0 hours 0 minutes 24 seconds 954 msec
