21
 energy: -312.205125875869 gnorm: 0.001246634806 xtb: 6.7.1 (edcfbbe)
C            1.83455840736269       -1.08969462991626        0.41638512397246
C            1.30203180330345        0.28575072832340        0.81586931208936
C            0.17510184374712        0.87801404074188       -0.03755179859154
H           -0.04912765085551        1.86599967099737        0.39686303377664
C           -1.16872683829417        0.13444501593489       -0.09934400862037
C           -1.16662475607576       -1.17720292515440       -0.89053262395361
C           -1.73307045618707       -0.07935375478074        1.30464565102466
O            0.61121520810139        1.07202628080756       -1.40372355240477
H            2.77822996966187       -1.29126129960741        0.93341477831791
H            2.02927219979145       -1.14807306062610       -0.65957040635191
H            1.14105526803829       -1.89141766796396        0.68010948628247
H            0.97106886105690        0.27102345119510        1.86122071389561
H            2.12603244101569        1.01155190591202        0.77577267078634
H           -1.84245303919024        0.82462823478178       -0.62755044666599
H           -0.67419707646817       -1.07134768507544       -1.86147908637359
H           -0.67410270638505       -1.98486137879584       -0.34331810548567
H           -2.19966780136847       -1.49195830520064       -1.07507668854097
H           -2.75815172195044       -0.46046713305934        1.24769129734468
H           -1.75292068680110        0.85378372151538        1.87911972824679
H           -1.13850394372968       -0.81095527133063        1.86359912884502
H            1.41263389759905        1.61080135980808       -1.37464127716203
21
 energy: -312.205132725929 gnorm: 0.000601776048 xtb: 6.7.1 (edcfbbe)
C            1.83393979621076       -1.08943861054078        0.41856482380448
C            1.30110356813265        0.28621773040103        0.81560424122830
C            0.17504919072193        0.87842230927867       -0.03849897103227
H           -0.04933765211030        1.86691304506535        0.39454421805149
C           -1.16832181283885        0.13449880735492       -0.09976359681152
C           -1.16780855731476       -1.17643343801125       -0.89176460329708
C           -1.73107699861301       -0.08140416214463        1.30453086734601
O            0.61243963267685        1.07180348958889       -1.40537587976576
H            2.77873629072154       -1.28874722336404        0.93474145828729
H            2.02698691430492       -1.15060347856872       -0.65741290041558
H            1.14128436212502       -1.89081390372157        0.68595902128337
H            0.96875772410977        0.27213833938350        1.86059795128409
H            2.12520247504610        1.01192830693488        0.77611223557635
H           -1.84246958777410        0.82519103875106       -0.62650490244961
H           -0.67651234045982       -1.06986048586451       -1.86290041798515
H           -0.67593813679931       -1.98509096297923       -0.34564072628876
H           -2.20131334937695       -1.48968600001186       -1.07583155591556
H           -2.75627498906836       -0.46171727757227        1.24898033742144
H           -1.74870088887560        0.85103836404571        1.87993122978581
H           -1.13553059762640       -0.81384990996325        1.86097371598110
H            1.41343806655137        1.61092583890701       -1.37494439766497
21
 energy: -312.205141396296 gnorm: 0.001218125904 xtb: 6.7.1 (edcfbbe)
C            1.83056124889664       -1.08863265264907        0.42588949458093
C            1.29949067486113        0.28924929664141        0.81625045337531
C            0.17489410974426        0.87823225471610       -0.04065126548666
H           -0.04954780212169        1.86856211231705        0.38753374497877
C           -1.16813095443423        0.13470411337727       -0.10152506648824
C           -1.17033187616011       -1.17346921692263       -0.89763941048373
C           -1.72415177824019       -0.08661070792028        1.30477729616268
O            0.61490574116804        1.06850985181130       -1.40932140045915
H            2.77882186149830       -1.28247166443219        0.93818471073258
H            2.01751409694033       -1.15900931745115       -0.65054766876312
H            1.14035209187707       -1.88864606919277        0.70460173650401
H            0.96407403470160        0.27868584351574        1.86038756206500
H            2.12417775810948        1.01420832155440        0.77694907603712
H           -1.84470915388691        0.82664725151691       -0.62318281507115
H           -0.68256740372929       -1.06486912770868       -1.87002360310826
H           -0.67859516765862       -1.98456597183538       -0.35509824769925
H           -2.20504450977881       -1.48401445299961       -1.07923845477335
H           -2.75003547481513       -0.46456765257525        1.25269232643780
H           -1.73588167914127        0.84267509160381        1.88520215949661
H           -1.12641374895927       -0.82312946022499        1.85313512570611
H            1.41427055147887        1.60994579255225       -1.37647624151332
21
 energy: -312.205146970154 gnorm: 0.001162127165 xtb: 6.7.1 (edcfbbe)
C            1.82792011009202       -1.08886288276582        0.43030043663239
C            1.29864858271309        0.29115256060629        0.81651347565767
C            0.17512845363523        0.87952401484107       -0.04212001384603
H           -0.04935609254453        1.87073578233557        0.38389689704477
C           -1.16747527809861        0.13499665035565       -0.10166102265020
C           -1.17074949670054       -1.17177840836058       -0.90046094882407
C           -1.72113609448309       -0.08992303043023        1.30512614657167
O            0.61625343632955        1.06687198896589       -1.41096376308106
H            2.77749967681819       -1.28230015314225        0.94006763799169
H            2.01120364513730       -1.16340570006197       -0.64654214758891
H            1.13752770638388       -1.88693022718967        0.71391695558543
H            0.96361130874265        0.28419036879652        1.86074502206528
H            2.12415523071606        1.01495900319776        0.77490493379446
H           -1.84560504015005        0.82752309499094       -0.62065872486749
H           -0.68526468478402       -1.06063291591107       -1.87391725275490
H           -0.67642827104577       -1.98356244552966       -0.36103420272007
H           -2.20553321260252       -1.48340506875929       -1.08046558505104
H           -2.74774938669819       -0.46662899820749        1.25450002000443
H           -1.73067824279291        0.83776435603752        1.88826409493018
H           -1.12300648872775       -0.82867807883717        1.85026353646909
H            1.41468642350739        1.60982479382286       -1.37877742802436
21
 energy: -312.205158986563 gnorm: 0.001441280372 xtb: 6.7.1 (edcfbbe)
C            1.81429785186546       -1.09019048833484        0.45004598663656
C            1.29699737370534        0.30025157123470        0.81776470081319
C            0.17625268518519        0.88321117298626       -0.04843073059721
H           -0.04872984983165        1.87781573075056        0.36933134302562
C           -1.16573032231873        0.13598811538221       -0.10275514640758
C           -1.17101140318252       -1.16389707517656       -0.91383153947737
C           -1.70755705915329       -0.10456630633020        1.30646566523473
O            0.62102552019235        1.05927286496215       -1.41708531134734
H            2.76921709210654       -1.28150434620168        0.95006257154581
H            1.98185613271507       -1.18437928395331       -0.62823386383426
H            1.12150000686793       -1.87804176511052        0.75654794001619
H            0.96429732991885        0.31119747628296        1.86279941499679
H            2.12735926654581        1.01774768149795        0.76336259532278
H           -1.85095531829887        0.83085409685027       -0.60972314847334
H           -0.69850696514792       -1.03962098684624       -1.89271985059695
H           -0.66291131077466       -1.97785294715588       -0.38961547594265
H           -2.20596110846871       -1.48135696898663       -1.08409844041146
H           -2.73682276451331       -0.47597669378940        1.26144162680715
H           -1.70782881974153        0.81584219259375        1.90167124276842
H           -1.10774224979957       -0.85290643071628        1.83725905434578
H            1.41460455312987        1.60955206013602       -1.38836722638729
21
 energy: -312.205165765113 gnorm: 0.000899633168 xtb: 6.7.1 (edcfbbe)
C            1.81237621907051       -1.09101542529949        0.45178642222750
C            1.29815456983125        0.30092270014684        0.81741402962699
C            0.17629882940112        0.88370196725440       -0.04778909504073
H           -0.04906703160953        1.87804721846648        0.37046748013457
C           -1.16546596862155        0.13563859856225       -0.10287734532566
C           -1.17008321495764       -1.16330102981593       -0.91514937433872
C           -1.70682327258308       -0.10510026797906        1.30618147887606
O            0.61961940993888        1.05955414080367       -1.41593421990791
H            2.76651151128247       -1.28410646010500        0.95241248690291
H            1.98013985254896       -1.18683557329950       -0.62590995023640
H            1.11794066523128       -1.87673824232139        0.75876170850576
H            0.96763179638346        0.31476482630244        1.86290474266127
H            2.12960401630317        1.01678954415046        0.75947033547874
H           -1.85125637438199        0.82996141175601       -0.60944498982004
H           -0.70099849263625       -1.03687173045129       -1.89511447252351
H           -0.65816342933816       -1.97568129530504       -0.39301854206658
H           -2.20456627320425       -1.48352327840825       -1.08218796843118
H           -2.73569222045879       -0.47716395638472        1.26039596331221
H           -1.70806349915434        0.81485380160534        1.90170248312239
H           -1.10707701942014       -0.85319867483317        1.83684192872064
H            1.41263035466365        1.61074179378287       -1.38902219096076
21
 energy: -312.205172062097 gnorm: 0.001185221124 xtb: 6.7.1 (edcfbbe)
C            1.80454369691554       -1.09351799988122        0.46014049990417
C            1.30047409453092        0.30421116154252        0.81618646751917
C            0.17692252626592        0.88450650744949       -0.04904800154421
H           -0.04971140558088        1.87803839357642        0.37055158347049
C           -1.16471408672892        0.13550385720944       -0.10348149564829
C           -1.16767910321303       -1.16007487654672       -0.92043881390095
C           -1.70265955841492       -0.11011974048507        1.30565933414095
O            0.61825287601578        1.06097856490976       -1.41630455016634
H            2.75745217751712       -1.28904312587870        0.96218649631196
H            1.97131995185855       -1.19892978254637       -0.61655599231948
H            1.10528052912845       -1.87213430807626        0.77381734086864
H            0.97560891358056        0.32894755311519        1.86321794405413
H            2.13538067346014        1.01507212383306        0.74707329880347
H           -1.85258016633600        0.82986387372562       -0.60674425840472
H           -0.71200816470635       -1.02550653392178       -1.90531104432632
H           -0.64309843394997       -1.97001956287169       -0.40799526878095
H           -2.20160799382970       -1.48747483656697       -1.07567499716350
H           -2.73077363901006       -0.48368174665094        1.25992784479536
H           -1.70453734696762        0.80785735997838        1.90377424949089
H           -1.10105122096201       -0.85876335367515        1.83297760545671
H            1.40883527266985        1.61572859856049       -1.39207004537829
21
 energy: -312.205174189809 gnorm: 0.000657645077 xtb: 6.7.1 (edcfbbe)
C            1.80330380367285       -1.09424025115931        0.46288351217207
C            1.30050640183248        0.30469391385541        0.81541077333485
C            0.17664231755298        0.88503015290300       -0.04922403144952
H           -0.04998043946203        1.87877089372720        0.37011504763497
C           -1.16444826731152        0.13546579964137       -0.10430830305236
C           -1.16833268582452       -1.15935982077066       -0.92245080569951
C           -1.70068591822253       -0.11143646824950        1.30543536728457
O            0.61854676831377        1.06162811070019       -1.41689401104900
H            2.75600369862967       -1.28905641976118        0.96614319763281
H            1.97034155644863       -1.20295802452060       -0.61370975807814
H            1.10301275264924       -1.87143597497363        0.77877147910968
H            0.97620345515309        0.33207672729825        1.86264352103783
H            2.13603664386874        1.01466729698588        0.74448306039626
H           -1.85288659117086        0.83034529123374       -0.60626428950576
H           -0.71730829900886       -1.02300448293506       -1.90917536424475
H           -0.64028412622271       -1.96908722299902       -0.41317423338733
H           -2.20241883980889       -1.48827835456841       -1.07368183530142
H           -2.72837893954012       -0.48603555093194        1.26039408927869
H           -1.70291044998330        0.80617401811188        1.90437016188581
H           -1.09765049230189       -0.85982443792812        1.83163193189801
H            1.40833704931322        1.61730754719931       -1.39151220865177
21
 energy: -312.205174189809 gnorm: 0.000657645077 xtb: 6.7.1 (edcfbbe)
C            1.80330380367285       -1.09424025115931        0.46288351217207
C            1.30050640183248        0.30469391385541        0.81541077333485
C            0.17664231755298        0.88503015290300       -0.04922403144952
H           -0.04998043946203        1.87877089372720        0.37011504763497
C           -1.16444826731152        0.13546579964137       -0.10430830305236
C           -1.16833268582452       -1.15935982077066       -0.92245080569951
C           -1.70068591822253       -0.11143646824950        1.30543536728457
O            0.61854676831377        1.06162811070019       -1.41689401104900
H            2.75600369862967       -1.28905641976118        0.96614319763281
H            1.97034155644863       -1.20295802452060       -0.61370975807814
H            1.10301275264924       -1.87143597497363        0.77877147910968
H            0.97620345515309        0.33207672729825        1.86264352103783
H            2.13603664386874        1.01466729698588        0.74448306039626
H           -1.85288659117086        0.83034529123374       -0.60626428950576
H           -0.71730829900886       -1.02300448293506       -1.90917536424475
H           -0.64028412622271       -1.96908722299902       -0.41317423338733
H           -2.20241883980889       -1.48827835456841       -1.07368183530142
H           -2.72837893954012       -0.48603555093194        1.26039408927869
H           -1.70291044998330        0.80617401811188        1.90437016188581
H           -1.09765049230189       -0.85982443792812        1.83163193189801
H            1.40833704931322        1.61730754719931       -1.39151220865177
