
                                 *****************
                                 * O   R   C   A *
                                 *****************

                                            #,                                       
                                            ###                                      
                                            ####                                     
                                            #####                                    
                                            ######                                   
                                           ########,                                 
                                     ,,################,,,,,                         
                               ,,#################################,,                 
                          ,,##########################################,,             
                       ,#########################################, ''#####,          
                    ,#############################################,,   '####,        
                  ,##################################################,,,,####,       
                ,###########''''           ''''###############################       
              ,#####''   ,,,,##########,,,,          '''####'''          '####       
            ,##' ,,,,###########################,,,                        '##       
           ' ,,###''''                  '''############,,,                           
         ,,##''                                '''############,,,,        ,,,,,,###''
      ,#''                                            '''#######################'''  
     '                                                          ''''####''''         
             ,#######,   #######,   ,#######,      ##                                
            ,#'     '#,  ##    ##  ,#'     '#,    #''#        ,####,   ,####,        
            ##       ##  ##   ,#'  ##            #'  '#       #'       #'  '#        
            ##       ##  #######   ##           ,######,      #####,   #    #        
            '#,     ,#'  ##    ##  '#,     ,#' ,#      #,     #,   #   #,  ,#        
             '#######'   ##     ##  '#######'  #'      '#     '####' # '####'        



                #########################################################
                #                        -***-                          #
                #          Department of theory and spectroscopy        #
                #                                                       #
                #                      Frank Neese                      #
                #                                                       #
                #     Directorship, Architecture, Infrastructure        #
                #                    SHARK, DRIVERS                     #
                #        Core code/Algorithms in most modules           #
                #                                                       #
                #        Max Planck Institute fuer Kohlenforschung      #
                #                Kaiser Wilhelm Platz 1                 #
                #                 D-45470 Muelheim/Ruhr                 #
                #                      Germany                          #
                #                                                       #
                #                  All rights reserved                  #
                #                        -***-                          #
                #########################################################


                         Program Version 6.0.0  -   RELEASE  -


 With contributions from (in alphabetic order):
   Daniel Aravena         : Magnetic Suceptibility
   Michael Atanasov       : Ab Initio Ligand Field Theory (pilot matlab implementation)
   Alexander A. Auer      : GIAO ZORA, VPT2 properties, NMR spectrum
   Ute Becker             : All parallelization in ORCA, NUMFREQ, NUMCALC
   Giovanni Bistoni       : ED, misc. LED, open-shell LED, HFLD
   Martin Brehm           : Molecular dynamics
   Dmytro Bykov           : pre 5.0 version of the SCF Hessian
   Marcos Casanova-Páez   : Triplet and SCS-CIS(D). UHF-(DLPNO)-IP/EA/STEOM-CCSD. UHF-CVS-IP/STEOM-CCSD
   Vijay G. Chilkuri      : MRCI spin determinant printing, contributions to CSF-ICE
   Pauline Colinet        : FMM embedding
   Dipayan Datta          : RHF DLPNO-CCSD density
   Achintya Kumar Dutta   : EOM-CC, STEOM-CC
   Nicolas Foglia         : Exact transition moments, OPA infrastructure, MCD improvements
   Dmitry Ganyushin       : Spin-Orbit,Spin-Spin,Magnetic field MRCI
   Miquel Garcia          : C-PCM and meta-GGA Hessian, CCSD/C-PCM, Gaussian charge scheme
   Tiago L. C. Gouveia    : GS-ROHF, GS-ROCIS
   Yang Guo               : DLPNO-NEVPT2, F12-NEVPT2, CIM, IAO-localization
   Andreas Hansen         : Spin unrestricted coupled pair/coupled cluster methods
   Ingolf Harden          : AUTO-CI MPn and infrastructure 
   Benjamin Helmich-Paris : MC-RPA, TRAH-(SCF,CASSCF), AVAS, COSX integrals, SCF dyn. polar.
   Lee Huntington         : MR-EOM, pCC
   Robert Izsak           : Overlap fitted RIJCOSX, COSX-SCS-MP3, EOM
   Riya Kayal             : Wick's Theorem for AUTO-CI, AUTO-CI UHF-CCSDT
   Emily Kempfer          : AUTO-CI, RHF CISDT and CCSDT
   Christian Kollmar      : KDIIS, OOCD, Brueckner-CCSD(T), CCSD density, CASPT2, CASPT2-K, improved NEVPT2
   Axel Koslowski         : Symmetry handling
   Simone Kossmann        : Meta GGA functionals, TD-DFT gradient, OOMP2, (MP2 Hessian; deprecated post 5.0)
   Lucas Lang             : DCDCAS
   Marvin Lechner         : AUTO-CI (C++ implementation), FIC-MRCC
   Spencer Leger          : CASSCF response
   Dagmar Lenk            : GEPOL surface, SMD, ORCA-2-JSON
   Dimitrios Liakos       : Extrapolation schemes; Compound Job, initial MDCI parallelization
   Dimitrios Manganas     : Further ROCIS development; embedding schemes. LFT, Crystal Embedding
   Dimitrios Pantazis     : SARC Basis sets
   Anastasios Papadopoulos: AUTO-CI, single reference methods and gradients
   Taras Petrenko         : pre 6.0 DFT Hessian and TD-DFT gradient, (ASA, deprecated), ECA, 1-Electron XAS/XES, NRVS
   Peter Pinski           : DLPNO-MP2, DLPNO-MP2 Gradient
   Christoph Reimann      : Effective Core Potentials
   Marius Retegan         : Local ZFS, SOC
   Christoph Riplinger    : Optimizer, TS searches, QM/MM, DLPNO-CCSD(T), (RO)-DLPNO pert. Triples
   Michael Roemelt        : Original ROCIS implementation
   Masaaki Saitow         : Open-shell DLPNO-CCSD energy and density
   Barbara Sandhoefer     : DKH picture change effects
   Kantharuban Sivalingam : CASSCF convergence/infrastructure, NEVPT2 and variants, FIC-MRCI
   Bernardo de Souza      : ESD, SOC TD-DFT
   Georgi Stoychev        : AutoAux, RI-MP2 NMR, DLPNO-MP2 response, X2C
   Van Anh Tran           : RI-MP2 g-tensors
   Willem Van den Heuvel  : Paramagnetic NMR
   Zikuan Wang            : NOTCH, Electric field optimization 
   Frank Wennmohs         : Technical directorship and infrastructure
   Hang Xu                : AUTO-CI-Response properties 


 We gratefully acknowledge several colleagues who have allowed us to
 interface, adapt or use parts of their codes:
   Stefan Grimme, W. Hujo, H. Kruse, P. Pracht,  : VdW corrections, initial TS optimization,
                  C. Bannwarth, S. Ehlert,         DFT functionals, gCP, sTDA/sTD-DF
                  L. Wittmann, M. Mueller
   Ed Valeev, F. Pavosevic, A. Kumar             : LibInt (2-el integral package), F12 methods
   Garnet Chan, S. Sharma, J. Yang, R. Olivares  : DMRG
   Ulf Ekstrom                                   : XCFun DFT Library
   Mihaly Kallay                                 : mrcc  (arbitrary order and MRCC methods)
   Frank Weinhold                                : gennbo (NPA and NBO analysis)
   Simon Mueller                                 : openCOSMO-RS
   Christopher J. Cramer and Donald G. Truhlar   : smd solvation model
   Lars Goerigk                                  : TD-DFT with DH, B97 family of functionals
   V. Asgeirsson, H. Jonsson                     : NEB implementation
   FAccTs GmbH                                   : IRC, NEB, NEB-TS, DLPNO-Multilevel, CI-OPT
                                                   MM, QMMM, 2- and 3-layer-ONIOM, Crystal-QMMM,
                                                   LR-CPCM, SF, NACMEs, symmetry and pop. for TD-DFT,
                                                   nearIR, NL-DFT gradient (VV10), updates on ESD,
                                                   ML-optimized integration grids, MBIS, APM,
                                                   GOAT, DOCKER, SOLVATOR, interface openCOSMO-RS
   S Lehtola, MJT Oliveira, MAL Marques          : LibXC Library
   Liviu Ungur et al                             : ANISO software


 Your calculation uses the libint2 library for the computation of 2-el integrals
 For citations please refer to: http://libint.valeyev.net

 Your ORCA version has been built with support for libXC version: 6.2.2
 For citations please refer to: https://libxc.gitlab.io

 This ORCA versions uses:
   CBLAS   interface :  Fast vector & matrix operations
   LAPACKE interface :  Fast linear algebra routines
   SCALAPACK package :  Parallel linear algebra routines
   Shared memory     :  Shared parallel matrices
   BLAS/LAPACK       :  OpenBLAS 0.3.27  USE64BITINT DYNAMIC_ARCH NO_AFFINITY SkylakeX SINGLE_THREADED
        Core in use  :  SkylakeX
   Copyright (c) 2011-2014, The OpenBLAS Project


Your calculation utilizes the geometrical counterpoise correction gCP
Please cite in your paper:
H.Kruse, S. Grimme J.Chem.Phys., 136, (2012), 154101 
   

Your calculation utilizes the atom-pairwise dispersion correction
based on EEQ partial charges (D4)


================================================================================

----- Orbital basis set information -----
Your calculation utilizes the basis: def2-mTZVPP
   Stefan Grimme, Andreas Hansen, Sebastian Ehlert, and Jan-Michael Mewes 
   J. Chem. Phys. 154, 064103 (2021). DOI: 10.1063/5.0040021

----- AuxJ basis set information -----
Your calculation utilizes the auxiliary basis: def2/J
   F. Weigend, Phys. Chem. Chem. Phys. 8, 1057 (2006).

================================================================================
                                        WARNINGS
                       Please study these warnings very carefully!
================================================================================

Using LibXC functional ID 497 : Re-regularized SCAN exchange by Furness et al
[ 1]  J. W. Furness, A. D. Kaplan, J. Ning, J. P. Perdew, and J. Sun.,  J. Phys. Chem. Lett. 11, 8208-8215 (2020)
[ 2]  J. W. Furness, A. D. Kaplan, J. Ning, J. P. Perdew, and J. Sun.,  J. Phys. Chem. Lett. 11, 9248-9248 (2020)
Using LibXC functional ID 498 : Re-regularized SCAN correlation by Furness et al
[ 1]  J. W. Furness, A. D. Kaplan, J. Ning, J. P. Perdew, and J. Sun.,  J. Phys. Chem. Lett. 11, 8208-8215 (2020)
[ 2]  J. W. Furness, A. D. Kaplan, J. Ning, J. P. Perdew, and J. Sun.,  J. Phys. Chem. Lett. 11, 9248-9248 (2020)
Using LibXC functional ID 497 : Re-regularized SCAN exchange by Furness et al
[ 1]  J. W. Furness, A. D. Kaplan, J. Ning, J. P. Perdew, and J. Sun.,  J. Phys. Chem. Lett. 11, 8208-8215 (2020)
[ 2]  J. W. Furness, A. D. Kaplan, J. Ning, J. P. Perdew, and J. Sun.,  J. Phys. Chem. Lett. 11, 9248-9248 (2020)
Using LibXC functional ID 498 : Re-regularized SCAN correlation by Furness et al
[ 1]  J. W. Furness, A. D. Kaplan, J. Ning, J. P. Perdew, and J. Sun.,  J. Phys. Chem. Lett. 11, 8208-8215 (2020)
[ 2]  J. W. Furness, A. D. Kaplan, J. Ning, J. P. Perdew, and J. Sun.,  J. Phys. Chem. Lett. 11, 9248-9248 (2020)

================================================================================
                                       INPUT FILE
================================================================================
NAME = sp_gas.inp
|  1> ! r2scan-3c def2/J RI DEFGRID2 scfconv6 printgap
|  2> %output
|  3>     printlevel normal
|  4> end
|  5> * xyz 0 1
|  6> C -2.5215131576 0.54462682 -0.8132223276
|  7> C -1.8822814266 -0.4985065722 0.0958868633
|  8> C -0.8356281929 0.1183368452 1.0202362127
|  9> O 0.2628012487 0.6634345234 0.2756494024
| 10> C 1.2810243336 -0.1332927257 -0.0270018116
| 11> O 1.3489440878 -1.2961250909 0.3167198185
| 12> C 2.3206340556 0.583606172 -0.8353454423
| 13> H -3.0500737455 1.2879258349 -0.2219490833
| 14> H -1.7602279774 1.050532882 -1.4019713835
| 15> H -3.2277293387 0.0722203665 -1.4901578774
| 16> H -1.4019593501 -1.276390731 -0.5021011001
| 17> H -2.6425312138 -0.9719424356 0.7173889643
| 18> H -1.2479825189 0.9651694446 1.570140473
| 19> H -0.4475832457 -0.634796308 1.7130506161
| 20> H 2.1517174927 1.6538913097 -0.7908935515
| 21> H 2.2505850427 0.2441714079 -1.8664995006
| 22> H 3.3079504723 0.3264129096 -0.4634299558
| 23> *
| 24> 
| 25>                          ****END OF INPUT****
================================================================================

                       ****************************
                       * Single Point Calculation *
                       ****************************

---------------------------------
CARTESIAN COORDINATES (ANGSTROEM)
---------------------------------
  C     -2.521513    0.544627   -0.813222
  C     -1.882281   -0.498507    0.095887
  C     -0.835628    0.118337    1.020236
  O      0.262801    0.663435    0.275649
  C      1.281024   -0.133293   -0.027002
  O      1.348944   -1.296125    0.316720
  C      2.320634    0.583606   -0.835345
  H     -3.050074    1.287926   -0.221949
  H     -1.760228    1.050533   -1.401971
  H     -3.227729    0.072220   -1.490158
  H     -1.401959   -1.276391   -0.502101
  H     -2.642531   -0.971942    0.717389
  H     -1.247983    0.965169    1.570140
  H     -0.447583   -0.634796    1.713051
  H      2.151717    1.653891   -0.790894
  H      2.250585    0.244171   -1.866500
  H      3.307950    0.326413   -0.463430

----------------------------
CARTESIAN COORDINATES (A.U.)
----------------------------
  NO LB      ZA    FRAG     MASS         X           Y           Z
   0 C     6.0000    0    12.011   -4.764969    1.029196   -1.536767
   1 C     6.0000    0    12.011   -3.556996   -0.942041    0.181200
   2 C     6.0000    0    12.011   -1.579108    0.223624    1.927967
   3 O     8.0000    0    15.999    0.496622    1.253710    0.520902
   4 C     6.0000    0    12.011    2.420785   -0.251887   -0.051026
   5 O     8.0000    0    15.999    2.549135   -2.449321    0.598514
   6 C     6.0000    0    12.011    4.385363    1.102856   -1.578574
   7 H     1.0000    0     1.008   -5.763804    2.433827   -0.419423
   8 H     1.0000    0     1.008   -3.326349    1.985219   -2.649342
   9 H     1.0000    0     1.008   -6.099524    0.136477   -2.815990
  10 H     1.0000    0     1.008   -2.649319   -2.412029   -0.948834
  11 H     1.0000    0     1.008   -4.993660   -1.836705    1.355669
  12 H     1.0000    0     1.008   -2.358345    1.823906    2.967135
  13 H     1.0000    0     1.008   -0.845810   -1.199591    3.237197
  14 H     1.0000    0     1.008    4.066157    3.125402   -1.494572
  15 H     1.0000    0     1.008    4.252989    0.461417   -3.527173
  16 H     1.0000    0     1.008    6.251120    0.616831   -0.875756

--------------------------------
INTERNAL COORDINATES (ANGSTROEM)
--------------------------------
 C      0   0   0     0.000000000000     0.00000000     0.00000000
 C      1   0   0     1.524212583867     0.00000000     0.00000000
 C      2   1   0     1.526564938986   111.84870781     0.00000000
 O      3   2   1     1.434603859965   111.35983238   296.37736680
 C      4   3   2     1.327836705856   118.51892960   272.00322177
 O      5   4   3     1.214469745019   123.56507228   358.37453432
 C      5   4   3     1.499383816404   111.57261543   178.46192890
 H      1   2   3     1.086956195096   110.33371850   297.48082031
 H      1   2   3     1.087254119322   110.35099242    57.33965926
 H      1   2   3     1.086347499808   110.28511813   177.41136290
 H      2   1   3     1.092429707604   110.19572339   239.18798450
 H      2   1   3     1.090131238539   110.16875754   120.08452954
 H      3   2   1     1.090667794094   111.08852938    52.83909550
 H      3   2   1     1.094431462018   110.38607052   175.69767170
 H      7   5   4     1.084444121105   109.98584391    14.36069141
 H      7   5   4     1.087842596719   108.49293202   254.39318346
 H      7   5   4     1.085938861082   109.42122549   136.76597038

---------------------------
INTERNAL COORDINATES (A.U.)
---------------------------
 C      0   0   0     0.000000000000     0.00000000     0.00000000
 C      1   0   0     2.880344353385     0.00000000     0.00000000
 C      2   1   0     2.884789660329   111.84870781     0.00000000
 O      3   2   1     2.711008405999   111.35983238   296.37736680
 C      4   3   2     2.509247724635   118.51892960   272.00322177
 O      5   4   3     2.295015216019   123.56507228   358.37453432
 C      5   4   3     2.833424782637   111.57261543   178.46192890
 H      1   2   3     2.054049528300   110.33371850   297.48082031
 H      1   2   3     2.054612523497   110.35099242    57.33965926
 H      1   2   3     2.052899260907   110.28511813   177.41136290
 H      2   1   3     2.064392967932   110.19572339   239.18798450
 H      2   1   3     2.060049490871   110.16875754   120.08452954
 H      3   2   1     2.061063433925   111.08852938    52.83909550
 H      3   2   1     2.068175735561   110.38607052   175.69767170
 H      7   5   4     2.049302396429   109.98584391    14.36069141
 H      7   5   4     2.055724584613   108.49293202   254.39318346
 H      7   5   4     2.052127045627   109.42122549   136.76597038

---------------------
BASIS SET INFORMATION
---------------------
There are 3 groups of distinct atoms

 Group   1 Type C   : 11s6p1d contracted to 5s3p1d pattern {62111/411/1}
 Group   2 Type O   : 11s6p2d contracted to 5s3p2d pattern {62111/411/11}
 Group   3 Type H   : 4s1p contracted to 2s1p pattern {31/1}

Atom   0C    basis set group =>   1
Atom   1C    basis set group =>   1
Atom   2C    basis set group =>   1
Atom   3O    basis set group =>   2
Atom   4C    basis set group =>   1
Atom   5O    basis set group =>   2
Atom   6C    basis set group =>   1
Atom   7H    basis set group =>   3
Atom   8H    basis set group =>   3
Atom   9H    basis set group =>   3
Atom  10H    basis set group =>   3
Atom  11H    basis set group =>   3
Atom  12H    basis set group =>   3
Atom  13H    basis set group =>   3
Atom  14H    basis set group =>   3
Atom  15H    basis set group =>   3
Atom  16H    basis set group =>   3
---------------------------------
AUXILIARY/J BASIS SET INFORMATION
---------------------------------
There are 3 groups of distinct atoms

 Group   1 Type C   : 12s5p4d2f1g contracted to 6s4p3d1f1g pattern {711111/2111/211/2/1}
 Group   2 Type O   : 12s5p4d2f1g contracted to 6s4p3d1f1g pattern {711111/2111/211/2/1}
 Group   3 Type H   : 5s2p1d contracted to 3s1p1d pattern {311/2/1}

Atom   0C    basis set group =>   1
Atom   1C    basis set group =>   1
Atom   2C    basis set group =>   1
Atom   3O    basis set group =>   2
Atom   4C    basis set group =>   1
Atom   5O    basis set group =>   2
Atom   6C    basis set group =>   1
Atom   7H    basis set group =>   3
Atom   8H    basis set group =>   3
Atom   9H    basis set group =>   3
Atom  10H    basis set group =>   3
Atom  11H    basis set group =>   3
Atom  12H    basis set group =>   3
Atom  13H    basis set group =>   3
Atom  14H    basis set group =>   3
Atom  15H    basis set group =>   3
Atom  16H    basis set group =>   3

Checking for AutoStart:
The File: sp_gas.gbw exists
Trying to determine its content:
     ... Fine, the file contains calculation information
     ... Fine, the calculation information was read
     ... Fine, the file contains a basis set
     ... Fine, the basis set was read
     ... Fine, the file contains a geometry
     ... Fine, the geometry was read
     ... Fine, the file contains a set of orbitals
     ... Fine, the orbitals can be read
     => possible old guess file was deleted
     => GBW file was renamed to GES file
     => GES file is set as startup file
     => Guess is set to MORead
     ... now leaving AutoStart

------------------------------------------------------------------------------
                             ORCA STARTUP CALCULATIONS
                           -- RI-GTO INTEGRALS CHOSEN --
------------------------------------------------------------------------------
------------------------------------------------------------------------------
                   ___                                                        
                  /   \      - P O W E R E D   B Y -                         
                 /     \                                                     
                 |  |  |   _    _      __       _____    __    __             
                 |  |  |  | |  | |    /  \     |  _  \  |  |  /  |          
                  \  \/   | |  | |   /    \    | | | |  |  | /  /          
                 / \  \   | |__| |  /  /\  \   | |_| |  |  |/  /          
                |  |  |   |  __  | /  /__\  \  |    /   |      \           
                |  |  |   | |  | | |   __   |  |    \   |  |\   \          
                \     /   | |  | | |  |  |  |  | |\  \  |  | \   \       
                 \___/    |_|  |_| |__|  |__|  |_| \__\ |__|  \__/        
                                                                              
                      - O R C A' S   B I G   F R I E N D -                    
                                      &                                       
                       - I N T E G R A L  F E E D E R -                       
                                                                              
 v1 FN, 2020, v2 2021, v3 2022-2024                                           
------------------------------------------------------------------------------


----------------------
SHARK INTEGRAL PACKAGE
----------------------

Number of atoms                             ...     17
Number of basis functions                   ...    193
Number of shells                            ...     95
Maximum angular momentum                    ...      2
Integral batch strategy                     ... SHARK/LIBINT Hybrid
RI-J (if used) integral strategy            ... SPLIT-RIJ (Revised 2003 algorithm where possible)
Printlevel                                  ...      1
Contraction scheme used                     ... SEGMENTED contraction
Prescreening option                         ... SCHWARTZ
   Thresh                                   ... 1.000e-10
   Tcut                                     ... 1.000e-11
   Tpresel                                  ... 1.000e-11 
Coulomb Range Separation                    ... NOT USED
Exchange Range Separation                   ... NOT USED
Multipole approximations                    ... NOT USED
Finite Nucleus Model                        ... NOT USED
CABS basis                                  ... NOT available
Auxiliary Coulomb fitting basis             ... AVAILABLE
   # of basis functions in Aux-J            ...    453
   # of shells in Aux-J                     ...    155
   Maximum angular momentum in Aux-J        ...      4
Auxiliary J/K fitting basis                 ... NOT available
Auxiliary Correlation fitting basis         ... NOT available
Auxiliary 'external' fitting basis          ... NOT available

Checking pre-screening integrals            ... done (  0.0 sec) Dimension = 95
Check shell pair data                       ... done (  0.0 sec)
Shell pair information
Shell pair cut-off parameter TPreSel        ...   1.0e-11
Total number of shell pairs                 ...      4560
Shell pairs after pre-screening             ...      4111
Total number of primitive shell pairs       ...     16115
Primitive shell pairs kept                  ...     10473
          la=0 lb=0:   1368 shell pairs
          la=1 lb=0:   1533 shell pairs
          la=1 lb=1:    450 shell pairs
          la=2 lb=0:    459 shell pairs
          la=2 lb=1:    258 shell pairs
          la=2 lb=2:     43 shell pairs

Calculating one electron integrals          ... done (  0.0 sec)
Calculating RI/J V-Matrix + Cholesky decomp.... done (  0.1 sec)
Calculating Nuclear repulsion               ... done (  0.0 sec) ENN=    318.346263037357 Eh

Diagonalization of the overlap matrix:
Smallest eigenvalue                        ... 2.941e-04
Time for diagonalization                   ...    0.004 sec
Threshold for overlap eigenvalues          ... 1.000e-07
Number of eigenvalues below threshold      ... 0
Time for construction of square roots      ...    0.017 sec
Total time needed                          ...    0.037 sec

-------------------
DFT GRID GENERATION
-------------------

General Integration Accuracy     IntAcc      ... 4.388
Radial Grid Type                 RadialGrid  ... OptM3 with GC (2021)
Angular Grid (max. ang.)         AngularGrid ... 4 (Lebedev-302)
Angular grid pruning method      GridPruning ... 4 (adaptive)
Weight generation scheme         WeightScheme... mBecke (2022)
Basis function cutoff            BFCut       ... 1.0000e-10
Integration weight cutoff        WCut        ... 1.0000e-14
Partially contracted basis set               ... off
Rotationally invariant grid construction     ... off
Angular grids for H and He will be reduced by one unit
Diffuse basis detected: some atoms will have their outermost
                        angular grid increased by 1.

Total number of grid points                  ...    75138
Total number of batches                      ...     1182
Average number of points per batch           ...       63
Average number of grid points per atom       ...     4420
Initializing property integral containers    ... done (  0.0 sec)

SHARK setup successfully completed in   1.0 seconds

Maximum memory used throughout the entire STARTUP-calculation: 33.7 MB
-------------------------------------------------------------------------------
                                 ORCA GUESS
                   Start orbitals & Density for SCF / CASSCF
-------------------------------------------------------------------------------

------------
SCF SETTINGS
------------
Hamiltonian:
 Density Functional     Method          .... DFT(GTOs)
  Functional kind                       .... Exchange
  Functional name                       .... Re-regularized SCAN exchange by Furness et al
  Functional family                     .... MGGA
  Functional refs                              
    [ 0] J. W. Furness, A. D. Kaplan, J. Ning, J. P. Perdew, and J. Sun.,  J. Phys. Chem. Lett. 11, 8208-8215 (2020), doi: 10.1021/acs.jpclett.0c02405
    [ 1] J. W. Furness, A. D. Kaplan, J. Ning, J. P. Perdew, and J. Sun.,  J. Phys. Chem. Lett. 11, 9248-9248 (2020), doi: 10.1021/acs.jpclett.0c03077
  Functional external parameters        .... 6
    Parameter  0 _c1        =  6.670000e-01 : c1 parameter        
    Parameter  1 _c2        =  8.000000e-01 : c2 parameter        
    Parameter  2 _d         =  1.240000e+00 : d parameter         
    Parameter  3 _k1        =  6.500000e-02 : k1 parameter        
    Parameter  4 _eta       =  1.000000e-03 : eta parameter       
    Parameter  5 _dp2       =  3.610000e-01 : dp2 parameter       
  Functional kind                       .... Correlation
  Functional name                       .... Re-regularized SCAN correlation by Furness et al
  Functional family                     .... MGGA
  Functional refs                              
    [ 0] J. W. Furness, A. D. Kaplan, J. Ning, J. P. Perdew, and J. Sun.,  J. Phys. Chem. Lett. 11, 8208-8215 (2020), doi: 10.1021/acs.jpclett.0c02405
    [ 1] J. W. Furness, A. D. Kaplan, J. Ning, J. P. Perdew, and J. Sun.,  J. Phys. Chem. Lett. 11, 9248-9248 (2020), doi: 10.1021/acs.jpclett.0c03077
  Functional external parameters        .... 1
    Parameter  0 _eta       =  1.000000e-03 : Regularization parameter
 Gradients option       PostSCFGGA      .... off
 RI-approximation to the Coulomb term is turned on
   Number of AuxJ basis functions       .... 453


General Settings:
 Integral files         IntName         .... sp_gas
 Hartree-Fock type      HFTyp           .... RHF
 Total Charge           Charge          ....    0
 Multiplicity           Mult            ....    1
 Number of Electrons    NEL             ....   56
 Basis Dimension        Dim             ....  193
 Nuclear Repulsion      ENuc            ....    318.3462630374 Eh

Convergence Acceleration:
 AO-DIIS                CNVDIIS         .... on
   Start iteration      DIISMaxIt       ....    12
   Startup error        DIISStart       ....  0.200000
   # of expansion vecs  DIISMaxEq       ....     5
   Bias factor          DIISBfac        ....   1.050
   Max. coefficient     DIISMaxC        ....  10.000
 MO-DIIS                CNVKDIIS        .... off
 Trust-Rad. Augm. Hess. CNVTRAH         .... auto
   Auto Start mean grad. ratio tolernc. ....  1.125000
   Auto Start start iteration           ....     1
   Auto Start num. interpolation iter.  ....    10
   Max. Number of Micro iterations      ....    24
   Max. Number of Macro iterations      .... Maxiter - #DIIS iter
   Number of Davidson start vectors     ....     2
   Converg. threshold    (grad. norm)   ....   3.330e-04
   Grad. Scal. Fac. for Micro threshold ....   0.100
   Minimum threshold for Micro iter.    ....   1.000e-02
   NR start threshold (gradient norm)   ....   1.000e-04
   Initial trust radius                 ....   0.400
   Minimum AH scaling param. (alpha)    ....   1.000
   Maximum AH scaling param. (alpha)    .... 1000.000
   Quad. conv. algorithm                .... NR
   White noise on init. David. guess    .... on
   Maximum white noise                  ....   0.010
   Pseudo random numbers                .... off
   Inactive MOs                         .... canonical
   Orbital update algorithm             .... Taylor
   Preconditioner                       .... Diag
   Full preconditioner red. dimension   ....   250
   COSX micro iterations for RIJONX calc.... off
 SOSCF                  CNVSOSCF        .... on
   Start iteration      SOSCFMaxIt      ....   150
   Startup grad/error   SOSCFStart      ....  0.003300
   Hessian update       SOSCFHessUp     .... L-BFGS
 Level Shifting         CNVShift        .... on
   Level shift para.    LevelShift      ....    0.2500
   Turn off err/grad.   ShiftErr        ....    0.0010
 Zerner damping         CNVZerner       .... off
 Static damping         CNVDamp         .... on
   Fraction old density DampFac         ....    0.7000
   Max. Damping (<1)    DampMax         ....    0.9800
   Min. Damping (>=0)   DampMin         ....    0.0000
   Turn off err/grad.   DampErr         ....    0.1000

SCF Procedure:
 Maximum # iterations   MaxIter         ....   125
 SCF integral mode      SCFMode         .... Direct
   Integral package                     .... SHARK and LIBINT hybrid scheme
 Reset frequency        DirectResetFreq ....    20
 Integral Threshold     Thresh          ....  1.000e-10 Eh
 Primitive CutOff       TCut            ....  1.000e-11 Eh

Convergence Tolerance:
 Convergence Check Mode ConvCheckMode   .... Total+1el-Energy
 Convergence forced     ConvForced      .... 0
 Energy Change          TolE            ....  1.000e-06 Eh
 1-El. energy change                    ....  1.000e-03 Eh
 Orbital Gradient       TolG            ....  3.330e-04
 Orbital Rotation angle TolX            ....  3.330e-04
 DIIS Error             TolErr          ....  1.000e-06

---------------------
INITIAL GUESS: MOREAD
---------------------
Guess MOs are being read from file: sp_gas.ges
Input Geometry matches current geometry (good)
Atom 0: N(Shells)= 9 and 6 - projection required
Input basis set needs projection
NBasis(read)= 118
NBasis(calc)= 193
Basis set overlap was calculated
Using GuessMode=FMatrix for the initial guess
C*T matrix was formed
Effective Fockian was calculated
Effective Fockian was diagonalized
Initial density was built
                      ------------------
                      INITIAL GUESS DONE (   0.1 sec)
                      ------------------
             **** ENERGY FILE WAS UPDATED (sp_gas.en.tmp) ****
Finished Guess after   0.3 sec
Maximum memory used throughout the entire GUESS-calculation: 13.0 MB

-------------------------------------------------------------------------------------------
                                      ORCA LEAN-SCF
                              memory conserving SCF solver
-------------------------------------------------------------------------------------------

----------------------------------------D-I-I-S--------------------------------------------
Iteration    Energy (Eh)           Delta-E    RMSDP     MaxDP     DIISErr   Damp  Time(sec)
-------------------------------------------------------------------------------------------
               ***  Starting incremental Fock matrix formation  ***
    1    -346.7675142322080433     0.00e+00  3.54e-03  1.29e-01  6.26e-01  0.700   2.4
    2    -346.8196999564450493    -5.22e-02  2.93e-03  9.67e-02  4.40e-01  0.700   2.2
    3    -346.8565845652685198    -3.69e-02  2.16e-03  6.88e-02  3.09e-01  0.700   2.2
    4    -346.8824792607128416    -2.59e-02  1.55e-03  4.86e-02  2.16e-01  0.700   2.1
                               ***Turning on AO-DIIS***
    5    -346.9006418239439995    -1.82e-02  1.12e-03  3.50e-02  1.51e-01  0.700   2.1
    6    -346.9133725348913799    -1.27e-02  7.98e-04  2.47e-02  1.06e-01  0.700   2.1
    7    -346.9222966300447411    -8.92e-03  5.63e-04  1.74e-02  7.41e-02  0.700   2.1
    8    -346.9285488538914137    -6.25e-03  1.32e-03  4.06e-02  5.19e-02  0.000   2.0
                              *** Initializing SOSCF ***
---------------------------------------S-O-S-C-F--------------------------------------
Iteration    Energy (Eh)           Delta-E    RMSDP     MaxDP     MaxGrad    Time(sec)
--------------------------------------------------------------------------------------
    9    -346.9431558407233638    -1.46e-02  8.24e-06  2.37e-04  8.22e-05     2.3
                  *** Gradient check signals convergence ***

               *****************************************************
               *                     SUCCESS                       *
               *           SCF CONVERGED AFTER   9 CYCLES          *
               *****************************************************

             **** ENERGY FILE WAS UPDATED (sp_gas.en.tmp) ****

----------------
TOTAL SCF ENERGY
----------------

Total Energy       :       -346.94315584072336 Eh           -9440.80323 eV

Components:
Nuclear Repulsion  :        318.34626303735735 Eh            8662.64222 eV
Electronic Energy  :       -665.28941887808071 Eh          -18103.44545 eV
One Electron Energy:      -1101.98826312944061 Eh          -29986.62513 eV
Two Electron Energy:        436.69884425135990 Eh           11883.17968 eV

Virial components:
Potential Energy   :       -692.47563315611501 Eh          -18843.21995 eV
Kinetic Energy     :        345.53247731539159 Eh            9402.41672 eV
Virial Ratio       :          2.00408262209183

DFT components:
N(Alpha)           :       27.999972336045 electrons
N(Beta)            :       27.999972336045 electrons
N(Total)           :       55.999944672090 electrons
E(X)               :      -46.157101389151 Eh       
E(C)               :       -1.788419660331 Eh       
E(XC)              :      -47.945521049482 Eh       

---------------
SCF CONVERGENCE
---------------

  Last Energy change         ...    1.4607e-02  Tolerance :   1.0000e-06
  Last MAX-Density change    ...    2.3746e-04  Tolerance :   1.0000e-05
  Last RMS-Density change    ...    8.2447e-06  Tolerance :   1.0000e-06
  Last DIIS Error            ...    8.2224e-05  Tolerance :   1.0000e-06
  Last Orbital Gradient      ...    8.2224e-05  Tolerance :   3.3300e-04
  Last Orbital Rotation      ...    8.2224e-05  Tolerance :   3.3300e-04


----------------
ORBITAL ENERGIES
----------------

  NO   OCC          E(Eh)            E(eV) 
   0   2.0000     -18.997462      -516.9472 
   1   2.0000     -18.927787      -515.0513 
   2   2.0000     -10.156036      -276.3598 
   3   2.0000     -10.088004      -274.5086 
   4   2.0000     -10.039096      -273.1777 
   5   2.0000     -10.035729      -273.0861 
   6   2.0000     -10.021743      -272.7055 
   7   2.0000      -1.072551       -29.1856 
   8   2.0000      -0.975618       -26.5479 
   9   2.0000      -0.767134       -20.8748 
  10   2.0000      -0.721399       -19.6303 
  11   2.0000      -0.661107       -17.9896 
  12   2.0000      -0.589238       -16.0340 
  13   2.0000      -0.515827       -14.0364 
  14   2.0000      -0.469020       -12.7627 
  15   2.0000      -0.456169       -12.4130 
  16   2.0000      -0.442967       -12.0537 
  17   2.0000      -0.414939       -11.2911 
  18   2.0000      -0.409628       -11.1465 
  19   2.0000      -0.383537       -10.4366 
  20   2.0000      -0.372113       -10.1257 
  21   2.0000      -0.357176        -9.7192 
  22   2.0000      -0.346499        -9.4287 
  23   2.0000      -0.322600        -8.7784 
  24   2.0000      -0.315092        -8.5741 
  25   2.0000      -0.302369        -8.2279 
  26   2.0000      -0.269598        -7.3361 
  27   2.0000      -0.236760        -6.4426 
  28   0.0000      -0.014789        -0.4024 
  29   0.0000       0.073831         2.0091 
  30   0.0000       0.089481         2.4349 
  31   0.0000       0.114001         3.1021 
  32   0.0000       0.120836         3.2881 
  33   0.0000       0.129725         3.5300 
  34   0.0000       0.138421         3.7666 
  35   0.0000       0.152100         4.1389 
  36   0.0000       0.153851         4.1865 
  37   0.0000       0.167641         4.5617 
  38   0.0000       0.175405         4.7730 
*Only the first 10 virtual orbitals were printed.

                    ********************************
                    * MULLIKEN POPULATION ANALYSIS *
                    ********************************

-----------------------
MULLIKEN ATOMIC CHARGES
-----------------------
   0 C :   -0.485597
   1 C :   -0.232528
   2 C :   -0.150669
   3 O :   -0.182339
   4 C :    0.414342
   5 O :   -0.426608
   6 C :   -0.519452
   7 H :    0.140770
   8 H :    0.157529
   9 H :    0.148207
  10 H :    0.160815
  11 H :    0.140648
  12 H :    0.146099
  13 H :    0.170746
  14 H :    0.171090
  15 H :    0.173407
  16 H :    0.173540
Sum of atomic charges:    0.0000000

--------------------------------
MULLIKEN REDUCED ORBITAL CHARGES
--------------------------------
  0 C s       :     3.327811  s :     3.327811
      pz      :     1.044006  p :     3.130963
      px      :     1.075442
      py      :     1.011515
      dz2     :     0.001834  d :     0.026823
      dxz     :     0.007818
      dyz     :     0.007761
      dx2y2   :     0.002406
      dxy     :     0.007004

  1 C s       :     3.191818  s :     3.191818
      pz      :     1.002507  p :     3.004683
      px      :     1.006821
      py      :     0.995355
      dz2     :     0.003103  d :     0.036027
      dxz     :     0.010363
      dyz     :     0.009903
      dx2y2   :     0.004405
      dxy     :     0.008253

  2 C s       :     3.250314  s :     3.250314
      pz      :     0.948368  p :     2.846905
      px      :     0.839070
      py      :     1.059467
      dz2     :     0.006216  d :     0.053450
      dxz     :     0.014480
      dyz     :     0.011965
      dx2y2   :     0.009002
      dxy     :     0.011786

  3 O s       :     3.702214  s :     3.702214
      pz      :     1.595474  p :     4.453582
      px      :     1.230139
      py      :     1.627970
      dz2     :     0.002545  d :     0.026542
      dxz     :     0.002952
      dyz     :     0.009012
      dx2y2   :     0.004269
      dxy     :     0.007764

  4 C s       :     3.113232  s :     3.113232
      pz      :     0.786834  p :     2.347111
      px      :     0.805434
      py      :     0.754844
      dz2     :     0.012626  d :     0.125315
      dxz     :     0.011828
      dyz     :     0.027784
      dx2y2   :     0.027341
      dxy     :     0.045735

  5 O s       :     3.839387  s :     3.839387
      pz      :     1.507385  p :     4.566279
      px      :     1.740279
      py      :     1.318615
      dz2     :     0.004462  d :     0.020943
      dxz     :     0.000582
      dyz     :     0.005523
      dx2y2   :     0.008286
      dxy     :     0.002090

  6 C s       :     3.334142  s :     3.334142
      pz      :     1.067858  p :     3.160765
      px      :     1.036263
      py      :     1.056644
      dz2     :     0.005357  d :     0.024545
      dxz     :     0.004939
      dyz     :     0.003548
      dx2y2   :     0.006184
      dxy     :     0.004518

  7 H s       :     0.840973  s :     0.840973
      pz      :     0.005611  p :     0.018257
      px      :     0.005429
      py      :     0.007217

  8 H s       :     0.824181  s :     0.824181
      pz      :     0.005722  p :     0.018290
      px      :     0.007288
      py      :     0.005281

  9 H s       :     0.833455  s :     0.833455
      pz      :     0.006637  p :     0.018339
      px      :     0.006792
      py      :     0.004910

 10 H s       :     0.821368  s :     0.821368
      pz      :     0.005546  p :     0.017817
      px      :     0.004853
      py      :     0.007418

 11 H s       :     0.841332  s :     0.841332
      pz      :     0.005749  p :     0.018020
      px      :     0.007214
      py      :     0.005057

 12 H s       :     0.836533  s :     0.836533
      pz      :     0.005447  p :     0.017368
      px      :     0.003945
      py      :     0.007977

 13 H s       :     0.811306  s :     0.811306
      pz      :     0.006357  p :     0.017948
      px      :     0.003881
      py      :     0.007711

 14 H s       :     0.810741  s :     0.810741
      pz      :     0.003532  p :     0.018169
      px      :     0.003514
      py      :     0.011123

 15 H s       :     0.807992  s :     0.807992
      pz      :     0.010472  p :     0.018601
      px      :     0.003785
      py      :     0.004344

 16 H s       :     0.808131  s :     0.808131
      pz      :     0.004472  p :     0.018328
      px      :     0.010011
      py      :     0.003845


------------------------
MULLIKEN OVERLAP CHARGES
------------------------
B(  0-C ,  1-C ) :   0.4482 B(  0-C ,  2-C ) :  -0.2236 B(  0-C ,  7-H ) :   0.8284 
B(  0-C ,  8-H ) :   0.8693 B(  0-C ,  9-H ) :   0.7973 B(  0-C , 10-H ) :  -0.0684 
B(  1-C ,  2-C ) :   0.5699 B(  1-C ,  3-O ) :  -0.1532 B(  1-C ,  7-H ) :  -0.0689 
B(  1-C ,  8-H ) :  -0.1032 B(  1-C ,  9-H ) :  -0.0773 B(  1-C , 10-H ) :   0.8604 
B(  1-C , 11-H ) :   0.7890 B(  1-C , 12-H ) :  -0.0674 B(  1-C , 13-H ) :  -0.0840 
B(  2-C ,  3-O ) :   0.3005 B(  2-C ,  4-C ) :  -0.2092 B(  2-C , 10-H ) :  -0.0912 
B(  2-C , 11-H ) :  -0.0750 B(  2-C , 12-H ) :   0.7976 B(  2-C , 13-H ) :   0.8275 
B(  3-O ,  4-C ) :   0.3792 B(  3-O ,  5-O ) :  -0.2343 B(  3-O ,  6-C ) :  -0.0901 
B(  3-O , 12-H ) :  -0.1005 B(  3-O , 13-H ) :  -0.0542 B(  4-C ,  5-O ) :   1.0047 
B(  4-C ,  6-C ) :   0.5303 B(  4-C , 14-H ) :  -0.1241 B(  4-C , 16-H ) :  -0.0677 
B(  5-O ,  6-C ) :  -0.1140 B(  6-C , 14-H ) :   0.8535 B(  6-C , 15-H ) :   0.7651 
B(  6-C , 16-H ) :   0.8285 


                     *******************************
                     * LOEWDIN POPULATION ANALYSIS *
                     *******************************

----------------------
LOEWDIN ATOMIC CHARGES
----------------------
   0 C :   -0.420100
   1 C :   -0.286406
   2 C :    0.032591
   3 O :   -0.602124
   4 C :    0.354348
   5 O :   -0.436518
   6 C :   -0.335562
   7 H :    0.150645
   8 H :    0.157195
   9 H :    0.151895
  10 H :    0.167093
  11 H :    0.160126
  12 H :    0.180626
  13 H :    0.192889
  14 H :    0.174259
  15 H :    0.180768
  16 H :    0.178277

-------------------------------
LOEWDIN REDUCED ORBITAL CHARGES
-------------------------------
  0 C s       :     2.972271  s :     2.972271
      pz      :     1.129614  p :     3.384841
      px      :     1.137181
      py      :     1.118046
      dz2     :     0.003230  d :     0.062989
      dxz     :     0.019090
      dyz     :     0.018939
      dx2y2   :     0.004833
      dxy     :     0.016897

  1 C s       :     2.938375  s :     2.938375
      pz      :     1.098432  p :     3.270460
      px      :     1.075279
      py      :     1.096748
      dz2     :     0.005243  d :     0.077572
      dxz     :     0.023691
      dyz     :     0.022511
      dx2y2   :     0.008245
      dxy     :     0.017882

  2 C s       :     2.865813  s :     2.865813
      pz      :     1.000925  p :     2.981228
      px      :     0.915455
      py      :     1.064849
      dz2     :     0.011033  d :     0.120368
      dxz     :     0.033237
      dyz     :     0.029460
      dx2y2   :     0.018968
      dxy     :     0.027670

  3 O s       :     3.463022  s :     3.463022
      pz      :     1.626521  p :     4.659599
      px      :     1.389663
      py      :     1.643416
      dz2     :     0.065538  d :     0.479502
      dxz     :     0.117354
      dyz     :     0.066906
      dx2y2   :     0.110628
      dxy     :     0.119076

  4 C s       :     2.737357  s :     2.737357
      pz      :     0.792931  p :     2.635870
      px      :     0.876924
      py      :     0.966014
      dz2     :     0.026707  d :     0.272426
      dxz     :     0.023940
      dyz     :     0.057386
      dx2y2   :     0.061879
      dxy     :     0.102514

  5 O s       :     3.551336  s :     3.551336
      pz      :     1.506503  p :     4.670313
      px      :     1.688323
      py      :     1.475487
      dz2     :     0.026282  d :     0.214868
      dxz     :     0.016484
      dyz     :     0.054619
      dx2y2   :     0.057416
      dxy     :     0.060067

  6 C s       :     2.957112  s :     2.957112
      pz      :     1.115339  p :     3.321645
      px      :     1.090414
      py      :     1.115892
      dz2     :     0.013571  d :     0.056805
      dxz     :     0.010188
      dyz     :     0.007377
      dx2y2   :     0.016471
      dxy     :     0.009199

  7 H s       :     0.805981  s :     0.805981
      pz      :     0.013508  p :     0.043375
      px      :     0.012617
      py      :     0.017250

  8 H s       :     0.798840  s :     0.798840
      pz      :     0.013632  p :     0.043965
      px      :     0.018053
      py      :     0.012280

  9 H s       :     0.804478  s :     0.804478
      pz      :     0.015765  p :     0.043627
      px      :     0.016223
      py      :     0.011638

 10 H s       :     0.789418  s :     0.789418
      pz      :     0.013798  p :     0.043489
      px      :     0.011686
      py      :     0.018005

 11 H s       :     0.796257  s :     0.796257
      pz      :     0.014062  p :     0.043617
      px      :     0.017559
      py      :     0.011996

 12 H s       :     0.779359  s :     0.779359
      pz      :     0.011793  p :     0.040015
      px      :     0.008136
      py      :     0.020085

 13 H s       :     0.763670  s :     0.763670
      pz      :     0.014701  p :     0.043441
      px      :     0.010347
      py      :     0.018394

 14 H s       :     0.781423  s :     0.781423
      pz      :     0.008038  p :     0.044318
      px      :     0.007971
      py      :     0.028309

 15 H s       :     0.774719  s :     0.774719
      pz      :     0.025892  p :     0.044514
      px      :     0.008562
      py      :     0.010060

 16 H s       :     0.777710  s :     0.777710
      pz      :     0.010601  p :     0.044013
      px      :     0.024647
      py      :     0.008765


---------------------------------
LOEWDIN BOND ORDERS (THRESH 0.050000)
---------------------------------
B(  0-C ,  1-C ) :   1.1415 B(  0-C ,  2-C ) :   0.0672 B(  0-C ,  7-H ) :   0.9295 
B(  0-C ,  8-H ) :   0.9233 B(  0-C ,  9-H ) :   0.9296 B(  1-C ,  2-C ) :   1.0456 
B(  1-C ,  3-O ) :   0.1510 B(  1-C , 10-H ) :   0.8851 B(  1-C , 11-H ) :   0.8852 
B(  2-C ,  3-O ) :   1.3082 B(  2-C ,  4-C ) :   0.0823 B(  2-C ,  5-O ) :   0.0667 
B(  2-C , 12-H ) :   0.8271 B(  2-C , 13-H ) :   0.8123 B(  3-O ,  4-C ) :   1.4504 
B(  3-O ,  5-O ) :   0.4616 B(  3-O ,  6-C ) :   0.1861 B(  3-O , 12-H ) :   0.0959 
B(  3-O , 13-H ) :   0.0922 B(  4-C ,  5-O ) :   2.1758 B(  4-C ,  6-C ) :   0.9734 
B(  5-O ,  6-C ) :   0.1859 B(  6-C , 14-H ) :   0.9025 B(  6-C , 15-H ) :   0.8981 
B(  6-C , 16-H ) :   0.9038 

------------------------------------------
LOEWDIN REDUCED ORBITAL POPULATIONS PER MO
-------------------------------------------
THRESHOLD FOR PRINTING IS 0.1%%
                      0         1         2         3         4         5   
                 -18.99746 -18.92779 -10.15604 -10.08800 -10.03910 -10.03573
                   2.00000   2.00000   2.00000   2.00000   2.00000   2.00000
                  --------  --------  --------  --------  --------  --------
 1 C  s               0.0       0.0       0.0       0.0       0.0      99.7
 2 C  s               0.0       0.0       0.0      99.4       0.0       0.0
 3 O  s              99.9       0.0       0.0       0.0       0.0       0.0
 3 O  dxz             0.0       0.0       0.0       0.1       0.0       0.0
 3 O  dxy             0.0       0.0       0.2       0.1       0.0       0.0
 4 C  s               0.0       0.0      98.9       0.0       0.0       0.0
 5 O  s               0.0      99.9       0.0       0.0       0.0       0.0
 5 O  py              0.0       0.0       0.2       0.0       0.0       0.0
 5 O  dx2y2           0.0       0.0       0.2       0.0       0.0       0.0
 6 C  s               0.0       0.0       0.0       0.0      99.7       0.0

                      6         7         8         9        10        11   
                 -10.02174  -1.07255  -0.97562  -0.76713  -0.72140  -0.66111
                   2.00000   2.00000   2.00000   2.00000   2.00000   2.00000
                  --------  --------  --------  --------  --------  --------
 0 C  s              99.7       0.0       0.0      11.0       8.8      16.3
 0 C  pz              0.0       0.0       0.0       1.2       0.2       0.2
 0 C  px              0.0       0.1       0.0       0.6       0.1       0.2
 0 C  py              0.0       0.0       0.0       0.9       0.3       0.0
 1 C  s               0.0       0.3       0.2      21.9       7.3       0.2
 1 C  pz              0.0       0.1       0.0       0.1       0.5       5.5
 1 C  px              0.0       0.6       0.1       0.1       0.5       3.9
 1 C  py              0.0       0.1       0.1       1.2       0.3       0.3
 1 C  dyz             0.0       0.0       0.0       0.0       0.0       0.1
 1 C  dxy             0.0       0.0       0.0       0.0       0.0       0.1
 2 C  s               0.0       4.5       1.8      14.8       0.2      13.6
 2 C  pz              0.0       1.5       0.5       0.8       0.3       1.0
 2 C  px              0.0       3.7       0.7       2.3       2.2       0.0
 2 C  py              0.0       0.3       0.5       0.2       0.6       0.0
 2 C  dxz             0.0       0.2       0.1       0.0       0.1       0.0
 2 C  dxy             0.0       0.1       0.1       0.0       0.0       0.0
 3 O  s               0.0      42.5      15.4       0.5       1.0       0.7
 3 O  pz              0.0       0.0       0.1       1.9       1.4       2.9
 3 O  px              0.0       0.4       0.7       8.7       2.8       7.9
 3 O  py              0.0       2.4       0.4       0.1       0.0       0.2
 3 O  dz2             0.0       0.2       0.2       0.0       0.1       0.0
 3 O  dxz             0.0       0.2       0.0       0.0       0.3       1.4
 3 O  dyz             0.0       0.0       0.0       0.1       0.1       0.2
 3 O  dx2y2           0.0       0.0       0.3       0.0       0.8       0.3
 3 O  dxy             0.0       0.3       1.0       0.8       0.0       0.4
 4 C  s               0.0      16.2       4.4       2.3       4.2       0.5
 4 C  pz              0.0       1.1       0.3       0.6       3.7       0.7
 4 C  px              0.0       3.9       3.0       0.7       4.3       3.7
 4 C  py              0.0       0.0      19.7       3.8       4.3       0.4
 4 C  dz2             0.0       0.4       0.1       0.0       0.0       0.0
 4 C  dxz             0.0       0.1       0.0       0.0       0.1       0.0
 4 C  dyz             0.0       0.0       0.5       0.0       0.0       0.0
 4 C  dx2y2           0.0       0.1       1.2       0.0       0.0       0.0
 4 C  dxy             0.0       0.5       0.1       0.0       0.1       0.3
 5 O  s               0.0      11.4      43.0       0.9       1.5       0.0
 5 O  pz              0.0       0.1       0.4       0.0       0.2       0.0
 5 O  px              0.0       0.1       0.0       0.0       0.2       0.1
 5 O  py              0.0       2.8       3.4       0.2       0.5       0.0
 5 O  dz2             0.0       0.4       0.0       0.0       0.0       0.0
 5 O  dxz             0.0       0.0       0.0       0.0       0.0       0.1
 5 O  dyz             0.0       0.1       0.1       0.1       0.4       0.0
 5 O  dx2y2           0.0       0.6       0.1       0.3       0.2       0.1
 5 O  dxy             0.0       0.4       0.2       0.0       0.3       0.1
 6 C  s               0.0       1.1       0.3       4.2      27.1       9.6
 6 C  pz              0.0       0.6       0.1       0.1       0.1       0.2
 6 C  px              0.0       1.1       0.0       0.4       0.3       0.5
 6 C  py              0.0       0.3       0.5       0.0       0.1       0.0
 7 H  s               0.0       0.0       0.0       1.5       1.5       3.6
 7 H  py              0.0       0.0       0.0       0.1       0.1       0.1
 8 H  s               0.0       0.0       0.0       1.5       1.4       3.5
 8 H  px              0.0       0.0       0.0       0.1       0.1       0.2
 9 H  s               0.0       0.0       0.0       1.5       1.5       4.1
 9 H  pz              0.0       0.0       0.0       0.1       0.1       0.1
 9 H  px              0.0       0.0       0.0       0.1       0.1       0.1
10 H  s               0.0       0.0       0.0       2.9       1.2       0.0
10 H  py              0.0       0.0       0.0       0.1       0.1       0.0
11 H  s               0.0       0.0       0.0       3.1       1.3       0.0
11 H  px              0.0       0.0       0.0       0.1       0.0       0.0
12 H  s               0.0       0.3       0.2       2.5       0.0       3.9
12 H  py              0.0       0.0       0.0       0.1       0.0       0.2
13 H  s               0.0       0.3       0.1       2.0       0.0       3.4
13 H  pz              0.0       0.0       0.0       0.1       0.0       0.1
13 H  py              0.0       0.0       0.0       0.1       0.0       0.2
14 H  s               0.0       0.1       0.0       0.8       5.2       1.9
14 H  py              0.0       0.0       0.0       0.1       0.5       0.2
15 H  s               0.0       0.1       0.0       0.6       5.2       2.6
15 H  pz              0.0       0.0       0.0       0.1       0.4       0.2
16 H  s               0.0       0.1       0.0       0.6       4.9       2.7
16 H  px              0.0       0.0       0.0       0.0       0.4       0.2

                     12        13        14        15        16        17   
                  -0.58924  -0.51583  -0.46902  -0.45617  -0.44297  -0.41494
                   2.00000   2.00000   2.00000   2.00000   2.00000   2.00000
                  --------  --------  --------  --------  --------  --------
 0 C  s               9.9       1.4       0.3       0.0       0.0       0.0
 0 C  pz              1.7       0.2       2.5       0.8       0.6       7.6
 0 C  px              0.5       1.1       0.4       2.5       0.5      10.3
 0 C  py              3.5       2.8       0.0       1.0       2.8       0.0
 1 C  s              11.8       3.2       0.1       0.4       0.3       0.0
 1 C  pz              1.9       3.3       0.9       0.9       2.2       5.3
 1 C  px              0.2       0.0       0.8       9.0       1.0      14.3
 1 C  py              5.6       2.3       2.4       1.2       3.3       0.1
 2 C  s               0.1       6.4       0.0       0.3       0.2       0.2
 2 C  pz              0.1      16.2       0.2       5.3       0.0       0.2
 2 C  px              4.2       1.0       6.5       0.0       6.0       0.4
 2 C  py              7.4       1.0      11.9       1.1       0.1       1.2
 2 C  dz2             0.0       0.0       0.0       0.1       0.0       0.0
 2 C  dxz             0.2       0.1       0.0       0.0       0.0       0.1
 2 C  dyz             0.1       0.0       0.0       0.0       0.0       0.0
 2 C  dxy             0.0       0.4       0.0       0.0       0.1       0.0
 3 O  s               0.8       3.9       1.3       1.3       0.0       0.1
 3 O  pz              3.3       0.6       1.7       5.5      14.4       0.1
 3 O  px             10.1      11.1       0.3       5.9       0.7       0.3
 3 O  py              1.9       2.8      15.5       9.3       0.2       1.8
 3 O  dz2             0.1       0.0       0.0       0.1       0.0       0.1
 3 O  dxz             0.0       1.0       0.3       0.0       0.2       0.0
 3 O  dyz             0.0       0.2       0.6       0.3       0.0       0.1
 3 O  dx2y2           0.0       0.2       1.4       0.0       0.0       0.5
 3 O  dxy             0.1       0.1       0.4       0.0       0.3       0.4
 4 C  s               1.6       3.2       1.1       1.8       1.5       0.1
 4 C  pz              0.0       0.6       2.9       8.5       3.0       0.8
 4 C  px              1.7       0.1       6.6       0.5       7.4       3.0
 4 C  py              1.2       1.4       0.4       2.0       0.8       2.9
 4 C  dx2y2           0.0       0.0       0.1       0.2       0.1       0.0
 5 O  s               0.5       1.9       0.0       5.1       7.1       1.5
 5 O  pz              0.0       0.0       2.1       7.2       0.0       2.2
 5 O  px              0.3       0.1       5.1       0.6       2.3       1.6
 5 O  py              0.4       2.6       0.1       6.1      17.9       3.4
 5 O  dz2             0.0       0.1       0.0       0.0       0.2       0.1
 5 O  dyz             0.0       0.0       0.3       0.8       0.0       0.1
 5 O  dx2y2           0.1       0.2       0.2       0.0       0.2       0.0
 5 O  dxy             0.1       0.0       0.7       0.1       0.3       0.2
 6 C  s               1.9       0.9       1.6       0.2       0.1       0.0
 6 C  pz              0.4       1.7       3.9       1.2       7.2      11.8
 6 C  px              1.1       1.8       5.9       2.0       1.8       0.5
 6 C  py              0.0       0.2       3.5       6.4       5.5       1.9
 6 C  dxz             0.0       0.1       0.1       0.0       0.0       0.0
 6 C  dyz             0.0       0.0       0.1       0.0       0.1       0.1
 6 C  dxy             0.0       0.0       0.1       0.1       0.0       0.0
 7 H  s               3.9       1.8       0.0       0.1       0.5       3.0
 7 H  pz              0.1       0.0       0.0       0.0       0.0       0.0
 7 H  py              0.1       0.0       0.0       0.0       0.0       0.1
 8 H  s               4.1       0.5       0.2       1.4       0.3       5.4
 8 H  px              0.2       0.0       0.0       0.0       0.0       0.0
 9 H  s               3.4       0.6       1.1       0.2       0.8       0.0
10 H  s               4.7       3.6       0.8       0.0       1.3       3.1
10 H  pz              0.2       0.0       0.0       0.0       0.0       0.0
10 H  py              0.1       0.1       0.0       0.0       0.0       0.1
11 H  s               5.5       0.8       0.2       4.3       0.4       5.9
11 H  pz              0.1       0.1       0.0       0.1       0.1       0.1
11 H  px              0.3       0.0       0.0       0.0       0.0       0.0
11 H  py              0.0       0.0       0.0       0.0       0.0       0.1
12 H  s               0.5       5.6       3.7       0.8       0.7       0.1
12 H  pz              0.0       0.0       0.1       0.0       0.0       0.0
12 H  py              0.0       0.3       0.1       0.0       0.0       0.0
13 H  s               0.1       8.6       4.1       0.1       0.0       0.6
13 H  pz              0.0       0.1       0.2       0.0       0.0       0.0
13 H  px              0.0       0.1       0.0       0.0       0.0       0.0
13 H  py              0.0       0.3       0.0       0.0       0.0       0.0
14 H  s               0.5       0.4       2.1       2.8       2.9       0.9
15 H  s               0.9       1.1       2.1       0.7       1.7       6.2
15 H  pz              0.0       0.0       0.0       0.0       0.0       0.1
16 H  s               1.1       0.9       1.8       0.7       1.8       0.0
16 H  px              0.1       0.0       0.0       0.0       0.1       0.0

                     18        19        20        21        22        23   
                  -0.40963  -0.38354  -0.37211  -0.35718  -0.34650  -0.32260
                   2.00000   2.00000   2.00000   2.00000   2.00000   2.00000
                  --------  --------  --------  --------  --------  --------
 0 C  s               0.1       0.0       0.0       0.0       0.3       0.0
 0 C  pz              8.4       0.6       0.6       6.4       7.9       9.0
 0 C  px              3.3       3.1       9.2       4.9       1.1       1.3
 0 C  py              4.0       5.6       1.6       6.2      15.1       4.8
 0 C  dxz             0.0       0.0       0.0       0.1       0.3       0.2
 0 C  dyz             0.0       0.1       0.1       0.0       0.0       0.0
 0 C  dxy             0.1       0.0       0.0       0.1       0.1       0.2
 1 C  s               0.2       0.1       0.1       0.3       0.2       0.1
 1 C  pz              1.3       5.6       2.8       0.2       7.4       8.1
 1 C  px              0.5       0.2       0.1       0.0       0.3       0.7
 1 C  py              9.8       0.2       0.8       0.1      10.9       4.1
 1 C  dxz             0.0       0.0       0.0       0.0       0.2       0.2
 1 C  dx2y2           0.0       0.0       0.1       0.0       0.0       0.1
 1 C  dxy             0.0       0.0       0.0       0.0       0.1       0.2
 2 C  s               0.2       0.0       0.1       0.3       0.3       0.4
 2 C  pz              5.7       1.1       3.0       0.3       0.7       6.1
 2 C  px              3.2       0.2       2.0       2.7       1.1       3.8
 2 C  py              0.4       8.8       3.4       1.2       0.6       1.7
 2 C  dyz             0.0       0.1       0.1       0.0       0.0       0.0
 2 C  dxy             0.0       0.1       0.1       0.1       0.1       0.1
 3 O  s               0.3       0.6       0.1       0.0       2.0       0.1
 3 O  pz              0.0       1.5       0.2      13.3       1.1       0.6
 3 O  px              0.1       0.2       7.0       1.1       0.1       0.1
 3 O  py              2.8       0.1       0.1       0.3      13.5       0.0
 3 O  dz2             0.7       0.0       0.1       0.0       0.0       0.4
 3 O  dxz             0.7       0.2       0.2       0.2       0.3       0.3
 3 O  dyz             0.0       0.1       0.1       0.3       0.0       0.3
 3 O  dx2y2           0.2       0.1       0.0       0.1       0.5       0.3
 3 O  dxy             0.0       0.2       0.4       0.0       0.1       0.1
 4 C  s               0.2       0.3       0.1       0.0       0.2       0.0
 4 C  pz              7.1       1.1       0.9       1.5       0.5       4.0
 4 C  px              0.8       1.3       1.6       2.7       0.1       1.2
 4 C  py              0.4       2.8       0.5       0.7       3.6       0.3
 4 C  dz2             0.0       0.0       0.0       0.3       0.0       0.1
 4 C  dxz             0.0       0.0       0.0       0.1       0.1       0.0
 4 C  dyz             0.0       0.0       0.1       0.0       0.0       0.3
 4 C  dx2y2           0.0       0.3       0.0       0.0       0.3       0.0
 4 C  dxy             0.0       0.1       0.2       0.0       0.1       0.2
 5 O  s               0.9       2.0       0.2       0.0       1.2       0.0
 5 O  pz              1.8       0.2       0.8       4.5       1.0      12.6
 5 O  px              0.2       2.2       0.1       2.1       0.0       5.7
 5 O  py              5.4      11.7       0.8       0.0       8.4       2.2
 5 O  dz2             0.2       0.0       0.0       0.0       0.0       0.0
 5 O  dxz             0.0       0.1       0.0       0.1       0.0       0.0
 5 O  dyz             0.2       0.1       0.0       0.1       0.0       0.1
 5 O  dx2y2           0.0       0.1       0.0       0.1       0.1       0.0
 5 O  dxy             0.0       0.1       0.0       0.0       0.0       0.0
 6 C  s               0.1       0.0       0.0       0.0       0.1       0.0
 6 C  pz              3.7       3.5       5.4       7.7       1.3       3.3
 6 C  px             10.4       3.9       9.2       9.9       1.9       0.6
 6 C  py              3.1      15.1      15.1       0.8       0.4       0.1
 6 C  dz2             0.0       0.0       0.1       0.3       0.0       0.1
 6 C  dx2y2           0.0       0.3       0.3       0.1       0.0       0.0
 7 H  s               1.3       3.9       3.6       2.3       0.2       5.1
 7 H  px              0.1       0.0       0.0       0.1       0.0       0.1
 8 H  s               0.1       0.0       1.5       0.9       9.1       0.0
 8 H  pz              0.1       0.0       0.0       0.1       0.0       0.1
 8 H  px              0.0       0.0       0.0       0.0       0.2       0.0
 9 H  s               6.5       0.0       0.5       8.9       0.3       8.1
 9 H  pz              0.0       0.0       0.0       0.0       0.1       0.0
10 H  s               2.0       0.5       0.2       0.1       0.5       6.2
10 H  pz              0.0       0.0       0.0       0.0       0.1       0.0
11 H  s               0.4       0.5       0.6       0.0       4.3       0.0
11 H  px              0.0       0.0       0.0       0.0       0.2       0.0
12 H  s               0.1       4.7       4.3       3.0       0.0       1.4
13 H  s               3.1       1.2       0.2       0.2       0.1       0.5
14 H  s               1.0       8.4      10.3       0.1       0.1       0.1
14 H  py              0.0       0.2       0.2       0.0       0.0       0.0
15 H  s               2.3       0.3       5.5       5.9       0.2       2.3
15 H  pz              0.1       0.0       0.1       0.1       0.0       0.0
15 H  px              0.1       0.0       0.1       0.1       0.0       0.0
15 H  py              0.0       0.1       0.0       0.0       0.0       0.0
16 H  s               5.2       5.5       4.3       7.7       0.2       1.1
16 H  pz              0.0       0.0       0.2       0.0       0.0       0.0
16 H  px              0.1       0.1       0.0       0.1       0.0       0.0

                     24        25        26        27        28        29   
                  -0.31509  -0.30237  -0.26960  -0.23676  -0.01479   0.07383
                   2.00000   2.00000   2.00000   2.00000   0.00000   0.00000
                  --------  --------  --------  --------  --------  --------
 0 C  s               0.1       0.4       0.0       0.0       0.0       8.1
 0 C  pz              1.1       6.3       1.0       0.0       0.1       0.4
 0 C  px             17.3       0.1       0.3       0.0       0.0       0.1
 0 C  py              1.5       5.5       0.1       0.0       0.0       0.1
 0 C  dyz             0.5       0.0       0.0       0.0       0.0       0.0
 0 C  dx2y2           0.0       0.0       0.0       0.0       0.0       0.1
 0 C  dxy             0.2       0.1       0.0       0.0       0.0       0.1
 1 C  s               0.0       0.1       0.5       0.0       0.4       2.9
 1 C  pz              2.5       3.0       3.0       0.2       0.3       0.5
 1 C  px             17.6       0.2       3.5       0.0       0.2       0.1
 1 C  py              2.5       7.1       2.4       0.1       0.2       1.1
 1 C  dz2             0.0       0.0       0.0       0.0       0.0       0.2
 1 C  dxz             0.0       0.3       0.1       0.0       0.0       0.3
 1 C  dyz             0.7       0.1       0.0       0.0       0.0       0.0
 1 C  dxy             0.2       0.2       0.0       0.0       0.0       0.1
 2 C  s               0.1       0.1       0.2       0.1       0.0       2.1
 2 C  pz              0.5       2.2       3.8       0.8       0.0       3.5
 2 C  px              3.0       0.7       1.6       0.3       0.0       5.4
 2 C  py              0.9      10.8       0.8       0.1       0.0       2.8
 2 C  dz2             0.0       0.1       0.2       0.0       0.1       0.0
 2 C  dxz             0.0       0.3       0.3       0.0       0.1       0.6
 2 C  dyz             0.3       0.5       0.1       0.0       0.0       0.0
 2 C  dx2y2           0.1       0.1       0.2       0.0       0.0       0.1
 2 C  dxy             0.0       0.0       0.3       0.0       0.1       0.4
 3 O  s               0.0       2.2       0.0       0.3       0.0       5.7
 3 O  pz              0.1       4.0      28.3       0.2       7.3       0.1
 3 O  px              1.2       0.2       9.2       1.2       2.0       0.3
 3 O  py              1.7      19.9       2.3       7.0       0.7       0.8
 3 O  dz2             0.2       0.0       0.4       0.3       1.7       0.6
 3 O  dxz             0.0       0.2       0.0       0.0       2.3       2.2
 3 O  dyz             0.1       0.5       0.3       0.0       1.1       0.2
 3 O  dx2y2           0.0       0.8       0.0       0.1       1.8       0.4
 3 O  dxy             0.0       0.3       0.5       0.2       0.0       0.0
 4 C  s               0.0       0.2       0.0       0.2       0.0      12.6
 4 C  pz              1.6       0.0       0.3       0.3      28.6       0.0
 4 C  px              0.0       0.1       0.1       0.9       8.6       0.8
 4 C  py              0.0       2.3       0.1       0.5       3.1       0.1
 4 C  dz2             0.0       0.1       0.0       0.2       0.5       0.5
 4 C  dxz             0.0       0.1       0.3       0.1       0.0       0.8
 4 C  dyz             0.0       0.0       1.3       0.5       0.3       0.3
 4 C  dx2y2           0.0       0.4       0.4       0.0       0.0       0.0
 4 C  dxy             0.0       0.1       0.0       3.1       0.2       0.1
 5 O  s               0.0       0.5       0.0       0.0       0.0       1.7
 5 O  pz              2.0       1.4      26.2      12.3      17.0       0.1
 5 O  px              0.1       0.0       3.1      60.3       4.6       0.5
 5 O  py              1.0       3.7       2.6       0.2       1.8       0.3
 5 O  dz2             0.0       0.1       0.0       0.0       1.4       0.7
 5 O  dxz             0.1       0.1       0.0       0.0       0.1       0.6
 5 O  dyz             0.0       0.0       0.1       0.1       3.3       0.6
 5 O  dx2y2           0.0       0.2       0.0       0.0       0.4       0.2
 5 O  dxy             0.0       0.0       0.0       0.4       1.3       0.0
 6 C  s               0.0       0.1       0.0       0.6       0.0      19.6
 6 C  pz              1.3       0.4       0.0       1.9       0.1       0.2
 6 C  px              0.1       1.2       0.1       1.7       0.0       0.5
 6 C  py              0.1       0.1       0.0       2.9       0.0       0.1
 6 C  dz2             0.0       0.0       0.0       0.0       1.7       0.0
 6 C  dxz             0.0       0.0       0.0       0.0       0.2       0.1
 6 C  dx2y2           0.0       0.0       0.0       0.1       0.1       0.1
 7 H  s               7.8       0.0       0.3       0.0       0.0       0.5
 7 H  pz              0.1       0.1       0.0       0.0       0.0       0.2
 8 H  s               7.3       2.4       0.1       0.0       0.0       1.4
 8 H  px              0.0       0.1       0.0       0.0       0.0       0.6
 8 H  py              0.1       0.0       0.0       0.0       0.0       0.1
 9 H  s               1.4       0.1       1.0       0.1       0.0       1.3
 9 H  px              0.1       0.0       0.0       0.0       0.0       0.3
 9 H  py              0.1       0.1       0.0       0.0       0.0       0.2
10 H  s              10.8       0.7       0.5       0.1       0.0       0.7
10 H  px              0.0       0.0       0.1       0.0       0.0       0.3
10 H  py              0.1       0.0       0.0       0.0       0.0       0.0
11 H  s               8.0       3.7       0.6       0.1       0.0       2.2
11 H  px              0.0       0.1       0.0       0.0       0.0       0.4
11 H  py              0.1       0.0       0.0       0.0       0.0       0.0
12 H  s               1.9       3.7       1.4       0.1       0.2       0.7
12 H  py              0.0       0.0       0.0       0.0       0.0       0.6
13 H  s               1.4      10.6       1.6       0.1       0.2       1.2
13 H  px              0.0       0.1       0.0       0.0       0.0       0.7
14 H  s               0.2       0.0       0.0       1.3       0.3       0.9
14 H  py              0.0       0.0       0.0       0.0       0.0       0.6
15 H  s               0.9       0.0       0.0       0.0       4.2       2.4
15 H  pz              0.0       0.0       0.0       0.0       0.2       0.8
16 H  s               0.0       0.3       0.0       0.0       2.4       2.3
16 H  pz              0.0       0.0       0.0       0.0       0.0       0.2
16 H  px              0.0       0.0       0.0       0.0       0.1       0.7

                     30        31        32        33        34        35   
                   0.08948   0.11400   0.12084   0.12972   0.13842   0.15210
                   0.00000   0.00000   0.00000   0.00000   0.00000   0.00000
                  --------  --------  --------  --------  --------  --------
 0 C  s               1.6      12.6       9.6       6.3       0.7       1.4
 0 C  pz              0.1       0.8       8.5       4.9       3.2       1.4
 0 C  px              0.9       3.2       1.4       4.7       1.9       2.8
 0 C  py              3.2       0.3       0.0       5.9       2.2       3.7
 0 C  dxz             0.1       0.0       0.4       0.0       0.3       0.0
 0 C  dyz             0.4       0.3       0.2       0.4       0.1       0.0
 0 C  dx2y2           0.0       0.0       0.1       0.0       0.0       0.1
 0 C  dxy             0.0       0.2       0.0       0.7       0.2       0.3
 1 C  s               8.0       4.4       0.0       9.0       0.8       0.7
 1 C  pz              1.4       1.2       7.7       0.6       0.1       3.2
 1 C  px              0.4       7.0       5.2       0.5       0.1       1.3
 1 C  py              1.6       3.1       2.0      15.6       4.6       1.1
 1 C  dz2             0.4       0.1       0.1       0.0       0.0       0.1
 1 C  dxz             0.2       0.0       0.0       0.5       1.0       0.1
 1 C  dyz             0.1       0.0       1.6       0.0       0.1       0.0
 1 C  dx2y2           0.1       0.0       0.0       0.4       0.1       0.0
 1 C  dxy             0.4       0.4       0.0       0.0       0.1       0.2
 2 C  s               6.3       0.7      10.0       2.4       0.1       0.2
 2 C  pz              8.5       5.6      10.9       9.3       3.3       0.9
 2 C  px             17.5       2.6       3.3       1.2       1.4       3.4
 2 C  py              2.9       2.4       0.8       4.2      11.4       1.0
 2 C  dz2             0.0       0.0       0.1       0.3       0.3       0.0
 2 C  dxz             1.5       0.0       0.1       0.1       0.6       0.3
 2 C  dyz             0.4       0.0       0.2       0.5       0.8       0.0
 2 C  dx2y2           0.5       0.2       0.4       0.1       0.1       0.0
 2 C  dxy             0.2       0.7       0.0       0.1       0.1       0.0
 3 O  s               4.5       0.2       0.2       0.1       0.1       1.0
 3 O  pz              3.5       0.1       0.6       0.2       0.0       0.2
 3 O  px              2.4       2.9       0.1       0.0       0.5       0.2
 3 O  py              1.2       0.3       0.3       0.3       1.5       0.1
 3 O  dz2             0.0       1.7       0.3       1.5       0.4       1.1
 3 O  dxz             3.3       0.4       0.2       1.2       0.2       0.1
 3 O  dyz             0.5       0.7       1.2       0.1       1.5       0.0
 3 O  dx2y2           0.7       0.1       0.1       0.9       3.5       0.0
 3 O  dxy             0.1       0.5       0.3       1.4       1.1       0.0
 4 C  s               1.1       3.8       0.1       1.0       3.0       1.9
 4 C  pz              0.8       0.1       5.1       0.6       2.0       1.6
 4 C  px              0.4       1.8       0.2       0.1       1.4       2.1
 4 C  py              2.6       0.2       0.1       1.5       1.6       0.2
 4 C  dz2             0.0       0.1       0.0       0.0       0.1       0.0
 4 C  dxz             0.2       0.2       0.0       0.1       0.4       0.0
 4 C  dyz             0.1       0.1       0.0       0.0       0.0       0.0
 4 C  dx2y2           0.6       0.2       0.0       0.0       0.1       0.0
 5 O  s               0.4       0.5       0.2       0.3       0.0       0.3
 5 O  pz              0.3       0.1       0.2       0.1       0.1       0.3
 5 O  px              0.0       0.6       0.2       0.2       0.1       1.0
 5 O  py              0.3       0.1       0.1       0.2       0.2       0.4
 5 O  dz2             0.1       0.4       0.0       0.1       0.5       0.0
 5 O  dxz             0.2       1.1       0.2       0.0       0.9       0.7
 5 O  dyz             0.0       0.2       0.1       0.0       0.0       0.8
 5 O  dx2y2           0.1       0.0       0.1       0.0       1.6       0.2
 5 O  dxy             0.3       0.1       0.0       0.2       0.0       0.1
 6 C  s               0.3      11.3       1.0       2.7       2.5       9.6
 6 C  pz              0.9       0.8       1.2       1.9       2.1       9.0
 6 C  px              1.1       0.5       0.6       3.6       6.2      20.0
 6 C  py              0.4       0.1       0.0       0.7       4.9       8.7
 6 C  dz2             0.0       0.1       0.0       0.0       0.0       0.1
 6 C  dxz             0.1       0.1       0.1       0.1       0.6       0.7
 6 C  dyz             0.0       0.0       0.0       0.0       0.2       0.2
 6 C  dx2y2           0.3       0.0       0.0       0.0       0.6       0.0
 6 C  dxy             0.0       0.0       0.0       0.1       0.8       0.4
 7 H  s               1.7       2.0       0.9       1.3       0.1       2.6
 7 H  pz              0.6       0.8       0.1       0.0       0.2       0.2
 7 H  px              0.0       0.0       0.4       0.8       0.0       0.2
 7 H  py              0.0       0.6       0.1       0.5       0.0       1.0
 8 H  s               0.0       0.6       3.1       0.6       0.6       0.4
 8 H  pz              0.0       0.0       1.1       0.6       0.0       0.0
 8 H  px              0.1       0.5       0.5       0.0       0.1       0.1
 8 H  py              0.2       0.1       0.3       0.1       0.0       0.0
 9 H  s               0.0       4.1       1.3       0.4       0.2       0.1
 9 H  pz              0.0       0.3       0.1       0.2       0.3       0.1
 9 H  px              0.0       0.5       0.1       0.1       0.2       0.0
 9 H  py              0.2       1.1       0.1       0.2       0.1       0.0
[...]
 2 C  dyz             7.8       3.5       5.3       1.3       0.2       0.1
 2 C  dx2y2           0.2       0.7       0.1       2.0       0.7       0.1
 2 C  dxy             0.1       0.0       0.7       3.7       1.0       0.3
 3 O  s               0.6       1.2       3.2      26.9       4.7       1.0
 3 O  pz              0.0       0.0       0.4       3.0       4.3       0.2
 3 O  px              0.0       0.4       0.2       4.0      23.9       0.5
 3 O  py              1.2       1.4       4.4       7.2       3.0       0.1
 3 O  dz2             0.2       0.5       0.7       2.5       3.6       0.0
 3 O  dxz             0.3       1.3       0.2      15.9       0.1       1.3
 3 O  dyz             0.8       1.1       0.3       0.9       3.3       0.3
 3 O  dx2y2           0.4       2.1       6.3       5.5       0.2       0.3
 3 O  dxy             0.1       0.3       0.7       0.2      23.3       0.4
 4 C  s               0.1       0.3       0.7       0.4       2.8       5.2
 4 C  pz              0.0       0.0       0.1       0.0       0.5       0.6
 4 C  px              0.1       0.1       0.3       0.7       4.2       0.1
 4 C  py              0.0       0.1       0.4       1.0       2.0       7.3
 4 C  dz2             0.1       0.1       0.3       0.2       1.7       0.9
 4 C  dxz             0.1       1.6       3.1       0.1       0.4       0.0
 4 C  dyz             0.0       0.1       1.0       0.3       1.2       1.6
 4 C  dx2y2           0.0       0.7       2.8       0.2       0.4       4.1
 4 C  dxy             0.2       3.1       5.7       1.5       8.8       0.0
 5 O  s               0.7       0.3       2.6       1.0       0.5      18.3
 5 O  pz              0.0       0.1       1.5       0.0       0.2       1.7
 5 O  px              0.4       2.1       6.2       0.1       0.1       0.1
 5 O  py              0.2       0.2       0.6       0.8       0.3      20.1
 5 O  dz2             0.0       0.2       1.5       0.4       0.0       4.8
 5 O  dxz             0.0       0.1       0.0       0.2       0.6       0.1
 5 O  dyz             0.0       0.7       3.6       0.2       0.7       7.2
 5 O  dx2y2           0.2       0.2       0.4       1.3       0.0      21.4
 5 O  dxy             0.3       6.6      14.1       0.3       1.0       0.4
 6 C  pz              0.0       0.0       0.2       0.0       0.0       0.0
 6 C  px              0.0       0.9       0.7       0.0       0.1       0.0
 6 C  py              0.0       0.0       0.3       0.0       0.1       0.0
 6 C  dz2             0.0       0.1       0.1       0.0       0.1       0.1
 6 C  dxz             0.0       1.0       1.3       0.0       0.0       0.0
 6 C  dyz             0.0       0.0       0.3       0.0       0.0       0.0
 6 C  dx2y2           0.0       0.0       0.4       0.0       0.1       0.0
 6 C  dxy             0.1       0.8       1.5       0.1       0.2       0.0
 7 H  s               1.3       0.0       0.1       0.0       0.0       0.0
 7 H  pz              0.7       0.0       0.0       0.0       0.0       0.0
 7 H  px              1.5       0.0       0.0       0.0       0.0       0.0
 7 H  py              1.3       0.1       0.2       0.0       0.0       0.0
 8 H  s               0.3       0.9       0.3       0.0       0.0       0.0
 8 H  pz              0.1       1.5       0.4       0.0       0.0       0.0
 8 H  px              0.2       0.7       0.2       0.0       0.0       0.0
 8 H  py              0.3       0.3       0.1       0.0       0.0       0.0
 9 H  s               0.1       0.3       0.1       0.0       0.0       0.0
 9 H  pz              0.2       0.2       0.1       0.0       0.0       0.0
 9 H  px              0.0       0.5       0.1       0.0       0.0       0.0
10 H  s               4.4       3.2       0.7       0.0       0.0       0.0
10 H  pz              3.0       1.5       0.2       0.0       0.0       0.0
10 H  px              2.5       1.3       0.2       0.0       0.0       0.0
10 H  py              5.7       5.6       1.0       0.0       0.0       0.0
11 H  s               2.1       2.7       0.4       0.1       0.0       0.0
11 H  pz              1.3       1.4       0.2       0.1       0.0       0.0
11 H  px              1.0       3.2       0.7       0.2       0.0       0.0
11 H  py              2.8       1.1       0.1       0.1       0.0       0.0
12 H  s               3.5       2.8       1.9       0.3       0.1       0.0
12 H  pz              2.6       2.9       1.5       0.0       0.0       0.0
12 H  px              1.1       1.0       0.3       0.0       0.0       0.0
12 H  py              3.6       2.6       2.8       1.1       0.1       0.0
13 H  s               4.1       1.8       1.3       0.3       0.1       0.0
13 H  pz              5.6       1.9       0.8       0.1       0.0       0.0
13 H  px              0.6       0.3       2.1       0.5       0.2       0.0
13 H  py              3.6       1.3       1.0       0.2       0.0       0.0
14 H  s               0.0       0.0       0.3       0.0       0.1       0.0
14 H  py              0.0       0.0       0.7       0.0       0.0       0.0
15 H  pz              0.0       0.0       0.1       0.0       0.0       0.0
16 H  s               0.0       0.5       0.2       0.0       0.0       0.0
16 H  pz              0.0       0.2       0.1       0.0       0.0       0.0
16 H  px              0.0       0.8       0.3       0.0       0.0       0.0

                    186       187       188       189       190       191   
                  21.91049  21.93356  22.03239  22.10515  22.22837  43.67177
                   0.00000   0.00000   0.00000   0.00000   0.00000   0.00000
                  --------  --------  --------  --------  --------  --------
 0 C  s              38.1      55.7       0.1       5.0       0.8       0.0
 1 C  s               0.2       0.0      85.3      13.0       1.0       0.0
 2 C  s               9.8       0.0      13.4      75.9       0.5       0.0
 3 O  s               0.0       0.0       0.0       0.1       0.1       0.1
 4 C  s               0.3       0.8       0.5       0.7      96.7       0.0
 5 O  s               0.0       0.0       0.0       0.0       0.2      99.9
 5 O  py              0.0       0.0       0.0       0.0       0.1       0.0
 6 C  s              51.2      43.0       0.4       4.9       0.1       0.0

                    192   
                  43.74637
                   0.00000
                  --------
 3 O  s              99.9


                      *****************************
                      * MAYER POPULATION ANALYSIS *
                      *****************************

  NA   - Mulliken gross atomic population
  ZA   - Total nuclear charge
  QA   - Mulliken gross atomic charge
  VA   - Mayer's total valence
  BVA  - Mayer's bonded valence
  FA   - Mayer's free valence

  ATOM       NA         ZA         QA         VA         BVA        FA
  0 C      6.4856     6.0000    -0.4856     3.8305     3.8305    -0.0000
  1 C      6.2325     6.0000    -0.2325     3.6835     3.6835    -0.0000
  2 C      6.1507     6.0000    -0.1507     3.6553     3.6553     0.0000
  3 O      8.1823     8.0000    -0.1823     1.9099     1.9099     0.0000
  4 C      5.5857     6.0000     0.4143     3.8017     3.8017     0.0000
  5 O      8.4266     8.0000    -0.4266     1.9443     1.9443    -0.0000
  6 C      6.5195     6.0000    -0.5195     3.8666     3.8666     0.0000
  7 H      0.8592     1.0000     0.1408     0.9656     0.9656     0.0000
  8 H      0.8425     1.0000     0.1575     0.9614     0.9614     0.0000
  9 H      0.8518     1.0000     0.1482     0.9621     0.9621    -0.0000
 10 H      0.8392     1.0000     0.1608     0.9622     0.9622     0.0000
 11 H      0.8594     1.0000     0.1406     0.9638     0.9638    -0.0000
 12 H      0.8539     1.0000     0.1461     0.9542     0.9542    -0.0000
 13 H      0.8293     1.0000     0.1707     0.9593     0.9593    -0.0000
 14 H      0.8289     1.0000     0.1711     0.9596     0.9596     0.0000
 15 H      0.8266     1.0000     0.1734     0.9565     0.9565     0.0000
 16 H      0.8265     1.0000     0.1735     0.9581     0.9581     0.0000

  Mayer bond orders larger than 0.100000
B(  0-C ,  1-C ) :   0.9169 B(  0-C ,  7-H ) :   0.9771 B(  0-C ,  8-H ) :   0.9832 
B(  0-C ,  9-H ) :   0.9704 B(  1-C ,  2-C ) :   0.9525 B(  1-C , 10-H ) :   0.9688 
B(  1-C , 11-H ) :   0.9558 B(  2-C ,  3-O ) :   0.8245 B(  2-C , 12-H ) :   0.9625 
B(  2-C , 13-H ) :   0.9575 B(  3-O ,  4-C ) :   1.0549 B(  4-C ,  5-O ) :   1.8436 
B(  4-C ,  6-C ) :   0.9484 B(  6-C , 14-H ) :   0.9835 B(  6-C , 15-H ) :   0.9389 
B(  6-C , 16-H ) :   0.9660 

-------
TIMINGS
-------

Total SCF time: 0 days 0 hours 0 min 19 sec 

Total time                  ....      19.827 sec
Sum of individual times     ....      19.278 sec  ( 97.2%)

SCF preparation             ....       0.195 sec  (  1.0%)
Fock matrix formation       ....      18.076 sec  ( 91.2%)
  Startup                   ....       0.054 sec  (  0.3% of F)
  Split-RI-J                ....       3.230 sec  ( 17.9% of F)
  XC integration            ....      14.259 sec  ( 78.9% of F)
    XC Preparation          ....       0.000 sec  (  0.0% of XC)
    Basis function eval.    ....       2.713 sec  ( 19.0% of XC)
    Density eval.           ....       4.123 sec  ( 28.9% of XC)
    XC-Functional eval.     ....       1.966 sec  ( 13.8% of XC)
    XC-Potential eval.      ....       4.560 sec  ( 32.0% of XC)
Diagonalization             ....       0.000 sec  (  0.0%)
Density matrix formation    ....       0.272 sec  (  1.4%)
Total Energy calculation    ....       0.036 sec  (  0.2%)
Population analysis         ....       0.108 sec  (  0.5%)
Orbital Transformation      ....       0.068 sec  (  0.3%)
Orbital Orthonormalization  ....       0.000 sec  (  0.0%)
DIIS solution               ....       0.467 sec  (  2.4%)
  MO trafo                  ....       0.000 sec  (  0.0 % of DIIS)
  Orb grad                  ....       0.000 sec  (  0.0 % of DIIS)
  Energy W gradient         ....       0.000 sec  (  0.0 % of DIIS)
  DIIS error                ....       0.012 sec  (  2.6 % of DIIS)
  DIIS work                 ....       0.404 sec  ( 86.4 % of DIIS)
  Form Q                    ....       0.000 sec  (  0.0 % of DIIS)
  Form QpQm                 ....       0.000 sec  (  0.0 % of DIIS)
  Exp/Cayley                ....       0.000 sec  (  0.0 % of DIIS)
  Orb update                ....       0.000 sec  (  0.0 % of DIIS)
  Wake-sleep                ....       0.020 sec  (  4.3 % of DIIS)
SOSCF solution              ....       0.056 sec  (  0.3%)
  MO trafo                  ....       0.056 sec  ( 99.9 % of SOSCF)
  Orb grad                  ....       0.000 sec  (  0.0 % of SOSCF)
  Rot update                ....       0.000 sec  (  0.0 % of SOSCF)
  Step                      ....       0.000 sec  (  0.0 % of SOSCF)
Finished LeanSCF after  19.9 sec

Maximum memory used throughout the entire LEANSCF-calculation: 20.3 MB


-------------------------------------------------------------------------------
                          DFT DISPERSION CORRECTION                            
                                                                               
                                DFTD4 V3.4.0                                   
-------------------------------------------------------------------------------
The R2SCAN3C composite method is recognized
Using three-body term ABC
Active option DFTDOPT                   ...         5   

-------------------------   ----------------
Dispersion correction           -0.004047414
-------------------------   ----------------

------------------   -----------------
gCP correction             0.010485602
------------------   -----------------

-------------------------   --------------------
FINAL SINGLE POINT ENERGY      -346.936717653090
-------------------------   --------------------


------------------------------------------------------------------------------
                              ORCA PROPERTY CALCULATIONS
------------------------------------------------------------------------------

GBWName                                 ... sp_gas.gbw
Number of atoms                         ...     17
Number of basis functions               ...    193
Max core memory                         ...   1024 MB

Electric properties:
Dipole moment                           ... YES
Quadrupole moment                       ...  NO
Static polarizability (Dipole/Dipole)   ...  NO
Static polarizability (Dipole/Quad.)    ...  NO
Static polarizability (Quad./Quad.)     ...  NO
Static polarizability (Velocity)        ...  NO

Atomic electric properties:
Dipole moment                           ...  NO
Quadrupole moment                       ...  NO
Static polarizability                   ...  NO

Choice of electric origin               ... Center of mass
Position of electric origin             ...    -0.000023     0.000010    -0.000009

General magnetic properties:
Magnetizability                         ...  NO

EPR properties:
g-Tensor (aka g-matrix)                 ...  NO
Zero-Field splitting spin-orbit         ...  NO
Zero-field splitting spin-spin          ...  NO
Hyperfine couplings                     ...  NO (   0 nuclei)
Quadrupole couplings                    ...  NO (   0 nuclei)
Contact density                         ...  NO (   0 nuclei)

NMR properties:
Chemical shifts                         ...  NO (   0 nuclei)
Spin-rotation constants                 ...  NO (   0 nuclei)
Spin-spin couplings                     ...  NO (   0 nuclei,    0 pairs)

Choice of magnetic origin               ... GIAO
Position of magnetic origin             ...     0.000000     0.000000     0.000000

Properties with geometric perturbations:
SCF Hessian                             ...  NO
IR spectrum                             ...  NO
VCD spectrum                            ...  NO
X-ray spectroscopy properties:
SCF XES/XAS/RIXS spectra                ...  NO


-------------
DIPOLE MOMENT
-------------

Method             : SCF
Type of density    : Electron Density
Multiplicity       :   1
Irrep              :   0
Energy             :  -346.9431558407233638 Eh
Relativity type    : 
Basis              : AO
                                X                 Y                 Z
Electronic contribution:      5.296269420      -1.861518203       2.398710502
Nuclear contribution   :     -5.668747212       2.539802560      -2.558439185
                        -----------------------------------------
Total Dipole Moment    :     -0.372477792       0.678284357      -0.159728683
                        -----------------------------------------
Magnitude (a.u.)       :      0.790140891
Magnitude (Debye)      :      2.008378535



--------------------
Rotational spectrum 
--------------------
 
Rotational constants in cm-1:             0.168288             0.051153             0.046095 
Rotational constants in MHz :          5045.143610          1533.532967          1381.893752 

Dipole components along the rotational axes: 
x,y,z [a.u.] :    -0.407935     0.614554     0.283258 
x,y,z [Debye]:    -1.036887     1.562073     0.719985 

 

Dipole moment calculation done in   0.0 sec 

Maximum memory used throughout the entire PROP-calculation: 11.5 MB

--------------------------------
SUGGESTED CITATIONS FOR THIS RUN
--------------------------------

Below you find a list of papers that are relevant to this ORCA run
We neither can nor want to force you to cite these papers, but we appreciate if you do
You receive ORCA, which is the product of decades of hard work by many enthusiastic individuals, for free
The only thing we kindly ask in return is that you cite our papers,
We deeply appreciate it, if you show your appreciation for ORCA by not just citing the generic ORCA reference.

Please note that relegating all ORCA citations to the supporting information does *not* help us.
SI sections are not indexed - citations you put there will not count into any citation statistics
But we need these citations in order to attract the funding resources that allow us to do what we are doing

Therefore, if you are a happy ORCA user, please consider citing a few of the papers listed below in the main body of your paper

In addition to the list printed below, the program has created the file sp_gas.bibtex that contains the list in bibtex format
You can import this file easily into all common literature databanks and citation aid programs


List of essential papers. We consider these as the minimum necessary citations

  1. Neese,F.
     Software update: the ORCA program system, version 5.0
     WIRES Comput. Molec. Sci., 2022 12(1)e1606
     doi.org/10.1002/wcms.1606
  2. Grimme,S.; Hansen,A.; Ehlert,S.; Mewes,J.
     r2SCAN-3c: A 'Swiss army knife' composite electronic-structure method
     J. Chem. Phys., 2021 154 064103
     doi.org/10.1063/5.0040021

List of papers to cite with high priority. The work reported in these papers was absolutely
necessary for this run to complete.
Our perspective: the developers of density functionals and basis sets usually get cited in chemistry papers
Good! But without the algorithms to do something with them, the functionals or basis sets would not do anything.
Hence, in our opinion, the algorithm design and method developments papers are equally worthy of getting cited

  1. Neese,F.
     An improvement of the resolution of the identity approximation for the formation of the Coulomb matrix
     J. Comp. Chem., 2003 24(14)1740-1747
     doi.org/10.1002/jcc.10318
  2. Neese,F.
     The SHARK Integral Generation and Digestion System
     J. Comp. Chem., 2022  1-16
     doi.org/10.1002/jcc.26942
  3. Lehtola,S.; Steigemann,C.; Oliveira,M.; Marques,M.
     Recent developments in Libxc - A comprehensive library of functionals for density functional theory
     Software X, 2018 7 
     doi.org/10.1016/j.softx.2017.11.002
  4. Caldeweyher,E.; Bannwarth,C.; Grimme,S.
     Extension of the D3 dispersion coefficient model
     J. Chem. Phys., 2017 147 034112-XXXX
     doi.org/10.1063/1.4993215
  5. Caldeweyher,E.; Ehlert,S.; Hansen,A.; Neugebauer,H.; Spicher,S.; Bannwarth,C.; Grimme,S.
     A generally applicable atomic-charge dependent London dispersion correction
     J. Chem. Phys., 2019 150 154122-XXXX
     doi.org/10.1063/1.5090222
  6. Caldeweyher,E.; Mewes,J.; Ehlert,S.; Grimme,S.
     Extension and evaluation of the D4 London-dispersion model for periodic systems
     Phys. Chem. Chem. Phys., 2020 22(16)8499-8512
     doi.org/10.1039/D0CP00502A

List of suggested additional citations. These are papers that are important in the 'surrounding' of 
of this run, or papers that preceded the highly important papers. If you like your results we are grateful for a citation.

  1. Neese,F.
     The ORCA program system
     WIRES Comput. Molec. Sci., 2012 2(1)73-78
     doi.org/10.1002/wcms.81
  2. Neese,F.
     Software update: the ORCA program system, version 4.0
     WIRES Comput. Molec. Sci., 2018 8(1)1-6
     doi.org/10.1002/wcms.1327
  3. Neese,F.; Wennmohs,F.; Becker,U.; Riplinger,C.
     The ORCA quantum chemistry program package
     J. Chem. Phys., 2020 152 Art. No. L224108
     doi.org/10.1063/5.0004608

List of optional additional citations

  1. Neese,F.
     Approximate second-order SCF convergence for spin unrestricted wavefunctions
     Chem. Phys. Lett., 2000 325(1-3)93-98
     doi.org/10.1016/s0009-2614(00)00662-x

Timings for individual modules:

Sum of individual times          ...       21.456 sec (=   0.358 min)
Startup calculation              ...        1.098 sec (=   0.018 min)   5.1 %
SCF iterations                   ...       20.249 sec (=   0.337 min)  94.4 %
Property calculations            ...        0.110 sec (=   0.002 min)   0.5 %
                             ****ORCA TERMINATED NORMALLY****
TOTAL RUN TIME: 0 days 0 hours 0 minutes 22 seconds 271 msec
