
                                 *****************
                                 * O   R   C   A *
                                 *****************

                                            #,                                       
                                            ###                                      
                                            ####                                     
                                            #####                                    
                                            ######                                   
                                           ########,                                 
                                     ,,################,,,,,                         
                               ,,#################################,,                 
                          ,,##########################################,,             
                       ,#########################################, ''#####,          
                    ,#############################################,,   '####,        
                  ,##################################################,,,,####,       
                ,###########''''           ''''###############################       
              ,#####''   ,,,,##########,,,,          '''####'''          '####       
            ,##' ,,,,###########################,,,                        '##       
           ' ,,###''''                  '''############,,,                           
         ,,##''                                '''############,,,,        ,,,,,,###''
      ,#''                                            '''#######################'''  
     '                                                          ''''####''''         
             ,#######,   #######,   ,#######,      ##                                
            ,#'     '#,  ##    ##  ,#'     '#,    #''#        ,####,   ,####,        
            ##       ##  ##   ,#'  ##            #'  '#       #'       #'  '#        
            ##       ##  #######   ##           ,######,      #####,   #    #        
            '#,     ,#'  ##    ##  '#,     ,#' ,#      #,     #,   #   #,  ,#        
             '#######'   ##     ##  '#######'  #'      '#     '####' # '####'        



                #########################################################
                #                        -***-                          #
                #          Department of theory and spectroscopy        #
                #                                                       #
                #                      Frank Neese                      #
                #                                                       #
                #     Directorship, Architecture, Infrastructure        #
                #                    SHARK, DRIVERS                     #
                #        Core code/Algorithms in most modules           #
                #                                                       #
                #        Max Planck Institute fuer Kohlenforschung      #
                #                Kaiser Wilhelm Platz 1                 #
                #                 D-45470 Muelheim/Ruhr                 #
                #                      Germany                          #
                #                                                       #
                #                  All rights reserved                  #
                #                        -***-                          #
                #########################################################


                         Program Version 6.0.0  -   RELEASE  -


 With contributions from (in alphabetic order):
   Daniel Aravena         : Magnetic Suceptibility
   Michael Atanasov       : Ab Initio Ligand Field Theory (pilot matlab implementation)
   Alexander A. Auer      : GIAO ZORA, VPT2 properties, NMR spectrum
   Ute Becker             : All parallelization in ORCA, NUMFREQ, NUMCALC
   Giovanni Bistoni       : ED, misc. LED, open-shell LED, HFLD
   Martin Brehm           : Molecular dynamics
   Dmytro Bykov           : pre 5.0 version of the SCF Hessian
   Marcos Casanova-Páez   : Triplet and SCS-CIS(D). UHF-(DLPNO)-IP/EA/STEOM-CCSD. UHF-CVS-IP/STEOM-CCSD
   Vijay G. Chilkuri      : MRCI spin determinant printing, contributions to CSF-ICE
   Pauline Colinet        : FMM embedding
   Dipayan Datta          : RHF DLPNO-CCSD density
   Achintya Kumar Dutta   : EOM-CC, STEOM-CC
   Nicolas Foglia         : Exact transition moments, OPA infrastructure, MCD improvements
   Dmitry Ganyushin       : Spin-Orbit,Spin-Spin,Magnetic field MRCI
   Miquel Garcia          : C-PCM and meta-GGA Hessian, CCSD/C-PCM, Gaussian charge scheme
   Tiago L. C. Gouveia    : GS-ROHF, GS-ROCIS
   Yang Guo               : DLPNO-NEVPT2, F12-NEVPT2, CIM, IAO-localization
   Andreas Hansen         : Spin unrestricted coupled pair/coupled cluster methods
   Ingolf Harden          : AUTO-CI MPn and infrastructure 
   Benjamin Helmich-Paris : MC-RPA, TRAH-(SCF,CASSCF), AVAS, COSX integrals, SCF dyn. polar.
   Lee Huntington         : MR-EOM, pCC
   Robert Izsak           : Overlap fitted RIJCOSX, COSX-SCS-MP3, EOM
   Riya Kayal             : Wick's Theorem for AUTO-CI, AUTO-CI UHF-CCSDT
   Emily Kempfer          : AUTO-CI, RHF CISDT and CCSDT
   Christian Kollmar      : KDIIS, OOCD, Brueckner-CCSD(T), CCSD density, CASPT2, CASPT2-K, improved NEVPT2
   Axel Koslowski         : Symmetry handling
   Simone Kossmann        : Meta GGA functionals, TD-DFT gradient, OOMP2, (MP2 Hessian; deprecated post 5.0)
   Lucas Lang             : DCDCAS
   Marvin Lechner         : AUTO-CI (C++ implementation), FIC-MRCC
   Spencer Leger          : CASSCF response
   Dagmar Lenk            : GEPOL surface, SMD, ORCA-2-JSON
   Dimitrios Liakos       : Extrapolation schemes; Compound Job, initial MDCI parallelization
   Dimitrios Manganas     : Further ROCIS development; embedding schemes. LFT, Crystal Embedding
   Dimitrios Pantazis     : SARC Basis sets
   Anastasios Papadopoulos: AUTO-CI, single reference methods and gradients
   Taras Petrenko         : pre 6.0 DFT Hessian and TD-DFT gradient, (ASA, deprecated), ECA, 1-Electron XAS/XES, NRVS
   Peter Pinski           : DLPNO-MP2, DLPNO-MP2 Gradient
   Christoph Reimann      : Effective Core Potentials
   Marius Retegan         : Local ZFS, SOC
   Christoph Riplinger    : Optimizer, TS searches, QM/MM, DLPNO-CCSD(T), (RO)-DLPNO pert. Triples
   Michael Roemelt        : Original ROCIS implementation
   Masaaki Saitow         : Open-shell DLPNO-CCSD energy and density
   Barbara Sandhoefer     : DKH picture change effects
   Kantharuban Sivalingam : CASSCF convergence/infrastructure, NEVPT2 and variants, FIC-MRCI
   Bernardo de Souza      : ESD, SOC TD-DFT
   Georgi Stoychev        : AutoAux, RI-MP2 NMR, DLPNO-MP2 response, X2C
   Van Anh Tran           : RI-MP2 g-tensors
   Willem Van den Heuvel  : Paramagnetic NMR
   Zikuan Wang            : NOTCH, Electric field optimization 
   Frank Wennmohs         : Technical directorship and infrastructure
   Hang Xu                : AUTO-CI-Response properties 


 We gratefully acknowledge several colleagues who have allowed us to
 interface, adapt or use parts of their codes:
   Stefan Grimme, W. Hujo, H. Kruse, P. Pracht,  : VdW corrections, initial TS optimization,
                  C. Bannwarth, S. Ehlert,         DFT functionals, gCP, sTDA/sTD-DF
                  L. Wittmann, M. Mueller
   Ed Valeev, F. Pavosevic, A. Kumar             : LibInt (2-el integral package), F12 methods
   Garnet Chan, S. Sharma, J. Yang, R. Olivares  : DMRG
   Ulf Ekstrom                                   : XCFun DFT Library
   Mihaly Kallay                                 : mrcc  (arbitrary order and MRCC methods)
   Frank Weinhold                                : gennbo (NPA and NBO analysis)
   Simon Mueller                                 : openCOSMO-RS
   Christopher J. Cramer and Donald G. Truhlar   : smd solvation model
   Lars Goerigk                                  : TD-DFT with DH, B97 family of functionals
   V. Asgeirsson, H. Jonsson                     : NEB implementation
   FAccTs GmbH                                   : IRC, NEB, NEB-TS, DLPNO-Multilevel, CI-OPT
                                                   MM, QMMM, 2- and 3-layer-ONIOM, Crystal-QMMM,
                                                   LR-CPCM, SF, NACMEs, symmetry and pop. for TD-DFT,
                                                   nearIR, NL-DFT gradient (VV10), updates on ESD,
                                                   ML-optimized integration grids, MBIS, APM,
                                                   GOAT, DOCKER, SOLVATOR, interface openCOSMO-RS
   S Lehtola, MJT Oliveira, MAL Marques          : LibXC Library
   Liviu Ungur et al                             : ANISO software


 Your calculation uses the libint2 library for the computation of 2-el integrals
 For citations please refer to: http://libint.valeyev.net

 Your ORCA version has been built with support for libXC version: 6.2.2
 For citations please refer to: https://libxc.gitlab.io

 This ORCA versions uses:
   CBLAS   interface :  Fast vector & matrix operations
   LAPACKE interface :  Fast linear algebra routines
   SCALAPACK package :  Parallel linear algebra routines
   Shared memory     :  Shared parallel matrices
   BLAS/LAPACK       :  OpenBLAS 0.3.27  USE64BITINT DYNAMIC_ARCH NO_AFFINITY SkylakeX SINGLE_THREADED
        Core in use  :  SkylakeX
   Copyright (c) 2011-2014, The OpenBLAS Project


Your calculation utilizes the geometrical counterpoise correction gCP
Please cite in your paper:
H.Kruse, S. Grimme J.Chem.Phys., 136, (2012), 154101 
   

Your calculation utilizes the atom-pairwise dispersion correction
based on EEQ partial charges (D4)


Your calculation utilizes the SMD solvation module
Please cite in your paper:
A.V. Marenich, C.J. Cramer, D.G. Truhlar J. Phys. Chem. B, 113, (2009), 6378 

================================================================================

----- Orbital basis set information -----
Your calculation utilizes the basis: def2-mTZVPP
   Stefan Grimme, Andreas Hansen, Sebastian Ehlert, and Jan-Michael Mewes 
   J. Chem. Phys. 154, 064103 (2021). DOI: 10.1063/5.0040021

----- AuxJ basis set information -----
Your calculation utilizes the auxiliary basis: def2/J
   F. Weigend, Phys. Chem. Chem. Phys. 8, 1057 (2006).

================================================================================
                                        WARNINGS
                       Please study these warnings very carefully!
================================================================================

Using LibXC functional ID 497 : Re-regularized SCAN exchange by Furness et al
[ 1]  J. W. Furness, A. D. Kaplan, J. Ning, J. P. Perdew, and J. Sun.,  J. Phys. Chem. Lett. 11, 8208-8215 (2020)
[ 2]  J. W. Furness, A. D. Kaplan, J. Ning, J. P. Perdew, and J. Sun.,  J. Phys. Chem. Lett. 11, 9248-9248 (2020)
Using LibXC functional ID 498 : Re-regularized SCAN correlation by Furness et al
[ 1]  J. W. Furness, A. D. Kaplan, J. Ning, J. P. Perdew, and J. Sun.,  J. Phys. Chem. Lett. 11, 8208-8215 (2020)
[ 2]  J. W. Furness, A. D. Kaplan, J. Ning, J. P. Perdew, and J. Sun.,  J. Phys. Chem. Lett. 11, 9248-9248 (2020)
Using LibXC functional ID 497 : Re-regularized SCAN exchange by Furness et al
[ 1]  J. W. Furness, A. D. Kaplan, J. Ning, J. P. Perdew, and J. Sun.,  J. Phys. Chem. Lett. 11, 8208-8215 (2020)
[ 2]  J. W. Furness, A. D. Kaplan, J. Ning, J. P. Perdew, and J. Sun.,  J. Phys. Chem. Lett. 11, 9248-9248 (2020)
Using LibXC functional ID 498 : Re-regularized SCAN correlation by Furness et al
[ 1]  J. W. Furness, A. D. Kaplan, J. Ning, J. P. Perdew, and J. Sun.,  J. Phys. Chem. Lett. 11, 8208-8215 (2020)
[ 2]  J. W. Furness, A. D. Kaplan, J. Ning, J. P. Perdew, and J. Sun.,  J. Phys. Chem. Lett. 11, 9248-9248 (2020)

================================================================================
                                       INPUT FILE
================================================================================
NAME = sp_solv.inp
|  1> ! r2scan-3c def2/J RI DEFGRID2 scfconv6 printgap
|  2> %output
|  3>     printlevel normal
|  4> end
|  5> %cpcm
|  6>     smd true
|  7>     smdsolvent "water"
|  8> end
|  9> * xyz 0 1
| 10> C -1.9893137145 0.9071756668 1.2345656743
| 11> C -2.0941847651 -0.2570051436 0.2534833912
| 12> C -3.5227351794 -0.390611153 -0.2671446762
| 13> C -1.1259281952 -0.0596647109 -0.9265689225
| 14> C 0.3018126959 -0.0497146504 -0.4847625303
| 15> C 0.9286421258 -1.1940875563 0.0170588311
| 16> N 2.1820692478 -1.1875540858 0.4373438516
| 17> C 2.8385066057 -0.035318053 0.3579448333
| 18> C 2.2338548483 1.1019733415 -0.1549535701
| 19> N 0.9755486606 1.0941251222 -0.5718871647
| 20> H -2.2465481227 1.8412854284 0.7411512262
| 21> H -0.9769718377 0.9951894007 1.6238354445
| 22> H -2.6665779333 0.7599285425 2.0722389069
| 23> H -1.8219252843 -1.1804387121 0.7766517138
| 24> H -3.6097095325 -1.2377638729 -0.942987948
| 25> H -4.2126826596 -0.5385675557 0.5597133292
| 26> H -3.8150919973 0.5097371653 -0.8020605357
| 27> H -1.3421117233 0.8884356662 -1.4191627545
| 28> H -1.2693568239 -0.8726397343 -1.6412136785
| 29> H 0.411580288 -2.1414892264 0.0791870926
| 30> H 3.8600614959 -0.0395307964 0.7080327581
| 31> H 2.7583518764 2.0431464292 -0.2386620714
| 32> *
| 33> 
| 34>                          ****END OF INPUT****
================================================================================

                       ****************************
                       * Single Point Calculation *
                       ****************************

---------------------------------
CARTESIAN COORDINATES (ANGSTROEM)
---------------------------------
  C     -1.989314    0.907176    1.234566
  C     -2.094185   -0.257005    0.253483
  C     -3.522735   -0.390611   -0.267145
  C     -1.125928   -0.059665   -0.926569
  C      0.301813   -0.049715   -0.484763
  C      0.928642   -1.194088    0.017059
  N      2.182069   -1.187554    0.437344
  C      2.838507   -0.035318    0.357945
  C      2.233855    1.101973   -0.154954
  N      0.975549    1.094125   -0.571887
  H     -2.246548    1.841285    0.741151
  H     -0.976972    0.995189    1.623835
  H     -2.666578    0.759929    2.072239
  H     -1.821925   -1.180439    0.776652
  H     -3.609710   -1.237764   -0.942988
  H     -4.212683   -0.538568    0.559713
  H     -3.815092    0.509737   -0.802061
  H     -1.342112    0.888436   -1.419163
  H     -1.269357   -0.872640   -1.641214
  H      0.411580   -2.141489    0.079187
  H      3.860061   -0.039531    0.708033
  H      2.758352    2.043146   -0.238662

----------------------------
CARTESIAN COORDINATES (A.U.)
----------------------------
  NO LB      ZA    FRAG     MASS         X           Y           Z
   0 C     6.0000    0    12.011   -3.759258    1.714314    2.332991
   1 C     6.0000    0    12.011   -3.957436   -0.485669    0.479014
   2 C     6.0000    0    12.011   -6.657005   -0.738148   -0.504830
   3 C     6.0000    0    12.011   -2.127696   -0.112750   -1.750962
   4 C     6.0000    0    12.011    0.570343   -0.093947   -0.916068
   5 C     6.0000    0    12.011    1.754879   -2.256498    0.032237
   6 N     7.0000    0    14.007    4.123513   -2.244152    0.826460
   7 C     6.0000    0    12.011    5.364000   -0.066741    0.676418
   8 C     6.0000    0    12.011    4.221374    2.082428   -0.292820
   9 N     7.0000    0    14.007    1.843520    2.067597   -1.080710
  10 H     1.0000    0     1.008   -4.245361    3.479525    1.400573
  11 H     1.0000    0     1.008   -1.846209    1.880635    3.068604
  12 H     1.0000    0     1.008   -5.039102    1.436057    3.915964
  13 H     1.0000    0     1.008   -3.442940   -2.230706    1.467659
  14 H     1.0000    0     1.008   -6.821362   -2.339035   -1.781989
  15 H     1.0000    0     1.008   -7.960817   -1.017745    1.057705
  16 H     1.0000    0     1.008   -7.209479    0.963264   -1.515675
  17 H     1.0000    0     1.008   -2.536224    1.678900   -2.681829
  18 H     1.0000    0     1.008   -2.398737   -1.649050   -3.101444
  19 H     1.0000    0     1.008    0.777774   -4.046828    0.149642
  20 H     1.0000    0     1.008    7.294459   -0.074702    1.337988
  21 H     1.0000    0     1.008    5.212530    3.860987   -0.451006

--------------------------------
INTERNAL COORDINATES (ANGSTROEM)
--------------------------------
 C      0   0   0     0.000000000000     0.00000000     0.00000000
 C      1   0   0     1.526052863688     0.00000000     0.00000000
 C      2   1   0     1.526322520475   110.51087177     0.00000000
 C      2   1   3     1.539151550238   110.60081712   121.78368287
 C      4   2   1     1.494568815415   112.03480316    63.08477199
 C      5   4   2     1.397973233186   121.93778660    67.85207721
 N      6   5   4     1.322029400149   122.35674682   181.51069811
 C      7   6   5     1.328481119262   116.98589714   359.66242897
 C      8   7   6     1.386398296285   121.20478460   359.42973256
 N      9   8   7     1.325605400885   121.70128766     0.81415131
 H      1   2   3     1.087284877607   110.32804323   298.77242352
 H      1   2   3     1.088169769323   110.83110516   178.90245824
 H      1   2   3     1.087228118794   110.43829408    58.81652320
 H      2   1   3     1.095700631601   108.59600132   240.77662734
 H      3   2   1     1.087196576967   110.80095825   181.75356345
 H      3   2   1     1.087020139477   110.27390284   301.80059769
 H      3   2   1     1.087306111444   110.30291973    61.54628796
 H      4   2   1     1.090081797941   109.46386358   302.68563220
 H      4   2   1     1.091887030549   108.88705044   183.60198764
 H      6   5   4     1.081102580468   121.56978807     1.77242812
 H      8   7   6     1.079885964345   116.40262382   179.72394486
 H      9   8   7     1.080699322979   122.10001155   180.84840941

---------------------------
INTERNAL COORDINATES (A.U.)
---------------------------
 C      0   0   0     0.000000000000     0.00000000     0.00000000
 C      1   0   0     2.883821978257     0.00000000     0.00000000
 C      2   1   0     2.884331555734   110.51087177     0.00000000
 C      2   1   3     2.908574908551   110.60081712   121.78368287
 C      4   2   1     2.824325749434   112.03480316    63.08477199
 C      5   4   2     2.641786553274   121.93778660    67.85207721
 N      6   5   4     2.498273507274   122.35674682   181.51069811
 C      7   6   5     2.510465489491   116.98589714   359.66242897
 C      8   7   6     2.619913092513   121.20478460   359.42973256
 N      9   8   7     2.505031169320   121.70128766     0.81415131
 H      1   2   3     2.054670648231   110.32804323   298.77242352
 H      1   2   3     2.056342851234   110.83110516   178.90245824
 H      1   2   3     2.054563389619   110.43829408    58.81652320
 H      2   1   3     2.070574118490   108.59600132   240.77662734
 H      3   2   1     2.054503784204   110.80095825   181.75356345
 H      3   2   1     2.054170365668   110.27390284   301.80059769
 H      3   2   1     2.054710774368   110.30291973    61.54628796
 H      4   2   1     2.059956061682   109.46386358   302.68563220
 H      4   2   1     2.063367456918   108.88705044   183.60198764
 H      6   5   4     2.042987799760   121.56978807     1.77242812
 H      8   7   6     2.040688728477   116.40262382   179.72394486
 H      9   8   7     2.042225753544   122.10001155   180.84840941

---------------------
BASIS SET INFORMATION
---------------------
There are 3 groups of distinct atoms

 Group   1 Type C   : 11s6p1d contracted to 5s3p1d pattern {62111/411/1}
 Group   2 Type N   : 11s6p2d contracted to 5s3p2d pattern {62111/411/11}
 Group   3 Type H   : 4s1p contracted to 2s1p pattern {31/1}

Atom   0C    basis set group =>   1
Atom   1C    basis set group =>   1
Atom   2C    basis set group =>   1
Atom   3C    basis set group =>   1
Atom   4C    basis set group =>   1
Atom   5C    basis set group =>   1
Atom   6N    basis set group =>   2
Atom   7C    basis set group =>   1
Atom   8C    basis set group =>   1
Atom   9N    basis set group =>   2
Atom  10H    basis set group =>   3
Atom  11H    basis set group =>   3
Atom  12H    basis set group =>   3
Atom  13H    basis set group =>   3
Atom  14H    basis set group =>   3
Atom  15H    basis set group =>   3
Atom  16H    basis set group =>   3
Atom  17H    basis set group =>   3
Atom  18H    basis set group =>   3
Atom  19H    basis set group =>   3
Atom  20H    basis set group =>   3
Atom  21H    basis set group =>   3
---------------------------------
AUXILIARY/J BASIS SET INFORMATION
---------------------------------
There are 3 groups of distinct atoms

 Group   1 Type C   : 12s5p4d2f1g contracted to 6s4p3d1f1g pattern {711111/2111/211/2/1}
 Group   2 Type N   : 12s5p4d2f1g contracted to 6s4p3d1f1g pattern {711111/2111/211/2/1}
 Group   3 Type H   : 5s2p1d contracted to 3s1p1d pattern {311/2/1}

Atom   0C    basis set group =>   1
Atom   1C    basis set group =>   1
Atom   2C    basis set group =>   1
Atom   3C    basis set group =>   1
Atom   4C    basis set group =>   1
Atom   5C    basis set group =>   1
Atom   6N    basis set group =>   2
Atom   7C    basis set group =>   1
Atom   8C    basis set group =>   1
Atom   9N    basis set group =>   2
Atom  10H    basis set group =>   3
Atom  11H    basis set group =>   3
Atom  12H    basis set group =>   3
Atom  13H    basis set group =>   3
Atom  14H    basis set group =>   3
Atom  15H    basis set group =>   3
Atom  16H    basis set group =>   3
Atom  17H    basis set group =>   3
Atom  18H    basis set group =>   3
Atom  19H    basis set group =>   3
Atom  20H    basis set group =>   3
Atom  21H    basis set group =>   3

Checking for AutoStart:
The File: sp_solv.gbw exists
Trying to determine its content:
     ... Fine, the file contains calculation information
     ... Fine, the calculation information was read
     ... Fine, the file contains a basis set
     ... Fine, the basis set was read
     ... Fine, the file contains a geometry
     ... Fine, the geometry was read
     ... Fine, the file contains a set of orbitals
     ... Fine, the orbitals can be read
     => possible old guess file was deleted
     => GBW file was renamed to GES file
     => GES file is set as startup file
     => Guess is set to MORead
     ... now leaving AutoStart

------------------------------------------------------------------------------
                             ORCA STARTUP CALCULATIONS
                           -- RI-GTO INTEGRALS CHOSEN --
------------------------------------------------------------------------------
------------------------------------------------------------------------------
                   ___                                                        
                  /   \      - P O W E R E D   B Y -                         
                 /     \                                                     
                 |  |  |   _    _      __       _____    __    __             
                 |  |  |  | |  | |    /  \     |  _  \  |  |  /  |          
                  \  \/   | |  | |   /    \    | | | |  |  | /  /          
                 / \  \   | |__| |  /  /\  \   | |_| |  |  |/  /          
                |  |  |   |  __  | /  /__\  \  |    /   |      \           
                |  |  |   | |  | | |   __   |  |    \   |  |\   \          
                \     /   | |  | | |  |  |  |  | |\  \  |  | \   \       
                 \___/    |_|  |_| |__|  |__|  |_| \__\ |__|  \__/        
                                                                              
                      - O R C A' S   B I G   F R I E N D -                    
                                      &                                       
                       - I N T E G R A L  F E E D E R -                       
                                                                              
 v1 FN, 2020, v2 2021, v3 2022-2024                                           
------------------------------------------------------------------------------


----------------------
SHARK INTEGRAL PACKAGE
----------------------

Number of atoms                             ...     22
Number of basis functions                   ...    260
Number of shells                            ...    128
Maximum angular momentum                    ...      2
Integral batch strategy                     ... SHARK/LIBINT Hybrid
RI-J (if used) integral strategy            ... SPLIT-RIJ (Revised 2003 algorithm where possible)
Printlevel                                  ...      1
Contraction scheme used                     ... SEGMENTED contraction
Prescreening option                         ... SCHWARTZ
   Thresh                                   ... 1.000e-10
   Tcut                                     ... 1.000e-11
   Tpresel                                  ... 1.000e-11 
Coulomb Range Separation                    ... NOT USED
Exchange Range Separation                   ... NOT USED
Multipole approximations                    ... NOT USED
Finite Nucleus Model                        ... NOT USED
CABS basis                                  ... NOT available
Auxiliary Coulomb fitting basis             ... AVAILABLE
   # of basis functions in Aux-J            ...    622
   # of shells in Aux-J                     ...    210
   Maximum angular momentum in Aux-J        ...      4
Auxiliary J/K fitting basis                 ... NOT available
Auxiliary Correlation fitting basis         ... NOT available
Auxiliary 'external' fitting basis          ... NOT available

Checking pre-screening integrals            ... done (  0.0 sec) Dimension = 128
Check shell pair data                       ... done (  0.0 sec)
Shell pair information
Shell pair cut-off parameter TPreSel        ...   1.0e-11
Total number of shell pairs                 ...      8256
Shell pairs after pre-screening             ...      7119
Total number of primitive shell pairs       ...     29659
Primitive shell pairs kept                  ...     17775
          la=0 lb=0:   2330 shell pairs
          la=1 lb=0:   2700 shell pairs
          la=1 lb=1:    804 shell pairs
          la=2 lb=0:    768 shell pairs
          la=2 lb=1:    446 shell pairs
          la=2 lb=2:     71 shell pairs

Calculating one electron integrals          ... done (  0.0 sec)
Calculating RI/J V-Matrix + Cholesky decomp.... done (  0.1 sec)
Calculating Nuclear repulsion               ... done (  0.0 sec) ENN=    514.460691372369 Eh

Diagonalization of the overlap matrix:
Smallest eigenvalue                        ... 9.251e-05
Time for diagonalization                   ...    0.009 sec
Threshold for overlap eigenvalues          ... 1.000e-07
Number of eigenvalues below threshold      ... 0
Time for construction of square roots      ...    0.021 sec
Total time needed                          ...    0.040 sec

-------------------
DFT GRID GENERATION
-------------------

General Integration Accuracy     IntAcc      ... 4.388
Radial Grid Type                 RadialGrid  ... OptM3 with GC (2021)
Angular Grid (max. ang.)         AngularGrid ... 4 (Lebedev-302)
Angular grid pruning method      GridPruning ... 4 (adaptive)
Weight generation scheme         WeightScheme... mBecke (2022)
Basis function cutoff            BFCut       ... 1.0000e-10
Integration weight cutoff        WCut        ... 1.0000e-14
Partially contracted basis set               ... off
Rotationally invariant grid construction     ... off
Angular grids for H and He will be reduced by one unit

Total number of grid points                  ...    98348
Total number of batches                      ...     1548
Average number of points per batch           ...       63
Average number of grid points per atom       ...     4470
Initializing property integral containers    ... done (  0.0 sec)

SHARK setup successfully completed in   1.6 seconds

Maximum memory used throughout the entire STARTUP-calculation: 45.4 MB
-------------------------------------------------------------------------------
                                 ORCA GUESS
                   Start orbitals & Density for SCF / CASSCF
-------------------------------------------------------------------------------

------------
SCF SETTINGS
------------
Hamiltonian:
 Density Functional     Method          .... DFT(GTOs)
  Functional kind                       .... Exchange
  Functional name                       .... Re-regularized SCAN exchange by Furness et al
  Functional family                     .... MGGA
  Functional refs                              
    [ 0] J. W. Furness, A. D. Kaplan, J. Ning, J. P. Perdew, and J. Sun.,  J. Phys. Chem. Lett. 11, 8208-8215 (2020), doi: 10.1021/acs.jpclett.0c02405
    [ 1] J. W. Furness, A. D. Kaplan, J. Ning, J. P. Perdew, and J. Sun.,  J. Phys. Chem. Lett. 11, 9248-9248 (2020), doi: 10.1021/acs.jpclett.0c03077
  Functional external parameters        .... 6
    Parameter  0 _c1        =  6.670000e-01 : c1 parameter        
    Parameter  1 _c2        =  8.000000e-01 : c2 parameter        
    Parameter  2 _d         =  1.240000e+00 : d parameter         
    Parameter  3 _k1        =  6.500000e-02 : k1 parameter        
    Parameter  4 _eta       =  1.000000e-03 : eta parameter       
    Parameter  5 _dp2       =  3.610000e-01 : dp2 parameter       
  Functional kind                       .... Correlation
  Functional name                       .... Re-regularized SCAN correlation by Furness et al
  Functional family                     .... MGGA
  Functional refs                              
    [ 0] J. W. Furness, A. D. Kaplan, J. Ning, J. P. Perdew, and J. Sun.,  J. Phys. Chem. Lett. 11, 8208-8215 (2020), doi: 10.1021/acs.jpclett.0c02405
    [ 1] J. W. Furness, A. D. Kaplan, J. Ning, J. P. Perdew, and J. Sun.,  J. Phys. Chem. Lett. 11, 9248-9248 (2020), doi: 10.1021/acs.jpclett.0c03077
  Functional external parameters        .... 1
    Parameter  0 _eta       =  1.000000e-03 : Regularization parameter
 Gradients option       PostSCFGGA      .... off
 RI-approximation to the Coulomb term is turned on
   Number of AuxJ basis functions       .... 622


General Settings:
 Integral files         IntName         .... sp_solv
 Hartree-Fock type      HFTyp           .... RHF
 Total Charge           Charge          ....    0
 Multiplicity           Mult            ....    1
 Number of Electrons    NEL             ....   74
 Basis Dimension        Dim             ....  260
 Nuclear Repulsion      ENuc            ....    514.4606913724 Eh

Convergence Acceleration:
 AO-DIIS                CNVDIIS         .... on
   Start iteration      DIISMaxIt       ....    12
   Startup error        DIISStart       ....  0.200000
   # of expansion vecs  DIISMaxEq       ....     5
   Bias factor          DIISBfac        ....   1.050
   Max. coefficient     DIISMaxC        ....  10.000
 MO-DIIS                CNVKDIIS        .... off
 Trust-Rad. Augm. Hess. CNVTRAH         .... auto
   Auto Start mean grad. ratio tolernc. ....  1.125000
   Auto Start start iteration           ....     1
   Auto Start num. interpolation iter.  ....    10
   Max. Number of Micro iterations      ....    24
   Max. Number of Macro iterations      .... Maxiter - #DIIS iter
   Number of Davidson start vectors     ....     2
   Converg. threshold    (grad. norm)   ....   3.330e-04
   Grad. Scal. Fac. for Micro threshold ....   0.100
   Minimum threshold for Micro iter.    ....   1.000e-02
   NR start threshold (gradient norm)   ....   1.000e-04
   Initial trust radius                 ....   0.400
   Minimum AH scaling param. (alpha)    ....   1.000
   Maximum AH scaling param. (alpha)    .... 1000.000
   Quad. conv. algorithm                .... NR
   White noise on init. David. guess    .... on
   Maximum white noise                  ....   0.010
   Pseudo random numbers                .... off
   Inactive MOs                         .... canonical
   Orbital update algorithm             .... Taylor
   Preconditioner                       .... Diag
   Full preconditioner red. dimension   ....   250
   COSX micro iterations for RIJONX calc.... off
 SOSCF                  CNVSOSCF        .... on
   Start iteration      SOSCFMaxIt      ....   150
   Startup grad/error   SOSCFStart      ....  0.003300
   Hessian update       SOSCFHessUp     .... L-BFGS
 Level Shifting         CNVShift        .... on
   Level shift para.    LevelShift      ....    0.2500
   Turn off err/grad.   ShiftErr        ....    0.0010
 Zerner damping         CNVZerner       .... off
 Static damping         CNVDamp         .... on
   Fraction old density DampFac         ....    0.7000
   Max. Damping (<1)    DampMax         ....    0.9800
   Min. Damping (>=0)   DampMin         ....    0.0000
   Turn off err/grad.   DampErr         ....    0.1000

SCF Procedure:
 Maximum # iterations   MaxIter         ....   125
 SCF integral mode      SCFMode         .... Direct
   Integral package                     .... SHARK and LIBINT hybrid scheme
 Reset frequency        DirectResetFreq ....    20
 Integral Threshold     Thresh          ....  1.000e-10 Eh
 Primitive CutOff       TCut            ....  1.000e-11 Eh

Convergence Tolerance:
 Convergence Check Mode ConvCheckMode   .... Total+1el-Energy
 Convergence forced     ConvForced      .... 0
 Energy Change          TolE            ....  1.000e-06 Eh
 1-El. energy change                    ....  1.000e-03 Eh
 Orbital Gradient       TolG            ....  3.330e-04
 Orbital Rotation angle TolX            ....  3.330e-04
 DIIS Error             TolErr          ....  1.000e-06

---------------------
INITIAL GUESS: MOREAD
---------------------
Guess MOs are being read from file: sp_solv.ges
Input Geometry matches current geometry (good)
Atom 0: N(Shells)= 9 and 6 - projection required
Input basis set needs projection
NBasis(read)= 164
NBasis(calc)= 260
Basis set overlap was calculated
Using GuessMode=FMatrix for the initial guess
C*T matrix was formed
Effective Fockian was calculated
Effective Fockian was diagonalized
Initial density was built
                      ------------------
                      INITIAL GUESS DONE (   0.1 sec)
                      ------------------
             **** ENERGY FILE WAS UPDATED (sp_solv.en.tmp) ****
Finished Guess after   0.3 sec
Maximum memory used throughout the entire GUESS-calculation: 19.4 MB

-------------------------------------------------------------------------------------------
                                      ORCA LEAN-SCF
                              memory conserving SCF solver
-------------------------------------------------------------------------------------------

--------------------
CPCM SOLVATION MODEL
--------------------
CPCM parameters:
  Epsilon                                         ...      78.3550
  Refrac                                          ...       1.3328
  Rsolv                                           ...       1.3000
  Surface type                                    ... GAUSSIAN VDW
  Discretization scheme                           ... Constant charge density
    Threshold for H atoms                         ...       5.0000 (charges/Ang^2)
    Threshold for non-H atoms                     ...       5.0000 (charges/Ang^2)
  Epsilon function type                           ...         CPCM
Solvent:                                          ... WATER
SMD-CDS solvent descriptors:
  Soln                                            ...       1.3328
  Soln25                                          ...       1.3323
  Sola                                            ...       0.0000
  Solb                                            ...       0.0000
  Solg                                            ...       0.0000
  Solc                                            ...       0.0000
  Solh                                            ...       0.0000
Radii:
  Scheme                                          ... Element-dependent radii
  Radius for C  used is    3.4960 Bohr (=   1.8500 Ang.)
  Radius for N  used is    3.5716 Bohr (=   1.8900 Ang.)
  Radius for H  used is    2.2677 Bohr (=   1.2000 Ang.)
Calculating surface                               ...        done! (  0.0s)
Cavity surface points                             ...         1688
Cavity Volume                                     ...    1078.3895
Cavity Surface-area                               ...     658.2507
Calculating surface distance matrix               ...        done! (  0.0s)
Performing Cholesky decomposition & store         ...        done! (  0.1s)
Overall time for CPCM initialization              ...                 0.1s

----------------------------------------D-I-I-S--------------------------------------------
Iteration    Energy (Eh)           Delta-E    RMSDP     MaxDP     DIISErr   Damp  Time(sec)
-------------------------------------------------------------------------------------------
               ***  Starting incremental Fock matrix formation  ***
    1    -421.2593871042663523     0.00e+00  5.99e-03  3.60e-01  4.40e-01  0.700   4.8
    2    -421.3214880458765492    -6.21e-02  4.68e-03  1.94e-01  3.09e-01  0.700   4.3
    3    -421.3654879692711575    -4.40e-02  3.42e-03  1.23e-01  2.17e-01  0.700   4.2
                               ***Turning on AO-DIIS***
    4    -421.3964194947595843    -3.09e-02  2.50e-03  9.12e-02  1.52e-01  0.700   4.3
    5    -421.4181319105468901    -2.17e-02  1.79e-03  6.55e-02  1.06e-01  0.700   4.2
    6    -421.4333730778014342    -1.52e-02  1.27e-03  4.65e-02  7.41e-02  0.700   4.1
    7    -421.4440622840066908    -1.07e-02  3.01e-03  1.10e-01  5.20e-02  0.000   4.0
                              *** Initializing SOSCF ***
---------------------------------------S-O-S-C-F--------------------------------------
Iteration    Energy (Eh)           Delta-E    RMSDP     MaxDP     MaxGrad    Time(sec)
--------------------------------------------------------------------------------------
    8    -421.4690667106360706    -2.50e-02  5.92e-05  4.90e-03  4.96e-04     4.2
               *** Restarting incremental Fock matrix formation ***
    9    -421.4690669353000203    -2.25e-07  2.86e-05  1.23e-03  2.23e-04     4.7
   10    -421.4690632580347938     3.68e-06  2.20e-05  1.44e-03  4.66e-04     3.6
   11    -421.4690683046835602    -5.05e-06  3.82e-06  2.91e-04  2.11e-05     3.6
                  *** Gradient check signals convergence ***

               *****************************************************
               *                     SUCCESS                       *
               *           SCF CONVERGED AFTER  11 CYCLES          *
               *****************************************************


SMD CDS free energy correction energy :                 1.39845     Kcal/mol
Total Energy after SMD CDS correction =              -421.466839738 Eh
             **** ENERGY FILE WAS UPDATED (sp_solv.en.tmp) ****

----------------
TOTAL SCF ENERGY
----------------

Total Energy       :       -421.46683973774736 Eh          -11468.69577 eV

Components:
Nuclear Repulsion  :        514.46069137236941 Eh           13999.18712 eV
Electronic Energy  :       -935.91681628800245 Eh          -25467.59132 eV
One Electron Energy:      -1588.22319507500060 Eh          -43217.75029 eV
Two Electron Energy:        652.30637878699815 Eh           17750.15897 eV
CPCM Dielectric    :         -0.01294338905052 Eh              -0.35221 eV
SMD CDS (Gcds)     :          0.00222856693619 Eh               0.06064 eV

Virial components:
Potential Energy   :       -841.21678743950326 Eh          -22890.67253 eV
Kinetic Energy     :        419.74994770175590 Eh           11421.97676 eV
Virial Ratio       :          2.00409027337679

DFT components:
N(Alpha)           :       36.999929358871 electrons
N(Beta)            :       36.999929358871 electrons
N(Total)           :       73.999858717741 electrons
E(X)               :      -59.236984776883 Eh       
E(C)               :       -2.368600474290 Eh       
E(XC)              :      -61.605585251174 Eh       

CPCM Solvation Model Properties:
Surface-charge          :         -0.04455701571264
Corrected charge        :         -0.00000000000000
Outlying charge corr.   :          0.00014219869601 Eh               0.00387 eV
Free-energy (cav+disp)  :          0.00222856693619 Eh               0.06064 eV

---------------
SCF CONVERGENCE
---------------

  Last Energy change         ...    5.0466e-06  Tolerance :   1.0000e-06
  Last MAX-Density change    ...    2.9062e-04  Tolerance :   1.0000e-05
  Last RMS-Density change    ...    3.8180e-06  Tolerance :   1.0000e-06
  Last DIIS Error            ...    4.9622e-04  Tolerance :   1.0000e-06
  Last Orbital Gradient      ...    2.1067e-05  Tolerance :   3.3300e-04
  Last Orbital Rotation      ...    1.1954e-04  Tolerance :   3.3300e-04


----------------
ORBITAL ENERGIES
----------------

  NO   OCC          E(Eh)            E(eV) 
   0   2.0000     -14.174483      -385.7073 
   1   2.0000     -14.170689      -385.6040 
   2   2.0000     -10.079968      -274.2899 
   3   2.0000     -10.071760      -274.0665 
   4   2.0000     -10.070331      -274.0276 
   5   2.0000     -10.069476      -274.0044 
   6   2.0000     -10.033402      -273.0227 
   7   2.0000     -10.025969      -272.8205 
   8   2.0000     -10.008393      -272.3422 
   9   2.0000     -10.008044      -272.3327 
  10   2.0000      -0.953071       -25.9344 
  11   2.0000      -0.879578       -23.9345 
  12   2.0000      -0.784146       -21.3377 
  13   2.0000      -0.741090       -20.1661 
  14   2.0000      -0.668663       -18.1953 
  15   2.0000      -0.644644       -17.5417 
  16   2.0000      -0.626233       -17.0407 
  17   2.0000      -0.594014       -16.1639 
  18   2.0000      -0.527434       -14.3522 
  19   2.0000      -0.490009       -13.3338 
  20   2.0000      -0.483030       -13.1439 
  21   2.0000      -0.440407       -11.9841 
  22   2.0000      -0.427389       -11.6298 
  23   2.0000      -0.415430       -11.3044 
  24   2.0000      -0.397518       -10.8170 
  25   2.0000      -0.386386       -10.5141 
  26   2.0000      -0.365709        -9.9515 
  27   2.0000      -0.352009        -9.5787 
  28   2.0000      -0.347281        -9.4500 
  29   2.0000      -0.329457        -8.9650 
  30   2.0000      -0.315793        -8.5932 
  31   2.0000      -0.300571        -8.1789 
  32   2.0000      -0.294379        -8.0105 
  33   2.0000      -0.291848        -7.9416 
  34   2.0000      -0.277461        -7.5501 
  35   2.0000      -0.244007        -6.6398 
  36   2.0000      -0.217173        -5.9096 
  37   0.0000      -0.076462        -2.0806 
  38   0.0000      -0.047634        -1.2962 
  39   0.0000       0.077275         2.1027 
  40   0.0000       0.089164         2.4263 
  41   0.0000       0.104492         2.8434 
  42   0.0000       0.117911         3.2085 
  43   0.0000       0.124921         3.3993 
  44   0.0000       0.136217         3.7066 
  45   0.0000       0.141894         3.8611 
  46   0.0000       0.144509         3.9323 
  47   0.0000       0.151264         4.1161 
*Only the first 10 virtual orbitals were printed.

                    ********************************
                    * MULLIKEN POPULATION ANALYSIS *
                    ********************************

-----------------------
MULLIKEN ATOMIC CHARGES
-----------------------
   0 C :   -0.551172
   1 C :    0.001487
   2 C :   -0.535233
   3 C :   -0.477919
   4 C :    0.357288
   5 C :   -0.221098
   6 N :   -0.201876
   7 C :   -0.084474
   8 C :   -0.071890
   9 N :   -0.236290
  10 H :    0.169767
  11 H :    0.161819
  12 H :    0.161167
  13 H :    0.167427
  14 H :    0.159382
  15 H :    0.162443
  16 H :    0.164205
  17 H :    0.185921
  18 H :    0.180772
  19 H :    0.171030
  20 H :    0.167747
  21 H :    0.169498
Sum of atomic charges:    0.0000000

--------------------------------
MULLIKEN REDUCED ORBITAL CHARGES
--------------------------------
  0 C s       :     3.357654  s :     3.357654
      pz      :     1.063271  p :     3.166491
      px      :     1.110478
      py      :     0.992742
      dz2     :     0.003577  d :     0.027027
      dxz     :     0.006789
      dyz     :     0.006774
      dx2y2   :     0.007590
      dxy     :     0.002297

  1 C s       :     3.079778  s :     3.079778
      pz      :     0.938595  p :     2.872155
      px      :     0.927973
      py      :     1.005587
      dz2     :     0.006711  d :     0.046581
      dxz     :     0.011345
      dyz     :     0.011151
      dx2y2   :     0.011147
      dxy     :     0.006227

  2 C s       :     3.361310  s :     3.361310
      pz      :     1.091022  p :     3.146916
      px      :     0.955997
      py      :     1.099897
      dz2     :     0.001958  d :     0.027008
      dxz     :     0.007591
      dyz     :     0.006826
      dx2y2   :     0.007099
      dxy     :     0.003534

  3 C s       :     3.378043  s :     3.378043
      pz      :     0.983868  p :     3.063979
      px      :     0.927776
      py      :     1.152335
      dz2     :     0.004935  d :     0.035897
      dxz     :     0.008135
      dyz     :     0.008859
      dx2y2   :     0.010652
      dxy     :     0.003317

  4 C s       :     3.122148  s :     3.122148
      pz      :     0.831395  p :     2.457036
      px      :     0.792735
      py      :     0.832906
      dz2     :     0.005468  d :     0.063529
      dxz     :     0.008244
      dyz     :     0.009595
      dx2y2   :     0.020621
      dxy     :     0.019601

  5 C s       :     3.298452  s :     3.298452
      pz      :     0.917339  p :     2.869571
      px      :     0.923719
      py      :     1.028512
      dz2     :     0.005139  d :     0.053076
      dxz     :     0.009048
      dyz     :     0.004954
      dx2y2   :     0.014648
      dxy     :     0.019287

  6 N s       :     3.459228  s :     3.459228
      pz      :     1.191655  p :     3.674732
      px      :     1.099282
      py      :     1.383796
      dz2     :     0.010035  d :     0.067916
      dxz     :     0.009657
      dyz     :     0.011903
      dx2y2   :     0.019119
      dxy     :     0.017202

  7 C s       :     3.240631  s :     3.240631
      pz      :     0.936232  p :     2.790999
      px      :     0.989656
      py      :     0.865111
      dz2     :     0.004449  d :     0.052844
      dxz     :     0.004843
      dyz     :     0.009113
      dx2y2   :     0.018874
      dxy     :     0.015566

  8 C s       :     3.229344  s :     3.229344
      pz      :     0.905570  p :     2.789100
      px      :     0.896135
      py      :     0.987394
      dz2     :     0.005476  d :     0.053446
      dxz     :     0.009260
      dyz     :     0.005088
      dx2y2   :     0.014717
      dxy     :     0.018905

  9 N s       :     3.456466  s :     3.456466
      pz      :     1.220448  p :     3.710379
      px      :     1.104970
      py      :     1.384960
      dz2     :     0.009240  d :     0.069445
      dxz     :     0.010129
      dyz     :     0.012835
      dx2y2   :     0.020512
      dxy     :     0.016729

 10 H s       :     0.812032  s :     0.812032
      pz      :     0.005016  p :     0.018201
      px      :     0.004083
      py      :     0.009102

 11 H s       :     0.819763  s :     0.819763
      pz      :     0.004602  p :     0.018417
      px      :     0.010118
      py      :     0.003697

 12 H s       :     0.820550  s :     0.820550
      pz      :     0.008057  p :     0.018284
      px      :     0.006524
      py      :     0.003703

 13 H s       :     0.815017  s :     0.815017
      pz      :     0.005066  p :     0.017555
      px      :     0.003691
      py      :     0.008799

 14 H s       :     0.822334  s :     0.822334
      pz      :     0.006600  p :     0.018285
      px      :     0.003586
      py      :     0.008099

 15 H s       :     0.819244  s :     0.819244
      pz      :     0.007800  p :     0.018312
      px      :     0.006681
      py      :     0.003831

 16 H s       :     0.817554  s :     0.817554
      pz      :     0.005474  p :     0.018241
      px      :     0.004112
      py      :     0.008655

 17 H s       :     0.796248  s :     0.796248
      pz      :     0.004985  p :     0.017832
      px      :     0.003419
      py      :     0.009427

 18 H s       :     0.801175  s :     0.801175
      pz      :     0.006943  p :     0.018053
      px      :     0.003513
      py      :     0.007598

 19 H s       :     0.809637  s :     0.809637
      pz      :     0.003412  p :     0.019333
      px      :     0.005134
      py      :     0.010786

 20 H s       :     0.812814  s :     0.812814
      pz      :     0.004589  p :     0.019439
      px      :     0.012309
      py      :     0.002541

 21 H s       :     0.811181  s :     0.811181
      pz      :     0.003410  p :     0.019321
      px      :     0.005162
      py      :     0.010750


------------------------
MULLIKEN OVERLAP CHARGES
------------------------
B(  0-C ,  1-C ) :   0.4271 B(  0-C ,  2-C ) :  -0.1908 B(  0-C ,  3-C ) :  -0.1862 
B(  0-C , 10-H ) :   0.8694 B(  0-C , 11-H ) :   0.8001 B(  0-C , 12-H ) :   0.7918 
B(  0-C , 13-H ) :  -0.0623 B(  1-C ,  2-C ) :   0.4569 B(  1-C ,  3-C ) :   0.1865 
B(  1-C ,  4-C ) :   0.1444 B(  1-C , 10-H ) :  -0.1141 B(  1-C , 11-H ) :  -0.0631 
B(  1-C , 12-H ) :  -0.0763 B(  1-C , 13-H ) :   0.8595 B(  1-C , 14-H ) :  -0.0830 
B(  1-C , 15-H ) :  -0.0894 B(  1-C , 16-H ) :  -0.0981 B(  1-C , 17-H ) :  -0.0833 
B(  1-C , 18-H ) :  -0.0937 B(  2-C ,  3-C ) :  -0.1936 B(  2-C , 14-H ) :   0.8190 
B(  2-C , 15-H ) :   0.8170 B(  2-C , 16-H ) :   0.8778 B(  3-C ,  4-C ) :  -0.3853 
B(  3-C ,  5-C ) :  -0.2006 B(  3-C ,  9-N ) :   0.1785 B(  3-C , 11-H ) :  -0.0544 
B(  3-C , 17-H ) :   0.9879 B(  3-C , 18-H ) :   0.8052 B(  4-C ,  5-C ) :   0.7124 
B(  4-C ,  6-N ) :  -0.0958 B(  4-C ,  7-C ) :  -0.0922 B(  4-C ,  8-C ) :  -0.1947 
B(  4-C ,  9-N ) :   0.3486 B(  4-C , 13-H ) :  -0.0517 B(  4-C , 17-H ) :  -0.1975 
B(  4-C , 18-H ) :  -0.0501 B(  4-C , 19-H ) :  -0.1376 B(  5-C ,  6-N ) :   0.9494 
B(  5-C ,  7-C ) :  -0.2109 B(  5-C ,  8-C ) :  -0.1291 B(  5-C , 19-H ) :   0.8840 
B(  6-N ,  7-C ) :   0.8894 B(  6-N ,  8-C ) :  -0.1360 B(  6-N , 19-H ) :  -0.0908 
B(  6-N , 20-H ) :  -0.0985 B(  7-C ,  8-C ) :   0.7931 B(  7-C ,  9-N ) :  -0.1454 
B(  7-C , 20-H ) :   0.8563 B(  7-C , 21-H ) :  -0.0986 B(  8-C ,  9-N ) :   0.9149 
B(  8-C , 20-H ) :  -0.0981 B(  8-C , 21-H ) :   0.8457 B(  9-N , 21-H ) :  -0.0930 



                     *******************************
                     * LOEWDIN POPULATION ANALYSIS *
                     *******************************

----------------------
LOEWDIN ATOMIC CHARGES
----------------------
   0 C :   -0.418146
   1 C :   -0.226240
   2 C :   -0.420248
   3 C :   -0.247440
   4 C :    0.150734
   5 C :    0.107716
   6 N :   -0.605071
   7 C :    0.086984
   8 C :    0.101605
   9 N :   -0.603514
  10 H :    0.158662
  11 H :    0.159416
  12 H :    0.157674
  13 H :    0.163228
  14 H :    0.156751
  15 H :    0.157499
  16 H :    0.157993
  17 H :    0.182242
  18 H :    0.181649
  19 H :    0.201439
  20 H :    0.198363
  21 H :    0.198706

-------------------------------
LOEWDIN REDUCED ORBITAL CHARGES
-------------------------------
  0 C s       :     2.968308  s :     2.968308
      pz      :     1.123441  p :     3.386704
      px      :     1.152700
      py      :     1.110562
      dz2     :     0.007466  d :     0.063134
      dxz     :     0.016260
      dyz     :     0.016450
      dx2y2   :     0.018240
      dxy     :     0.004718

  1 C s       :     2.906590  s :     2.906590
      pz      :     1.066307  p :     3.224029
      px      :     1.051980
      py      :     1.105742
      dz2     :     0.012474  d :     0.095621
      dxz     :     0.023723
      dyz     :     0.024304
      dx2y2   :     0.024099
      dxy     :     0.011021

  2 C s       :     2.971085  s :     2.971085
      pz      :     1.149247  p :     3.386023
      px      :     1.080117
      py      :     1.156658
      dz2     :     0.004306  d :     0.063140
      dxz     :     0.017617
      dyz     :     0.016956
      dx2y2   :     0.017107
      dxy     :     0.007154

  3 C s       :     2.918107  s :     2.918107
      pz      :     1.093152  p :     3.252480
      px      :     1.015219
      py      :     1.144109
      dz2     :     0.009290  d :     0.076853
      dxz     :     0.017729
      dyz     :     0.020130
      dx2y2   :     0.023270
      dxy     :     0.006433

  4 C s       :     2.797437  s :     2.797437
      pz      :     0.870739  p :     2.915003
      px      :     1.008060
      py      :     1.036204
      dz2     :     0.011458  d :     0.136826
      dxz     :     0.014571
      dyz     :     0.019920
      dx2y2   :     0.049030
      dxy     :     0.041847

  5 C s       :     2.829335  s :     2.829335
      pz      :     0.895002  p :     2.943107
      px      :     1.017801
      py      :     1.030304
      dz2     :     0.010323  d :     0.119843
      dxz     :     0.019195
      dyz     :     0.010049
      dx2y2   :     0.033191
      dxy     :     0.047085

  6 N s       :     3.238508  s :     3.238508
      pz      :     1.164740  p :     3.889542
      px      :     1.274645
      py      :     1.450157
      dz2     :     0.053552  d :     0.477021
      dxz     :     0.087402
      dyz     :     0.056504
      dx2y2   :     0.133747
      dxy     :     0.145817

  7 C s       :     2.836893  s :     2.836893
      pz      :     0.905479  p :     2.957211
      px      :     1.029623
      py      :     1.022109
      dz2     :     0.009141  d :     0.118912
      dxz     :     0.008637
      dyz     :     0.019619
      dx2y2   :     0.046460
      dxy     :     0.035055

  8 C s       :     2.834476  s :     2.834476
      pz      :     0.891207  p :     2.943431
      px      :     1.017559
      py      :     1.034665
      dz2     :     0.011004  d :     0.120488
      dxz     :     0.019764
      dyz     :     0.010244
      dx2y2   :     0.033044
      dxy     :     0.046432

  9 N s       :     3.229850  s :     3.229850
      pz      :     1.184773  p :     3.892401
      px      :     1.263010
      py      :     1.444618
      dz2     :     0.054946  d :     0.481263
      dxz     :     0.088405
      dyz     :     0.054041
      dx2y2   :     0.138064
      dxy     :     0.145808

 10 H s       :     0.797296  s :     0.797296
      pz      :     0.011984  p :     0.044042
      px      :     0.009306
      py      :     0.022753

 11 H s       :     0.796129  s :     0.796129
      pz      :     0.010748  p :     0.044456
      px      :     0.025313
      py      :     0.008395

 12 H s       :     0.798284  s :     0.798284
      pz      :     0.019792  p :     0.044041
      px      :     0.015789
      py      :     0.008461

 13 H s       :     0.793325  s :     0.793325
      pz      :     0.012542  p :     0.043447
      px      :     0.009032
      py      :     0.021873

 14 H s       :     0.799331  s :     0.799331
      pz      :     0.015797  p :     0.043919
      px      :     0.008183
      py      :     0.019939

 15 H s       :     0.798494  s :     0.798494
      pz      :     0.019342  p :     0.044007
      px      :     0.016130
      py      :     0.008536

 16 H s       :     0.797968  s :     0.797968
      pz      :     0.012936  p :     0.044039
      px      :     0.009528
      py      :     0.021574

 17 H s       :     0.774203  s :     0.774203
      pz      :     0.012125  p :     0.043555
      px      :     0.007413
      py      :     0.024017

 18 H s       :     0.773843  s :     0.773843
      pz      :     0.017069  p :     0.044508
      px      :     0.008260
      py      :     0.019178

 19 H s       :     0.755853  s :     0.755853
      pz      :     0.007565  p :     0.042707
      px      :     0.009956
      py      :     0.025187

 20 H s       :     0.758813  s :     0.758813
      pz      :     0.010306  p :     0.042825
      px      :     0.026801
      py      :     0.005717

 21 H s       :     0.758746  s :     0.758746
      pz      :     0.007528  p :     0.042548
      px      :     0.010036
      py      :     0.024984


---------------------------------
LOEWDIN BOND ORDERS (THRESH 0.050000)
---------------------------------
B(  0-C ,  1-C ) :   1.1092 B(  0-C ,  2-C ) :   0.0709 B(  0-C ,  3-C ) :   0.0643 
B(  0-C , 10-H ) :   0.9212 B(  0-C , 11-H ) :   0.9148 B(  0-C , 12-H ) :   0.9225 
B(  1-C ,  2-C ) :   1.1123 B(  1-C ,  3-C ) :   1.0410 B(  1-C ,  4-C ) :   0.0726 
B(  1-C , 13-H ) :   0.8558 B(  2-C ,  3-C ) :   0.0756 B(  2-C , 14-H ) :   0.9241 
B(  2-C , 15-H ) :   0.9215 B(  2-C , 16-H ) :   0.9206 B(  3-C ,  4-C ) :   1.0058 
B(  3-C ,  5-C ) :   0.0848 B(  3-C ,  9-N ) :   0.1933 B(  3-C , 17-H ) :   0.8635 
B(  3-C , 18-H ) :   0.8604 B(  4-C ,  5-C ) :   1.2001 B(  4-C ,  6-N ) :   0.1993 
B(  4-C ,  7-C ) :   0.1263 B(  4-C ,  8-C ) :   0.1104 B(  4-C ,  9-N ) :   1.7296 
B(  4-C , 19-H ) :   0.0528 B(  5-C ,  6-N ) :   1.8432 B(  5-C ,  7-C ) :   0.1133 
B(  5-C ,  8-C ) :   0.1335 B(  5-C ,  9-N ) :   0.1928 B(  5-C , 19-H ) :   0.7915 
B(  6-N ,  7-C ) :   1.7984 B(  6-N ,  8-C ) :   0.2060 B(  6-N ,  9-N ) :   0.1621 
B(  6-N , 19-H ) :   0.1149 B(  6-N , 20-H ) :   0.1143 B(  7-C ,  8-C ) :   1.2961 
B(  7-C ,  9-N ) :   0.2030 B(  7-C , 20-H ) :   0.8011 B(  7-C , 21-H ) :   0.0549 
B(  8-C ,  9-N ) :   1.7978 B(  8-C , 20-H ) :   0.0550 B(  8-C , 21-H ) :   0.7990 
B(  9-N , 21-H ) :   0.1154 

------------------------------------------
LOEWDIN REDUCED ORBITAL POPULATIONS PER MO
-------------------------------------------
THRESHOLD FOR PRINTING IS 0.1%%
                      0         1         2         3         4         5   
                 -14.17448 -14.17069 -10.07997 -10.07176 -10.07033 -10.06948
                   2.00000   2.00000   2.00000   2.00000   2.00000   2.00000
                  --------  --------  --------  --------  --------  --------
 4 C  s               0.0       0.0      99.2       0.0       0.1       0.0
 5 C  s               0.0       0.0       0.1       0.0      99.2       0.0
 6 N  s              99.8       0.0       0.0       0.0       0.0       0.0
 6 N  px              0.0       0.0       0.0       0.0       0.1       0.0
 6 N  py              0.0       0.0       0.0       0.0       0.0       0.1
 6 N  dx2y2           0.0       0.0       0.0       0.0       0.2       0.1
 6 N  dxy             0.0       0.0       0.0       0.0       0.0       0.2
 7 C  s               0.0       0.0       0.0       1.0       0.0      98.2
 8 C  s               0.0       0.0       0.0      98.2       0.0       1.1
 9 N  s               0.0      99.8       0.0       0.0       0.0       0.0
 9 N  px              0.0       0.0       0.0       0.1       0.0       0.0
 9 N  py              0.0       0.0       0.1       0.0       0.0       0.0
 9 N  dx2y2           0.0       0.0       0.1       0.2       0.0       0.0
 9 N  dxy             0.0       0.0       0.2       0.0       0.0       0.0

                      6         7         8         9        10        11   
                 -10.03340 -10.02597 -10.00839 -10.00804  -0.95307  -0.87958
                   2.00000   2.00000   2.00000   2.00000   2.00000   2.00000
                  --------  --------  --------  --------  --------  --------
 0 C  s               0.0       0.0       0.0      99.7       0.0       0.0
 1 C  s              99.6       0.0       0.0       0.0       0.1       0.1
 1 C  px              0.0       0.0       0.1       0.0       0.1       0.1
 2 C  s               0.0       0.0      99.7       0.0       0.0       0.0
 3 C  s               0.0      99.7       0.0       0.0       0.8       0.7
 3 C  px              0.0       0.0       0.0       0.0       0.9       0.4
 4 C  s               0.0       0.0       0.0       0.0       9.3       4.4
 4 C  pz              0.0       0.0       0.0       0.0       0.2       0.3
 4 C  px              0.0       0.1       0.0       0.0       3.0       0.4
 4 C  py              0.0       0.0       0.0       0.0       0.6       6.3
 4 C  dz2             0.0       0.0       0.0       0.0       0.1       0.1
 4 C  dxy             0.0       0.0       0.0       0.0       0.1       0.4
 5 C  s               0.0       0.0       0.0       0.0       9.1       3.7
 5 C  pz              0.0       0.0       0.0       0.0       0.0       1.1
 5 C  px              0.0       0.0       0.0       0.0       2.3       6.1
 5 C  py              0.0       0.0       0.0       0.0       1.8       0.7
 5 C  dx2y2           0.0       0.0       0.0       0.0       0.1       0.4
 6 N  s               0.0       0.0       0.0       0.0      17.7      24.1
 6 N  pz              0.0       0.0       0.0       0.0       0.4       0.2
 6 N  px              0.0       0.0       0.0       0.0       0.6       0.3
 6 N  py              0.0       0.0       0.0       0.0       1.9       1.1
 6 N  dz2             0.0       0.0       0.0       0.0       0.4       0.1
 6 N  dxz             0.0       0.0       0.0       0.0       0.2       0.0
 6 N  dyz             0.0       0.0       0.0       0.0       0.1       0.0
 6 N  dxy             0.0       0.0       0.0       0.0       0.0       0.3
 7 C  s               0.0       0.0       0.0       0.0       8.8       4.0
 7 C  pz              0.0       0.0       0.0       0.0       0.2       0.2
 7 C  px              0.0       0.0       0.0       0.0       3.3       0.6
 7 C  py              0.0       0.0       0.0       0.0       0.6       6.4
 7 C  dz2             0.0       0.0       0.0       0.0       0.1       0.1
 7 C  dxy             0.0       0.0       0.0       0.0       0.1       0.4
 8 C  s               0.0       0.0       0.0       0.0       8.8       3.3
 8 C  pz              0.0       0.0       0.0       0.0       0.0       1.0
 8 C  px              0.0       0.0       0.0       0.0       2.3       5.5
 8 C  py              0.0       0.0       0.0       0.0       1.8       0.7
 8 C  dx2y2           0.0       0.0       0.0       0.0       0.1       0.4
 9 N  s               0.0       0.0       0.0       0.0      17.8      22.3
 9 N  pz              0.0       0.0       0.0       0.0       0.4       0.2
 9 N  px              0.0       0.0       0.0       0.0       0.5       0.2
 9 N  py              0.0       0.0       0.0       0.0       2.0       1.1
 9 N  dz2             0.0       0.0       0.0       0.0       0.4       0.1
 9 N  dxz             0.0       0.0       0.0       0.0       0.2       0.0
 9 N  dyz             0.0       0.0       0.0       0.0       0.1       0.0
 9 N  dxy             0.0       0.0       0.0       0.0       0.0       0.3
19 H  s               0.0       0.0       0.0       0.0       0.5       0.3
20 H  s               0.0       0.0       0.0       0.0       0.5       0.3
21 H  s               0.0       0.0       0.0       0.0       0.5       0.3

                     12        13        14        15        16        17   
                  -0.78415  -0.74109  -0.66866  -0.64464  -0.62623  -0.59401
                   2.00000   2.00000   2.00000   2.00000   2.00000   2.00000
                  --------  --------  --------  --------  --------  --------
 0 C  s               6.4       6.0       4.6      24.4       0.0       1.1
 0 C  pz              1.2       0.4       0.0       0.4       0.0       0.4
 0 C  px              0.0       0.1       0.3       0.3       0.0       0.1
 0 C  py              1.2       0.6       0.0       0.3       0.0       0.1
 1 C  s              18.1      10.0       0.6       0.0       0.0       0.9
 1 C  pz              0.5       0.1       2.9       6.7       0.0       1.8
 1 C  px              0.2       1.2       4.8       4.9       0.3       2.5
 1 C  py              0.3       0.3       0.1       4.4       0.1       0.0
 1 C  dxz             0.0       0.0       0.1       0.0       0.0       0.1
 1 C  dyz             0.0       0.0       0.0       0.1       0.0       0.0
 1 C  dx2y2           0.0       0.0       0.0       0.2       0.0       0.0
 2 C  s               6.0       7.1       5.8      20.4       0.4       3.6
 2 C  pz              0.2       0.2       0.2       0.4       0.0       0.1
 2 C  px              2.1       0.9       0.1       0.3       0.0       1.2
 2 C  py              0.1       0.0       0.0       0.2       0.0       0.0
 3 C  s              16.1       0.0      14.7       0.2       0.0       7.0
 3 C  pz              1.7       0.4       0.4       0.5       0.1       0.3
 3 C  px              0.1       4.5       1.0       0.3       0.0       2.8
 3 C  py              0.0       0.0       0.0       0.3       1.1       0.0
 4 C  s               6.3       6.9       1.8       0.0       0.1       6.2
 4 C  pz              0.0       0.0       1.0       0.1       1.1       0.6
 4 C  px              4.3       0.2       6.9       0.0       0.1       2.4
 4 C  py              1.0       0.9       0.1       0.1      15.2       0.9
 4 C  dx2y2           0.0       0.0       0.1       0.0       0.0       0.2
 4 C  dxy             0.0       0.0       0.0       0.0       0.3       0.0
 5 C  s               3.0       7.8       2.4       0.1      10.2       0.3
 5 C  pz              0.1       0.1       0.5       0.0       0.2       1.9
 5 C  px              1.0       0.5       1.6       0.0       3.0       5.9
 5 C  py              0.2       0.2       0.8       0.0       0.3       4.6
 5 C  dx2y2           0.0       0.0       0.0       0.0       0.0       0.3
 6 N  s               0.0       0.0       0.4       0.0       3.7       3.7
 6 N  pz              0.0       0.2       0.2       0.0       0.4       0.1
 6 N  px              1.2       5.6       6.5       0.1       6.9       2.0
 6 N  py              0.5       2.1       2.8       0.0       1.3       3.0
 6 N  dz2             0.0       0.0       0.1       0.0       0.2       0.2
 6 N  dxz             0.1       0.3       0.1       0.0       0.2       0.1
 6 N  dx2y2           0.4       1.2       0.5       0.0       0.2       0.0
 6 N  dxy             0.1       0.5       0.4       0.0       0.1       0.0
 7 C  s               1.9       8.5       8.7       0.0       0.1       4.9
 7 C  pz              0.1       0.1       0.0       0.0       1.1       0.0
 7 C  px              0.1       0.2       0.6       0.0       0.1       0.9
 7 C  py              0.6       1.0       0.3       0.0      13.7       0.9
 7 C  dxy             0.0       0.0       0.0       0.0       0.3       0.0
 8 C  s               4.4       8.2       0.6       0.0      11.2       0.7
 8 C  pz              0.0       0.2       1.0       0.0       0.2       1.6
 8 C  px              0.2       0.8       4.1       0.0       2.5       4.1
 8 C  py              0.1       0.3       1.3       0.0       0.3       4.8
 8 C  dx2y2           0.0       0.0       0.1       0.0       0.0       0.1
 9 N  s               0.9       0.0       1.8       0.0       3.7       1.6
 9 N  pz              0.2       0.2       0.1       0.0       0.5       0.0
 9 N  px              3.8       5.0       0.8       0.1       8.3       4.8
 9 N  py              0.9       1.9       0.2       0.0       1.5       6.2
 9 N  dz2             0.1       0.0       0.2       0.0       0.2       0.0
 9 N  dxz             0.1       0.3       0.1       0.0       0.2       0.0
 9 N  dyz             0.0       0.0       0.0       0.0       0.0       0.1
 9 N  dx2y2           0.3       1.3       0.3       0.0       0.2       0.8
 9 N  dxy             0.5       0.4       0.2       0.0       0.1       0.0
10 H  s               0.8       0.9       0.9       5.5       0.0       0.3
10 H  pz              0.0       0.0       0.0       0.1       0.0       0.0
10 H  py              0.1       0.1       0.1       0.3       0.0       0.0
11 H  s               0.8       0.8       0.8       6.3       0.0       0.3
11 H  px              0.1       0.1       0.1       0.5       0.0       0.0
12 H  s               0.7       0.9       1.1       5.5       0.0       0.6
12 H  pz              0.0       0.1       0.1       0.3       0.0       0.0
12 H  px              0.0       0.0       0.0       0.2       0.0       0.0
13 H  s               2.2       1.3       0.1       0.0       0.1       0.2
13 H  py              0.2       0.1       0.0       0.0       0.0       0.0
14 H  s               0.7       1.0       1.0       5.4       0.1       0.9
14 H  pz              0.0       0.0       0.0       0.2       0.0       0.0
14 H  py              0.0       0.0       0.1       0.3       0.0       0.0
15 H  s               0.7       1.0       1.4       4.5       0.1       1.5
15 H  pz              0.0       0.1       0.1       0.2       0.0       0.1
15 H  px              0.0       0.0       0.1       0.1       0.0       0.0
16 H  s               0.7       1.0       1.1       4.6       0.1       1.0
16 H  py              0.0       0.1       0.1       0.3       0.0       0.1
17 H  s               2.0       0.0       3.0       0.0       0.1       2.4
17 H  py              0.1       0.0       0.2       0.0       0.0       0.2
18 H  s               2.0       0.0       3.3       0.2       0.1       2.2
18 H  pz              0.1       0.0       0.1       0.0       0.0       0.1
18 H  py              0.1       0.0       0.2       0.0       0.0       0.1
19 H  s               0.5       1.3       0.5       0.0       4.2       0.0
19 H  py              0.0       0.1       0.0       0.0       0.3       0.0
20 H  s               0.2       1.5       2.6       0.0       0.0       2.4
20 H  px              0.0       0.1       0.2       0.0       0.0       0.2
21 H  s               0.6       1.4       0.1       0.0       4.4       0.6
21 H  py              0.0       0.1       0.0       0.0       0.3       0.0

                     18        19        20        21        22        23   
                  -0.52743  -0.49001  -0.48303  -0.44041  -0.42739  -0.41543
                   2.00000   2.00000   2.00000   2.00000   2.00000   2.00000
                  --------  --------  --------  --------  --------  --------
 0 C  s               3.7       0.3       0.1       0.0       0.4       0.1
 0 C  pz              1.3       0.7       0.0       0.8      11.1       2.5
 0 C  px              0.1       0.0       0.0       0.3       0.8       9.9
 0 C  py              6.8       0.5       0.5       1.4       0.5       0.4
 0 C  dyz             0.2       0.0       0.0       0.0       0.0       0.0
 1 C  s              13.0       0.9       0.2       0.0       0.2       0.7
 1 C  pz              1.1       0.0       1.3       4.2       2.8       0.1
 1 C  px              1.0       0.0       0.0       0.3       0.5       6.0
 1 C  py              5.4       0.0       0.7       1.7      11.5       2.9
 2 C  s               3.3       0.2       0.0       0.2       0.0       0.3
 2 C  pz              1.3       0.1       0.4       1.2       1.4       3.1
 2 C  px              6.1       0.6       0.0       1.9       0.0       3.0
 2 C  py              0.4       0.0       0.1       1.3       6.2       5.1
 2 C  dx2y2           0.1       0.0       0.0       0.0       0.0       0.1
 3 C  s               2.4       0.1       0.8       0.2       0.3       0.1
 3 C  pz              6.6       0.1       1.0       1.8       8.1       1.9
 3 C  px              1.5       0.4       1.8       9.4       0.8       0.0
 3 C  py              1.8       3.3       0.0       0.0       8.1       0.7
 3 C  dxz             0.1       0.0       0.0       0.1       0.0       0.0
 4 C  s               0.1       0.1       0.1       2.2       0.2       0.3
 4 C  pz              1.8       0.2       0.3       0.1       6.9       5.4
 4 C  px              1.9       0.4       1.6       4.3       0.1       2.8
 4 C  py              0.4      12.7       1.3       0.3       0.4       1.2
 4 C  dx2y2           0.0       0.0       0.2       0.1       0.0       0.0
 4 C  dxy             0.0       0.0       0.1       0.0       0.1       0.1
 5 C  s               0.0       0.0       1.3       1.6       0.1       0.1
 5 C  pz              0.1       2.0       0.3       0.1       1.1       5.8
 5 C  px              0.7       8.6       1.8       1.8       0.6       0.7
 5 C  py              1.3       1.5      11.7       5.3       2.2       1.1
 5 C  dx2y2           0.0       0.0       0.0       0.2       0.0       0.0
 5 C  dxy             0.0       0.0       0.0       0.1       0.0       0.0
 6 N  s               0.3       0.1       1.2       1.5       0.0       0.0
 6 N  pz              0.0       0.4       1.2       0.0       1.7       4.2
 6 N  px              0.6      12.0       1.7       0.1       0.0       0.8
 6 N  py              1.0       3.2       5.4       0.2       0.5       0.1
 6 N  dz2             0.0       0.0       0.2       0.3       0.0       0.2
 6 N  dxz             0.0       0.1       0.0       0.1       0.0       0.2
 6 N  dyz             0.0       0.0       0.5       0.0       0.1       0.1
 6 N  dx2y2           0.0       0.4       1.1       0.1       0.1       0.2
 6 N  dxy             0.1       0.1       2.6       1.1       0.2       0.0
 7 C  s               0.1       0.1       1.6       1.6       0.1       0.1
 7 C  pz              0.0       0.9       2.5       0.1       1.7       1.9
 7 C  px              0.1       0.0      15.9       3.0       0.0       1.6
 7 C  py              0.5      14.4       0.5       0.5       0.3       1.1
 7 C  dx2y2           0.0       0.0       0.0       0.2       0.0       0.0
 7 C  dxy             0.0       0.1       0.0       0.1       0.0       0.1
 8 C  s               0.6       0.1       0.4       1.8       0.1       0.1
 8 C  pz              0.0       2.5       0.2       0.0       0.8       4.6
 8 C  px              0.8       9.8       0.7       4.1       0.0       2.3
 8 C  py              0.8       3.1       6.6      10.1       3.5       2.6
 8 C  dx2y2           0.0       0.1       0.1       0.2       0.0       0.0
 8 C  dxy             0.0       0.0       0.0       0.1       0.0       0.1
 9 N  s               0.1       0.1       2.9       0.9       0.1       0.1
 9 N  pz              0.2       0.2       0.7       0.1       3.1       7.4
 9 N  px              0.1      11.0       2.5       1.2       0.2       0.3
 9 N  py              0.5       4.5       2.7       0.5       0.9       0.3
 9 N  dz2             0.1       0.0       0.0       0.4       0.0       0.4
 9 N  dxz             0.1       0.1       0.1       0.0       0.0       0.0
 9 N  dyz             0.1       0.0       0.2       0.0       0.2       0.3
 9 N  dx2y2           0.5       0.4       0.1       0.2       0.0       0.1
 9 N  dxy             0.2       0.2       0.9       2.0       0.4       0.1
10 H  s               3.4       0.2       0.2       0.9       0.5       0.2
10 H  py              0.1       0.0       0.0       0.0       0.0       0.0
11 H  s               1.7       0.2       0.0       0.2       0.2       5.5
11 H  px              0.1       0.0       0.0       0.0       0.0       0.1
12 H  s               1.9       0.3       0.0       0.0       4.8       0.1
12 H  px              0.0       0.0       0.0       0.0       0.1       0.0
13 H  s               9.4       0.1       0.8       1.2       3.2       0.4
13 H  pz              0.2       0.0       0.0       0.0       0.0       0.0
13 H  py              0.5       0.0       0.0       0.1       0.0       0.0
14 H  s               1.6       0.2       0.0       0.2       0.5       4.4
15 H  s               1.8       0.2       0.1       1.6       0.5       0.1
15 H  pz              0.1       0.0       0.0       0.0       0.0       0.0
16 H  s               3.1       0.1       0.0       0.1       2.5       0.0
16 H  py              0.1       0.0       0.0       0.0       0.0       0.0
17 H  s               3.2       0.4       0.6       1.2       0.2       0.5
17 H  py              0.2       0.0       0.0       0.1       0.0       0.0
18 H  s               1.4       0.8       0.9       0.9       6.6       0.0
18 H  py              0.1       0.0       0.0       0.0       0.1       0.0
19 H  s               0.1       0.0       7.0       6.2       0.2       0.8
19 H  py              0.0       0.0       0.2       0.2       0.0       0.0
20 H  s               0.0       0.0       9.1       4.0       0.0       0.1
20 H  px              0.0       0.0       0.4       0.1       0.0       0.0
20 H  py              0.0       0.1       0.0       0.0       0.0       0.0
21 H  s               1.0       0.0       2.0      10.3       1.3       2.9
21 H  py              0.1       0.0       0.1       0.3       0.0       0.1

                     24        25        26        27        28        29   
                  -0.39752  -0.38639  -0.36571  -0.35201  -0.34728  -0.32946
                   2.00000   2.00000   2.00000   2.00000   2.00000   2.00000
                  --------  --------  --------  --------  --------  --------
 0 C  s               0.2       0.0       0.0       0.0       0.0       0.0
 0 C  pz              1.3       1.4       0.1       1.8       9.8       4.1
 0 C  px              1.4      11.1       3.9       3.0       0.3      13.9
 0 C  py              3.1       0.3       6.1       2.5      14.0       0.7
 0 C  dxz             0.0       0.0       0.0       0.0       0.0       0.3
 0 C  dx2y2           0.0       0.0       0.0       0.0       0.1       0.0
 1 C  pz              4.7       0.4       2.9       0.6       0.4       0.2
 1 C  px              0.1       5.0       2.1       0.5       0.3       0.0
 1 C  py              2.0       0.1       0.7       0.1       0.3       0.0
 1 C  dz2             0.0       0.0       0.0       0.0       0.2       0.0
 1 C  dxy             0.0       0.0       0.0       0.1       0.1       0.0
 2 C  s               0.0       0.1       0.0       0.0       0.0       0.0
 2 C  pz              7.9       6.2       2.3       0.1      10.2       9.8
 2 C  px              3.4       0.6       7.4       0.3       0.0       2.4
 2 C  py              3.0       0.3       0.2       7.8      20.2       3.2
 2 C  dyz             0.0       0.0       0.0       0.1       0.1       0.1
 3 C  s               0.1       0.3       0.5       0.1       0.0       0.1
 3 C  pz              0.4       5.8       0.1       4.7       0.6       4.8
 3 C  px              5.9       0.1       0.0       4.0       0.4       2.3
 3 C  py              3.7       0.1       2.0      22.3       0.8       6.1
 3 C  dyz             0.0       0.0       0.0       0.2       0.0       0.2
 3 C  dx2y2           0.0       0.1       0.1       0.2       0.0       0.1
 4 C  s               0.1       0.0       0.1       0.3       0.0       0.3
 4 C  pz              0.6       1.9       0.2       0.4       0.0       0.0
 4 C  px              6.6       0.1       0.1       3.9       0.4       4.5
 4 C  py              0.1       0.0       1.6       0.1       0.2       0.5
 4 C  dxz             0.0       0.2       0.0       0.0       0.0       0.0
 4 C  dx2y2           0.0       0.0       0.2       0.2       0.0       0.2
 4 C  dxy             0.0       0.0       0.1       0.2       0.0       0.1
 5 C  s               0.1       0.0       0.2       0.8       0.0       0.0
 5 C  pz              0.0       5.0       0.1       0.3       0.0       0.0
 5 C  px              2.2       0.2       4.4       2.6       0.2       0.4
 5 C  py              7.0       2.0       4.9       0.1       0.2       0.3
 5 C  dx2y2           0.0       0.0       0.1       0.2       0.0       0.1
[...]
 5 C  dz2             1.2       0.1       0.0       0.1       0.0       0.0
 5 C  dxz             0.2       0.9       1.8       0.6       0.0       0.0
 5 C  dyz             0.0       0.0       0.2       0.1       0.0       0.0
 5 C  dx2y2           0.1       2.9       2.9       3.0       0.0       0.0
 5 C  dxy             2.0       0.1       4.9       0.2       0.0       0.0
 6 N  s               8.6       0.0       2.1       0.0       0.2       0.0
 6 N  pz              0.7       0.3       0.0       0.3       0.0       0.0
 6 N  px              1.1       9.6       0.3       8.0       0.0       0.0
 6 N  py              3.8       3.1       0.2       2.5       0.0       0.0
 6 N  dz2             4.7       0.1       1.6       0.1       0.0       0.0
 6 N  dxz             2.0       3.4       0.8       2.2       0.0       0.0
 6 N  dyz             1.5       0.1       0.6       0.0       0.0       0.0
 6 N  dx2y2           0.1      15.1       4.7       8.5       0.0       0.0
 6 N  dxy             0.1       4.1       6.1       4.5       0.0       0.0
 7 C  s               2.6       1.9       0.3       1.1      37.8       0.4
 7 C  pz              0.1       0.0       0.2       0.0       0.0       0.0
 7 C  px              0.1       0.7       1.5       1.2       0.0       0.0
 7 C  py              0.7       1.4       0.0       2.3       0.0       0.0
 7 C  dz2             1.8       0.6       0.0       0.4       0.0       0.0
 7 C  dxz             1.3       0.0       0.9       0.3       0.0       0.0
 7 C  dyz             0.0       0.0       0.8       0.0       0.0       0.0
 7 C  dx2y2           2.2       0.4       9.2       1.8       0.0       0.0
 7 C  dxy             1.1       2.1       0.0       2.7       0.0       0.0
 8 C  s               4.2       1.3       0.5       1.5      31.6       0.0
 8 C  pz              0.3       0.1       0.0       0.3       0.0       0.0
 8 C  px              1.5       1.0       0.5       3.5       0.0       0.0
 8 C  py              0.3       0.1       1.5       0.1       0.0       0.0
 8 C  dz2             3.0       0.1       0.0       0.1       0.0       0.0
 8 C  dxz             0.5       0.2       1.7       1.1       0.0       0.0
 8 C  dyz             0.0       0.0       0.2       0.1       0.0       0.0
 8 C  dx2y2           0.2       0.8       2.6       4.2       0.0       0.0
 8 C  dxy             3.6       0.1       6.5       0.1       0.0       0.0
 9 N  s              11.2       1.1       2.9       0.1       0.2       0.0
 9 N  pz              1.2       0.1       0.0       0.2       0.0       0.0
 9 N  px              3.6       7.2       0.2       9.3       0.0       0.0
 9 N  py              2.6       4.7       0.2       4.0       0.0       0.0
 9 N  dz2             5.8       1.3       2.5       0.3       0.0       0.0
 9 N  dxz             3.9       1.4       0.2       2.1       0.0       0.0
 9 N  dyz             1.3       0.2       0.4       0.2       0.0       0.0
 9 N  dx2y2           1.0       9.5       2.1      11.3       0.0       0.0
 9 N  dxy             0.1       6.8       9.7       3.7       0.0       0.0
13 H  s               0.1       0.0       0.0       0.0       0.0       0.0
13 H  py              0.3       0.0       0.0       0.0       0.0       0.0
17 H  s               0.0       0.3       0.2       0.0       0.0       0.0
17 H  pz              0.1       0.1       0.1       0.0       0.0       0.0
17 H  py              0.1       0.3       0.3       0.0       0.0       0.0
18 H  pz              0.0       0.2       0.0       0.0       0.0       0.0
19 H  s               0.4       0.2       1.4       0.1       0.0       0.0
19 H  px              0.4       0.0       0.3       0.0       0.0       0.0
19 H  py              0.7       0.3       1.9       0.0       0.0       0.0
20 H  s               1.3       0.0       2.0       0.4       0.0       0.0
20 H  pz              0.3       0.0       0.4       0.1       0.0       0.0
20 H  px              3.0       0.0       3.2       0.4       0.0       0.0
21 H  s               1.1       0.0       1.9       0.4       0.0       0.0
21 H  px              1.1       0.0       0.6       0.1       0.0       0.0
21 H  py              1.8       0.0       2.7       0.4       0.0       0.0

                    252       253       254       255       256       257   
                  22.01729  22.04375  22.09493  22.13157  22.20464  22.31084
                   0.00000   0.00000   0.00000   0.00000   0.00000   0.00000
                  --------  --------  --------  --------  --------  --------
 0 C  s              47.7      12.1       4.4       0.3       0.0       0.1
 1 C  s               0.0      13.0      39.0      44.8       0.9       0.9
 2 C  s              44.4       0.1       1.6       0.0       1.4       0.0
 3 C  s               0.4      12.7      24.3      15.1      38.0       0.3
 4 C  s               1.0      22.4       9.1      19.3       8.6      27.2
 4 C  px              0.0       0.0       0.0       0.0       0.1       0.0
 5 C  s               5.0      22.0       8.4       1.7      22.9      18.9
 7 C  s               0.2       8.1       8.6      17.4       2.5      24.3
 8 C  s               0.8       9.0       4.3       0.8      24.9      27.8
 9 N  s               0.0       0.0       0.0       0.0       0.1       0.0
 9 N  px              0.0       0.0       0.0       0.0       0.0       0.1

                    258       259   
                  31.86615  32.02067
                   0.00000   0.00000
                  --------  --------
 6 N  s              68.8      31.0
 9 N  s              31.0      68.8


                      *****************************
                      * MAYER POPULATION ANALYSIS *
                      *****************************

  NA   - Mulliken gross atomic population
  ZA   - Total nuclear charge
  QA   - Mulliken gross atomic charge
  VA   - Mayer's total valence
  BVA  - Mayer's bonded valence
  FA   - Mayer's free valence

  ATOM       NA         ZA         QA         VA         BVA        FA
  0 C      6.5512     6.0000    -0.5512     3.7448     3.7448     0.0000
  1 C      5.9985     6.0000     0.0015     3.4556     3.4556     0.0000
  2 C      6.5352     6.0000    -0.5352     3.7588     3.7588     0.0000
  3 C      6.4779     6.0000    -0.4779     3.7968     3.7968     0.0000
  4 C      5.6427     6.0000     0.3573     3.3304     3.3304     0.0000
  5 C      6.2211     6.0000    -0.2211     3.9766     3.9766     0.0000
  6 N      7.2019     7.0000    -0.2019     2.9640     2.9640     0.0000
  7 C      6.0845     6.0000    -0.0845     3.8140     3.8140     0.0000
  8 C      6.0719     6.0000    -0.0719     3.8202     3.8202    -0.0000
  9 N      7.2363     7.0000    -0.2363     2.9163     2.9163    -0.0000
 10 H      0.8302     1.0000     0.1698     0.9591     0.9591    -0.0000
 11 H      0.8382     1.0000     0.1618     0.9607     0.9607     0.0000
 12 H      0.8388     1.0000     0.1612     0.9596     0.9596     0.0000
 13 H      0.8326     1.0000     0.1674     0.9551     0.9551     0.0000
 14 H      0.8406     1.0000     0.1594     0.9605     0.9605     0.0000
 15 H      0.8376     1.0000     0.1624     0.9593     0.9593    -0.0000
 16 H      0.8358     1.0000     0.1642     0.9613     0.9613     0.0000
 17 H      0.8141     1.0000     0.1859     0.9575     0.9575    -0.0000
 18 H      0.8192     1.0000     0.1808     0.9528     0.9528     0.0000
 19 H      0.8290     1.0000     0.1710     0.9583     0.9583    -0.0000
 20 H      0.8323     1.0000     0.1677     0.9602     0.9602     0.0000
 21 H      0.8305     1.0000     0.1695     0.9589     0.9589    -0.0000

  Mayer bond orders larger than 0.100000
B(  0-C ,  1-C ) :   0.8860 B(  0-C , 10-H ) :   0.9842 B(  0-C , 11-H ) :   0.9659 
B(  0-C , 12-H ) :   0.9673 B(  1-C ,  2-C ) :   0.8849 B(  1-C ,  3-C ) :   0.8698 
B(  1-C , 13-H ) :   0.9513 B(  2-C , 14-H ) :   0.9756 B(  2-C , 15-H ) :   0.9731 
B(  2-C , 16-H ) :   0.9870 B(  3-C ,  4-C ) :   0.8371 B(  3-C ,  9-N ) :   0.1275 
B(  3-C , 17-H ) :   1.0354 B(  3-C , 18-H ) :   0.9608 B(  4-C ,  5-C ) :   1.2918 
B(  4-C ,  9-N ) :   1.2110 B(  5-C ,  6-N ) :   1.4913 B(  5-C ,  8-C ) :   0.1150 
B(  5-C , 19-H ) :   0.9569 B(  6-N ,  7-C ) :   1.4119 B(  7-C ,  8-C ) :   1.3264 
B(  7-C , 20-H ) :   0.9604 B(  8-C ,  9-N ) :   1.4366 B(  8-C , 21-H ) :   0.9557 


-------
TIMINGS
-------

Total SCF time: 0 days 0 hours 0 min 46 sec 

Total time                  ....      46.796 sec
Sum of individual times     ....      46.105 sec  ( 98.5%)

SCF preparation             ....       0.397 sec  (  0.8%)
Fock matrix formation       ....      44.453 sec  ( 95.0%)
  Startup                   ....       0.076 sec  (  0.2% of F)
  Split-RI-J                ....       8.112 sec  ( 18.2% of F)
  XC integration            ....      26.836 sec  ( 60.4% of F)
    XC Preparation          ....       0.000 sec  (  0.0% of XC)
    Basis function eval.    ....       5.085 sec  ( 18.9% of XC)
    Density eval.           ....       8.691 sec  ( 32.4% of XC)
    XC-Functional eval.     ....       2.871 sec  ( 10.7% of XC)
    XC-Potential eval.      ....       9.015 sec  ( 33.6% of XC)
  CPCM terms                ....       8.763 sec  ( 19.7% of F)
Diagonalization             ....       0.000 sec  (  0.0%)
Density matrix formation    ....       0.282 sec  (  0.6%)
Total Energy calculation    ....       0.061 sec  (  0.1%)
Population analysis         ....       0.170 sec  (  0.4%)
Orbital Transformation      ....       0.080 sec  (  0.2%)
Orbital Orthonormalization  ....       0.000 sec  (  0.0%)
DIIS solution               ....       0.497 sec  (  1.1%)
  MO trafo                  ....       0.000 sec  (  0.0 % of DIIS)
  Orb grad                  ....       0.000 sec  (  0.0 % of DIIS)
  Energy W gradient         ....       0.000 sec  (  0.0 % of DIIS)
  DIIS error                ....       0.035 sec  (  7.0 % of DIIS)
  DIIS work                 ....       0.398 sec  ( 80.1 % of DIIS)
  Form Q                    ....       0.000 sec  (  0.0 % of DIIS)
  Form QpQm                 ....       0.000 sec  (  0.0 % of DIIS)
  Exp/Cayley                ....       0.000 sec  (  0.0 % of DIIS)
  Orb update                ....       0.000 sec  (  0.0 % of DIIS)
  Wake-sleep                ....       0.025 sec  (  5.0 % of DIIS)
SOSCF solution              ....       0.166 sec  (  0.4%)
  MO trafo                  ....       0.075 sec  ( 45.4 % of SOSCF)
  Orb grad                  ....       0.002 sec  (  1.1 % of SOSCF)
  Rot update                ....       0.030 sec  ( 18.2 % of SOSCF)
  Step                      ....       0.058 sec  ( 35.2 % of SOSCF)
Finished LeanSCF after  46.9 sec

Maximum memory used throughout the entire LEANSCF-calculation: 38.5 MB


-------------------------------------------------------------------------------
                          DFT DISPERSION CORRECTION                            
                                                                               
                                DFTD4 V3.4.0                                   
-------------------------------------------------------------------------------
The R2SCAN3C composite method is recognized
Using three-body term ABC
Active option DFTDOPT                   ...         5   

-------------------------   ----------------
Dispersion correction           -0.007433764
-------------------------   ----------------

------------------   -----------------
gCP correction             0.012599753
------------------   -----------------

-------------------------   --------------------
FINAL SINGLE POINT ENERGY      -421.461673748328
-------------------------   --------------------


------------------------------------------------------------------------------
                              ORCA PROPERTY CALCULATIONS
------------------------------------------------------------------------------

GBWName                                 ... sp_solv.gbw
Number of atoms                         ...     22
Number of basis functions               ...    260
Max core memory                         ...   1024 MB

Electric properties:
Dipole moment                           ... YES
Quadrupole moment                       ...  NO
Static polarizability (Dipole/Dipole)   ...  NO
Static polarizability (Dipole/Quad.)    ...  NO
Static polarizability (Quad./Quad.)     ...  NO
Static polarizability (Velocity)        ...  NO

Atomic electric properties:
Dipole moment                           ...  NO
Quadrupole moment                       ...  NO
Static polarizability                   ...  NO

Choice of electric origin               ... Center of mass
Position of electric origin             ...    -0.000008     0.000001     0.000002

General magnetic properties:
Magnetizability                         ...  NO

EPR properties:
g-Tensor (aka g-matrix)                 ...  NO
Zero-Field splitting spin-orbit         ...  NO
Zero-field splitting spin-spin          ...  NO
Hyperfine couplings                     ...  NO (   0 nuclei)
Quadrupole couplings                    ...  NO (   0 nuclei)
Contact density                         ...  NO (   0 nuclei)

NMR properties:
Chemical shifts                         ...  NO (   0 nuclei)
Spin-rotation constants                 ...  NO (   0 nuclei)
Spin-spin couplings                     ...  NO (   0 nuclei,    0 pairs)

Choice of magnetic origin               ... GIAO
Position of magnetic origin             ...     0.000000     0.000000     0.000000

Properties with geometric perturbations:
SCF Hessian                             ...  NO
IR spectrum                             ...  NO
VCD spectrum                            ...  NO
X-ray spectroscopy properties:
SCF XES/XAS/RIXS spectra                ...  NO


-------------
DIPOLE MOMENT
-------------

Method             : SCF
Type of density    : Electron Density
Multiplicity       :   1
Irrep              :   0
Energy             :  -421.4668397377473639 Eh
Relativity type    : 
Basis              : AO
                                X                 Y                 Z
Electronic contribution:     13.587038362      -1.017199968      -1.453053711
Nuclear contribution   :    -13.990462355       0.963261154       1.422204109
                        -----------------------------------------
Total Dipole Moment    :     -0.403423993      -0.053938814      -0.030849602
                        -----------------------------------------
Magnitude (a.u.)       :      0.408181347
Magnitude (Debye)      :      1.037514532



--------------------
Rotational spectrum 
--------------------
 
Rotational constants in cm-1:             0.107229             0.025592             0.024049 
Rotational constants in MHz :          3214.648838           767.222704           720.985490 

Dipole components along the rotational axes: 
x,y,z [a.u.] :    -0.403424     0.053939    -0.030849 
x,y,z [Debye]:    -1.025422     0.137102    -0.078413 

 

Dipole moment calculation done in   0.0 sec 

Maximum memory used throughout the entire PROP-calculation: 17.6 MB

--------------------------------
SUGGESTED CITATIONS FOR THIS RUN
--------------------------------

Below you find a list of papers that are relevant to this ORCA run
We neither can nor want to force you to cite these papers, but we appreciate if you do
You receive ORCA, which is the product of decades of hard work by many enthusiastic individuals, for free
The only thing we kindly ask in return is that you cite our papers,
We deeply appreciate it, if you show your appreciation for ORCA by not just citing the generic ORCA reference.

Please note that relegating all ORCA citations to the supporting information does *not* help us.
SI sections are not indexed - citations you put there will not count into any citation statistics
But we need these citations in order to attract the funding resources that allow us to do what we are doing

Therefore, if you are a happy ORCA user, please consider citing a few of the papers listed below in the main body of your paper

In addition to the list printed below, the program has created the file sp_solv.bibtex that contains the list in bibtex format
You can import this file easily into all common literature databanks and citation aid programs


List of essential papers. We consider these as the minimum necessary citations

  1. Neese,F.
     Software update: the ORCA program system, version 5.0
     WIRES Comput. Molec. Sci., 2022 12(1)e1606
     doi.org/10.1002/wcms.1606
  2. Grimme,S.; Hansen,A.; Ehlert,S.; Mewes,J.
     r2SCAN-3c: A 'Swiss army knife' composite electronic-structure method
     J. Chem. Phys., 2021 154 064103
     doi.org/10.1063/5.0040021

List of papers to cite with high priority. The work reported in these papers was absolutely
necessary for this run to complete.
Our perspective: the developers of density functionals and basis sets usually get cited in chemistry papers
Good! But without the algorithms to do something with them, the functionals or basis sets would not do anything.
Hence, in our opinion, the algorithm design and method developments papers are equally worthy of getting cited

  1. Neese,F.
     An improvement of the resolution of the identity approximation for the formation of the Coulomb matrix
     J. Comp. Chem., 2003 24(14)1740-1747
     doi.org/10.1002/jcc.10318
  2. Garcia-Rates,M.; Neese,F.
     Effect of the Solute Cavity on the Solvation Energy and its Derivatives within the Framework of the Gaussian Charge Scheme
     J. Comput. Chem., 2020 41 922-939
     doi.org/10.1002/jcc.26139
  3. Neese,F.
     The SHARK Integral Generation and Digestion System
     J. Comp. Chem., 2022  1-16
     doi.org/10.1002/jcc.26942
  4. Lehtola,S.; Steigemann,C.; Oliveira,M.; Marques,M.
     Recent developments in Libxc - A comprehensive library of functionals for density functional theory
     Software X, 2018 7 
     doi.org/10.1016/j.softx.2017.11.002
  5. Caldeweyher,E.; Bannwarth,C.; Grimme,S.
     Extension of the D3 dispersion coefficient model
     J. Chem. Phys., 2017 147 034112-XXXX
     doi.org/10.1063/1.4993215
  6. Caldeweyher,E.; Ehlert,S.; Hansen,A.; Neugebauer,H.; Spicher,S.; Bannwarth,C.; Grimme,S.
     A generally applicable atomic-charge dependent London dispersion correction
     J. Chem. Phys., 2019 150 154122-XXXX
     doi.org/10.1063/1.5090222
  7. Caldeweyher,E.; Mewes,J.; Ehlert,S.; Grimme,S.
     Extension and evaluation of the D4 London-dispersion model for periodic systems
     Phys. Chem. Chem. Phys., 2020 22(16)8499-8512
     doi.org/10.1039/D0CP00502A

List of suggested additional citations. These are papers that are important in the 'surrounding' of 
of this run, or papers that preceded the highly important papers. If you like your results we are grateful for a citation.

  1. Neese,F.
     The ORCA program system
     WIRES Comput. Molec. Sci., 2012 2(1)73-78
     doi.org/10.1002/wcms.81
  2. Neese,F.
     Software update: the ORCA program system, version 4.0
     WIRES Comput. Molec. Sci., 2018 8(1)1-6
     doi.org/10.1002/wcms.1327
  3. Neese,F.; Wennmohs,F.; Becker,U.; Riplinger,C.
     The ORCA quantum chemistry program package
     J. Chem. Phys., 2020 152 Art. No. L224108
     doi.org/10.1063/5.0004608

List of optional additional citations

  1. Neese,F.
     Approximate second-order SCF convergence for spin unrestricted wavefunctions
     Chem. Phys. Lett., 2000 325(1-3)93-98
     doi.org/10.1016/s0009-2614(00)00662-x

Timings for individual modules:

Sum of individual times          ...       49.046 sec (=   0.817 min)
Startup calculation              ...        1.615 sec (=   0.027 min)   3.3 %
SCF iterations                   ...       47.310 sec (=   0.788 min)  96.5 %
Property calculations            ...        0.122 sec (=   0.002 min)   0.2 %
                             ****ORCA TERMINATED NORMALLY****
TOTAL RUN TIME: 0 days 0 hours 0 minutes 49 seconds 881 msec
