
                                 *****************
                                 * O   R   C   A *
                                 *****************

                                            #,                                       
                                            ###                                      
                                            ####                                     
                                            #####                                    
                                            ######                                   
                                           ########,                                 
                                     ,,################,,,,,                         
                               ,,#################################,,                 
                          ,,##########################################,,             
                       ,#########################################, ''#####,          
                    ,#############################################,,   '####,        
                  ,##################################################,,,,####,       
                ,###########''''           ''''###############################       
              ,#####''   ,,,,##########,,,,          '''####'''          '####       
            ,##' ,,,,###########################,,,                        '##       
           ' ,,###''''                  '''############,,,                           
         ,,##''                                '''############,,,,        ,,,,,,###''
      ,#''                                            '''#######################'''  
     '                                                          ''''####''''         
             ,#######,   #######,   ,#######,      ##                                
            ,#'     '#,  ##    ##  ,#'     '#,    #''#        ,####,   ,####,        
            ##       ##  ##   ,#'  ##            #'  '#       #'       #'  '#        
            ##       ##  #######   ##           ,######,      #####,   #    #        
            '#,     ,#'  ##    ##  '#,     ,#' ,#      #,     #,   #   #,  ,#        
             '#######'   ##     ##  '#######'  #'      '#     '####' # '####'        



                #########################################################
                #                        -***-                          #
                #          Department of theory and spectroscopy        #
                #                                                       #
                #                      Frank Neese                      #
                #                                                       #
                #     Directorship, Architecture, Infrastructure        #
                #                    SHARK, DRIVERS                     #
                #        Core code/Algorithms in most modules           #
                #                                                       #
                #        Max Planck Institute fuer Kohlenforschung      #
                #                Kaiser Wilhelm Platz 1                 #
                #                 D-45470 Muelheim/Ruhr                 #
                #                      Germany                          #
                #                                                       #
                #                  All rights reserved                  #
                #                        -***-                          #
                #########################################################


                         Program Version 6.0.0  -   RELEASE  -


 With contributions from (in alphabetic order):
   Daniel Aravena         : Magnetic Suceptibility
   Michael Atanasov       : Ab Initio Ligand Field Theory (pilot matlab implementation)
   Alexander A. Auer      : GIAO ZORA, VPT2 properties, NMR spectrum
   Ute Becker             : All parallelization in ORCA, NUMFREQ, NUMCALC
   Giovanni Bistoni       : ED, misc. LED, open-shell LED, HFLD
   Martin Brehm           : Molecular dynamics
   Dmytro Bykov           : pre 5.0 version of the SCF Hessian
   Marcos Casanova-Páez   : Triplet and SCS-CIS(D). UHF-(DLPNO)-IP/EA/STEOM-CCSD. UHF-CVS-IP/STEOM-CCSD
   Vijay G. Chilkuri      : MRCI spin determinant printing, contributions to CSF-ICE
   Pauline Colinet        : FMM embedding
   Dipayan Datta          : RHF DLPNO-CCSD density
   Achintya Kumar Dutta   : EOM-CC, STEOM-CC
   Nicolas Foglia         : Exact transition moments, OPA infrastructure, MCD improvements
   Dmitry Ganyushin       : Spin-Orbit,Spin-Spin,Magnetic field MRCI
   Miquel Garcia          : C-PCM and meta-GGA Hessian, CCSD/C-PCM, Gaussian charge scheme
   Tiago L. C. Gouveia    : GS-ROHF, GS-ROCIS
   Yang Guo               : DLPNO-NEVPT2, F12-NEVPT2, CIM, IAO-localization
   Andreas Hansen         : Spin unrestricted coupled pair/coupled cluster methods
   Ingolf Harden          : AUTO-CI MPn and infrastructure 
   Benjamin Helmich-Paris : MC-RPA, TRAH-(SCF,CASSCF), AVAS, COSX integrals, SCF dyn. polar.
   Lee Huntington         : MR-EOM, pCC
   Robert Izsak           : Overlap fitted RIJCOSX, COSX-SCS-MP3, EOM
   Riya Kayal             : Wick's Theorem for AUTO-CI, AUTO-CI UHF-CCSDT
   Emily Kempfer          : AUTO-CI, RHF CISDT and CCSDT
   Christian Kollmar      : KDIIS, OOCD, Brueckner-CCSD(T), CCSD density, CASPT2, CASPT2-K, improved NEVPT2
   Axel Koslowski         : Symmetry handling
   Simone Kossmann        : Meta GGA functionals, TD-DFT gradient, OOMP2, (MP2 Hessian; deprecated post 5.0)
   Lucas Lang             : DCDCAS
   Marvin Lechner         : AUTO-CI (C++ implementation), FIC-MRCC
   Spencer Leger          : CASSCF response
   Dagmar Lenk            : GEPOL surface, SMD, ORCA-2-JSON
   Dimitrios Liakos       : Extrapolation schemes; Compound Job, initial MDCI parallelization
   Dimitrios Manganas     : Further ROCIS development; embedding schemes. LFT, Crystal Embedding
   Dimitrios Pantazis     : SARC Basis sets
   Anastasios Papadopoulos: AUTO-CI, single reference methods and gradients
   Taras Petrenko         : pre 6.0 DFT Hessian and TD-DFT gradient, (ASA, deprecated), ECA, 1-Electron XAS/XES, NRVS
   Peter Pinski           : DLPNO-MP2, DLPNO-MP2 Gradient
   Christoph Reimann      : Effective Core Potentials
   Marius Retegan         : Local ZFS, SOC
   Christoph Riplinger    : Optimizer, TS searches, QM/MM, DLPNO-CCSD(T), (RO)-DLPNO pert. Triples
   Michael Roemelt        : Original ROCIS implementation
   Masaaki Saitow         : Open-shell DLPNO-CCSD energy and density
   Barbara Sandhoefer     : DKH picture change effects
   Kantharuban Sivalingam : CASSCF convergence/infrastructure, NEVPT2 and variants, FIC-MRCI
   Bernardo de Souza      : ESD, SOC TD-DFT
   Georgi Stoychev        : AutoAux, RI-MP2 NMR, DLPNO-MP2 response, X2C
   Van Anh Tran           : RI-MP2 g-tensors
   Willem Van den Heuvel  : Paramagnetic NMR
   Zikuan Wang            : NOTCH, Electric field optimization 
   Frank Wennmohs         : Technical directorship and infrastructure
   Hang Xu                : AUTO-CI-Response properties 


 We gratefully acknowledge several colleagues who have allowed us to
 interface, adapt or use parts of their codes:
   Stefan Grimme, W. Hujo, H. Kruse, P. Pracht,  : VdW corrections, initial TS optimization,
                  C. Bannwarth, S. Ehlert,         DFT functionals, gCP, sTDA/sTD-DF
                  L. Wittmann, M. Mueller
   Ed Valeev, F. Pavosevic, A. Kumar             : LibInt (2-el integral package), F12 methods
   Garnet Chan, S. Sharma, J. Yang, R. Olivares  : DMRG
   Ulf Ekstrom                                   : XCFun DFT Library
   Mihaly Kallay                                 : mrcc  (arbitrary order and MRCC methods)
   Frank Weinhold                                : gennbo (NPA and NBO analysis)
   Simon Mueller                                 : openCOSMO-RS
   Christopher J. Cramer and Donald G. Truhlar   : smd solvation model
   Lars Goerigk                                  : TD-DFT with DH, B97 family of functionals
   V. Asgeirsson, H. Jonsson                     : NEB implementation
   FAccTs GmbH                                   : IRC, NEB, NEB-TS, DLPNO-Multilevel, CI-OPT
                                                   MM, QMMM, 2- and 3-layer-ONIOM, Crystal-QMMM,
                                                   LR-CPCM, SF, NACMEs, symmetry and pop. for TD-DFT,
                                                   nearIR, NL-DFT gradient (VV10), updates on ESD,
                                                   ML-optimized integration grids, MBIS, APM,
                                                   GOAT, DOCKER, SOLVATOR, interface openCOSMO-RS
   S Lehtola, MJT Oliveira, MAL Marques          : LibXC Library
   Liviu Ungur et al                             : ANISO software


 Your calculation uses the libint2 library for the computation of 2-el integrals
 For citations please refer to: http://libint.valeyev.net

 Your ORCA version has been built with support for libXC version: 6.2.2
 For citations please refer to: https://libxc.gitlab.io

 This ORCA versions uses:
   CBLAS   interface :  Fast vector & matrix operations
   LAPACKE interface :  Fast linear algebra routines
   SCALAPACK package :  Parallel linear algebra routines
   Shared memory     :  Shared parallel matrices
   BLAS/LAPACK       :  OpenBLAS 0.3.27  USE64BITINT DYNAMIC_ARCH NO_AFFINITY SkylakeX SINGLE_THREADED
        Core in use  :  SkylakeX
   Copyright (c) 2011-2014, The OpenBLAS Project


Your calculation utilizes the geometrical counterpoise correction gCP
Please cite in your paper:
H.Kruse, S. Grimme J.Chem.Phys., 136, (2012), 154101 
   

Your calculation utilizes the atom-pairwise dispersion correction
based on EEQ partial charges (D4)


================================================================================

----- Orbital basis set information -----
Your calculation utilizes the basis: def2-SV(P)
   F. Weigend and R. Ahlrichs, Phys. Chem. Chem. Phys. 7, 3297 (2005).

----- AuxJ basis set information -----
Your calculation utilizes the auxiliary basis: def2/J
   F. Weigend, Phys. Chem. Chem. Phys. 8, 1057 (2006).

================================================================================
                                        WARNINGS
                       Please study these warnings very carefully!
================================================================================


================================================================================
                                       INPUT FILE
================================================================================
NAME = sp.inp
|  1> ! pbe def2-sv(p) def2/J RI DEFGRID1 loosescf d4 GCP(DFT/SV(P)) printgap
|  2> %output
|  3>     printlevel normal
|  4> end
|  5> * xyz 0 1
|  6> C -1.0209699425 -0.4151317221 -0.3734540963
|  7> C 0.1267601743 0.3688805373 0.2854896081
|  8> C 1.4748509675 -0.0947373273 -0.2873850223
|  9> O 1.7510488548 -1.4465754344 -0.0269473331
| 10> O 0.0396928283 1.7595284445 0.0434128196
| 11> O -2.2605761015 -0.2268507604 0.2734748278
| 12> H -0.7922608389 -1.4805401216 -0.299535088
| 13> H -1.0804853876 -0.1391029829 -1.4316261765
| 14> H 0.1033682012 0.1707480785 1.3673023241
| 15> H 2.2612524076 0.5611766904 0.1043267445
| 16> H 1.4518910417 0.0112000189 -1.3743059967
| 17> H 1.9050777733 -1.5684189553 0.920694944
| 18> H -0.6735721617 2.1355435719 0.5774405421
| 19> H -2.6364070125 0.622696865 0.0060833327
| 20> *
| 21> 
| 22>                          ****END OF INPUT****
================================================================================

                       ****************************
                       * Single Point Calculation *
                       ****************************

---------------------------------
CARTESIAN COORDINATES (ANGSTROEM)
---------------------------------
  C     -1.020970   -0.415132   -0.373454
  C      0.126760    0.368881    0.285490
  C      1.474851   -0.094737   -0.287385
  O      1.751049   -1.446575   -0.026947
  O      0.039693    1.759528    0.043413
  O     -2.260576   -0.226851    0.273475
  H     -0.792261   -1.480540   -0.299535
  H     -1.080485   -0.139103   -1.431626
  H      0.103368    0.170748    1.367302
  H      2.261252    0.561177    0.104327
  H      1.451891    0.011200   -1.374306
  H      1.905078   -1.568419    0.920695
  H     -0.673572    2.135544    0.577441
  H     -2.636407    0.622697    0.006083

----------------------------
CARTESIAN COORDINATES (A.U.)
----------------------------
  NO LB      ZA    FRAG     MASS         X           Y           Z
   0 C     6.0000    0    12.011   -1.929354   -0.784485   -0.705726
   1 C     6.0000    0    12.011    0.239542    0.697083    0.539497
   2 C     6.0000    0    12.011    2.787064   -0.179028   -0.543079
   3 O     8.0000    0    15.999    3.309003   -2.733631   -0.050923
   4 O     8.0000    0    15.999    0.075009    3.325027    0.082038
   5 O     8.0000    0    15.999   -4.271870   -0.428686    0.516793
   6 H     1.0000    0     1.008   -1.497156   -2.797815   -0.566039
   7 H     1.0000    0     1.008   -2.041821   -0.262867   -2.705381
   8 H     1.0000    0     1.008    0.195338    0.322667    2.583827
   9 H     1.0000    0     1.008    4.273148    1.060470    0.197149
  10 H     1.0000    0     1.008    2.743676    0.021165   -2.597062
  11 H     1.0000    0     1.008    3.600075   -2.963882    1.739861
  12 H     1.0000    0     1.008   -1.272867    4.035592    1.091204
  13 H     1.0000    0     1.008   -4.982087    1.176727    0.011496

--------------------------------
INTERNAL COORDINATES (ANGSTROEM)
--------------------------------
 C      0   0   0     0.000000000000     0.00000000     0.00000000
 C      1   0   0     1.538234848607     0.00000000     0.00000000
 C      2   1   0     1.536383953718   109.94756736     0.00000000
 O      3   2   1     1.404129385318   113.20098959   297.49533239
 O      2   1   3     1.414243082384   112.45257543   118.70158212
 O      1   2   3     1.410882767209   113.02401688   168.82871222
 H      1   2   3     1.092184476901   108.17682738    51.22687760
 H      1   2   3     1.095199572856   109.02508464   293.03609177
 H      2   1   3     1.100055638654   108.27672415   240.61374609
 H      3   2   1     1.096397980597   108.39778661   173.07840021
 H      3   2   1     1.092312722668   108.86395076    55.57882731
 H      4   3   2     0.967779229301   109.52017666   291.61427633
 H      5   2   1     0.967119398209   109.46309206    73.81881817
 H      6   1   2     0.966684153764   109.39222376    78.76031883

---------------------------
INTERNAL COORDINATES (A.U.)
---------------------------
 C      0   0   0     0.000000000000     0.00000000     0.00000000
 C      1   0   0     2.906842593520     0.00000000     0.00000000
 C      2   1   0     2.903344909079   109.94756736     0.00000000
 O      3   2   1     2.653419994842   113.20098959   297.49533239
 O      2   1   3     2.672532112498   112.45257543   118.70158212
 O      1   2   3     2.666182037093   113.02401688   168.82871222
 H      1   2   3     2.063929549062   108.17682738    51.22687760
 H      1   2   3     2.069627254686   109.02508464   293.03609177
 H      2   1   3     2.078803889132   108.27672415   240.61374609
 H      3   2   1     2.071891917112   108.39778661   173.07840021
 H      3   2   1     2.064171898441   108.86395076    55.57882731
 H      4   3   2     1.828837701477   109.52017666   291.61427633
 H      5   2   1     1.827590801417   109.46309206    73.81881817
 H      6   1   2     1.826768308615   109.39222376    78.76031883

---------------------
BASIS SET INFORMATION
---------------------
There are 3 groups of distinct atoms

 Group   1 Type C   : 7s4p1d contracted to 3s2p1d pattern {511/31/1}
 Group   2 Type O   : 7s4p1d contracted to 3s2p1d pattern {511/31/1}
 Group   3 Type H   : 4s contracted to 2s pattern {31}

Atom   0C    basis set group =>   1
Atom   1C    basis set group =>   1
Atom   2C    basis set group =>   1
Atom   3O    basis set group =>   2
Atom   4O    basis set group =>   2
Atom   5O    basis set group =>   2
Atom   6H    basis set group =>   3
Atom   7H    basis set group =>   3
Atom   8H    basis set group =>   3
Atom   9H    basis set group =>   3
Atom  10H    basis set group =>   3
Atom  11H    basis set group =>   3
Atom  12H    basis set group =>   3
Atom  13H    basis set group =>   3
---------------------------------
AUXILIARY/J BASIS SET INFORMATION
---------------------------------
There are 3 groups of distinct atoms

 Group   1 Type C   : 12s5p4d2f1g contracted to 6s4p3d1f1g pattern {711111/2111/211/2/1}
 Group   2 Type O   : 12s5p4d2f1g contracted to 6s4p3d1f1g pattern {711111/2111/211/2/1}
 Group   3 Type H   : 5s2p1d contracted to 3s1p1d pattern {311/2/1}

Atom   0C    basis set group =>   1
Atom   1C    basis set group =>   1
Atom   2C    basis set group =>   1
Atom   3O    basis set group =>   2
Atom   4O    basis set group =>   2
Atom   5O    basis set group =>   2
Atom   6H    basis set group =>   3
Atom   7H    basis set group =>   3
Atom   8H    basis set group =>   3
Atom   9H    basis set group =>   3
Atom  10H    basis set group =>   3
Atom  11H    basis set group =>   3
Atom  12H    basis set group =>   3
Atom  13H    basis set group =>   3
------------------------------------------------------------------------------
                             ORCA STARTUP CALCULATIONS
                           -- RI-GTO INTEGRALS CHOSEN --
------------------------------------------------------------------------------
------------------------------------------------------------------------------
                   ___                                                        
                  /   \      - P O W E R E D   B Y -                         
                 /     \                                                     
                 |  |  |   _    _      __       _____    __    __             
                 |  |  |  | |  | |    /  \     |  _  \  |  |  /  |          
                  \  \/   | |  | |   /    \    | | | |  |  | /  /          
                 / \  \   | |__| |  /  /\  \   | |_| |  |  |/  /          
                |  |  |   |  __  | /  /__\  \  |    /   |      \           
                |  |  |   | |  | | |   __   |  |    \   |  |\   \          
                \     /   | |  | | |  |  |  |  | |\  \  |  | \   \       
                 \___/    |_|  |_| |__|  |__|  |_| \__\ |__|  \__/        
                                                                              
                      - O R C A' S   B I G   F R I E N D -                    
                                      &                                       
                       - I N T E G R A L  F E E D E R -                       
                                                                              
 v1 FN, 2020, v2 2021, v3 2022-2024                                           
------------------------------------------------------------------------------


----------------------
SHARK INTEGRAL PACKAGE
----------------------

Number of atoms                             ...     14
Number of basis functions                   ...    100
Number of shells                            ...     52
Maximum angular momentum                    ...      2
Integral batch strategy                     ... SHARK/LIBINT Hybrid
RI-J (if used) integral strategy            ... SPLIT-RIJ (Revised 2003 algorithm where possible)
Printlevel                                  ...      1
Contraction scheme used                     ... SEGMENTED contraction
Prescreening option                         ... SCHWARTZ
   Thresh                                   ... 1.000e-09
   Tcut                                     ... 1.000e-10
   Tpresel                                  ... 1.000e-10 
Coulomb Range Separation                    ... NOT USED
Exchange Range Separation                   ... NOT USED
Multipole approximations                    ... NOT USED
Finite Nucleus Model                        ... NOT USED
CABS basis                                  ... NOT available
Auxiliary Coulomb fitting basis             ... AVAILABLE
   # of basis functions in Aux-J            ...    382
   # of shells in Aux-J                     ...    130
   Maximum angular momentum in Aux-J        ...      4
Auxiliary J/K fitting basis                 ... NOT available
Auxiliary Correlation fitting basis         ... NOT available
Auxiliary 'external' fitting basis          ... NOT available

Checking pre-screening integrals            ... done (  0.0 sec) Dimension = 52
Check shell pair data                       ... done (  0.0 sec)
Shell pair information
Shell pair cut-off parameter TPreSel        ...   1.0e-10
Total number of shell pairs                 ...      1378
Shell pairs after pre-screening             ...      1324
Total number of primitive shell pairs       ...      5562
Primitive shell pairs kept                  ...      3943
          la=0 lb=0:    569 shell pairs
          la=1 lb=0:    396 shell pairs
          la=1 lb=1:     77 shell pairs
          la=2 lb=0:    192 shell pairs
          la=2 lb=1:     70 shell pairs
          la=2 lb=2:     20 shell pairs

Calculating one electron integrals          ... done (  0.0 sec)
Calculating RI/J V-Matrix + Cholesky decomp.... done (  0.1 sec)
Calculating Nuclear repulsion               ... done (  0.0 sec) ENN=    260.166140740994 Eh

Diagonalization of the overlap matrix:
Smallest eigenvalue                        ... 2.075e-03
Time for diagonalization                   ...    0.001 sec
Threshold for overlap eigenvalues          ... 1.000e-07
Number of eigenvalues below threshold      ... 0
Time for construction of square roots      ...    0.011 sec
Total time needed                          ...    0.021 sec

-------------------
DFT GRID GENERATION
-------------------

General Integration Accuracy     IntAcc      ... 4.159
Radial Grid Type                 RadialGrid  ... OptM3 with GC (2021)
Angular Grid (max. ang.)         AngularGrid ... 3 (Lebedev-194)
Angular grid pruning method      GridPruning ... 4 (adaptive)
Weight generation scheme         WeightScheme... mBecke (2022)
Basis function cutoff            BFCut       ... 1.0000e-10
Integration weight cutoff        WCut        ... 1.0000e-14
Partially contracted basis set               ... off
Rotationally invariant grid construction     ... off
Angular grids for H and He will be reduced by one unit

Total number of grid points                  ...    31057
Total number of batches                      ...      492
Average number of points per batch           ...       63
Average number of grid points per atom       ...     2218
Initializing property integral containers    ... done (  0.0 sec)

SHARK setup successfully completed in   0.5 seconds

Maximum memory used throughout the entire STARTUP-calculation: 15.2 MB
-------------------------------------------------------------------------------
                                 ORCA GUESS
                   Start orbitals & Density for SCF / CASSCF
-------------------------------------------------------------------------------

------------
SCF SETTINGS
------------
Hamiltonian:
 Density Functional     Method          .... DFT(GTOs)
 Exchange Functional    Exchange        .... PBE
   PBE kappa parameter   XKappa         ....  0.804000
   PBE mue parameter    XMuePBE         ....  0.219520
 Correlation Functional Correlation     .... PBE
   PBE beta parameter  CBetaPBE         ....  0.066725
 LDA part of GGA corr.  LDAOpt          .... PW91-LDA
 Gradients option       PostSCFGGA      .... off
   NL short-range parameter             ....  6.400000
 RI-approximation to the Coulomb term is turned on
   Number of AuxJ basis functions       .... 382


General Settings:
 Integral files         IntName         .... sp
 Hartree-Fock type      HFTyp           .... RHF
 Total Charge           Charge          ....    0
 Multiplicity           Mult            ....    1
 Number of Electrons    NEL             ....   50
 Basis Dimension        Dim             ....  100
 Nuclear Repulsion      ENuc            ....    260.1661407410 Eh

Convergence Acceleration:
 AO-DIIS                CNVDIIS         .... on
   Start iteration      DIISMaxIt       ....    12
   Startup error        DIISStart       ....  0.200000
   # of expansion vecs  DIISMaxEq       ....     5
   Bias factor          DIISBfac        ....   1.050
   Max. coefficient     DIISMaxC        ....  10.000
 MO-DIIS                CNVKDIIS        .... off
 Trust-Rad. Augm. Hess. CNVTRAH         .... auto
   Auto Start mean grad. ratio tolernc. ....  1.125000
   Auto Start start iteration           ....    50
   Auto Start num. interpolation iter.  ....    10
   Max. Number of Micro iterations      ....    24
   Max. Number of Macro iterations      .... Maxiter - #DIIS iter
   Number of Davidson start vectors     ....     2
   Converg. threshold    (grad. norm)   ....   1.000e-04
   Grad. Scal. Fac. for Micro threshold ....   0.100
   Minimum threshold for Micro iter.    ....   1.000e-02
   NR start threshold (gradient norm)   ....   1.000e-04
   Initial trust radius                 ....   0.400
   Minimum AH scaling param. (alpha)    ....   1.000
   Maximum AH scaling param. (alpha)    .... 1000.000
   Quad. conv. algorithm                .... NR
   White noise on init. David. guess    .... on
   Maximum white noise                  ....   0.010
   Pseudo random numbers                .... off
   Inactive MOs                         .... canonical
   Orbital update algorithm             .... Taylor
   Preconditioner                       .... Diag
   Full preconditioner red. dimension   ....   250
 SOSCF                  CNVSOSCF        .... on
   Start iteration      SOSCFMaxIt      ....   150
   Startup grad/error   SOSCFStart      ....  0.003300
   Hessian update       SOSCFHessUp     .... L-BFGS
 Level Shifting         CNVShift        .... on
   Level shift para.    LevelShift      ....    0.2500
   Turn off err/grad.   ShiftErr        ....    0.0010
 Zerner damping         CNVZerner       .... off
 Static damping         CNVDamp         .... on
   Fraction old density DampFac         ....    0.7000
   Max. Damping (<1)    DampMax         ....    0.9800
   Min. Damping (>=0)   DampMin         ....    0.0000
   Turn off err/grad.   DampErr         ....    0.1000

SCF Procedure:
 Maximum # iterations   MaxIter         ....   125
 SCF integral mode      SCFMode         .... Direct
   Integral package                     .... SHARK and LIBINT hybrid scheme
 Reset frequency        DirectResetFreq ....    20
 Integral Threshold     Thresh          ....  1.000e-09 Eh
 Primitive CutOff       TCut            ....  1.000e-10 Eh

Convergence Tolerance:
 Convergence Check Mode ConvCheckMode   .... Total+1el-Energy
 Convergence forced     ConvForced      .... 0
 Energy Change          TolE            ....  1.000e-05 Eh
 1-El. energy change                    ....  1.000e-02 Eh
 Orbital Gradient       TolG            ....  1.000e-04
 Orbital Rotation angle TolX            ....  1.000e-04
 DIIS Error             TolErr          ....  5.000e-04

------------------------------
INITIAL GUESS: MODEL POTENTIAL
------------------------------
Loading Hartree-Fock densities                     ... done
Calculating cut-offs                               ... done
Initializing the effective Hamiltonian             ... done
Setting up the integral package (SHARK)            ... done
Starting the Coulomb interaction                   ... done (   0.1 sec)
Making the grid                                    ... done (   0.1 sec)
Mapping shells                                     ... done
Starting the XC term evaluation                    ... done (   0.1 sec)
  promolecular density results
     # of electrons  =     49.996684412
     EX              =    -42.172493777
     EC              =     -1.663982657
     EX+EC           =    -43.836476435
Transforming the Hamiltonian                       ... done (   0.0 sec)
Diagonalizing the Hamiltonian                      ... done (   0.0 sec)
Back transforming the eigenvectors                 ... done (   0.0 sec)
Now organizing SCF variables                       ... done
                      ------------------
                      INITIAL GUESS DONE (   0.4 sec)
                      ------------------
             **** ENERGY FILE WAS UPDATED (sp.en.tmp) ****
Finished Guess after   0.5 sec
Maximum memory used throughout the entire GUESS-calculation: 11.7 MB

-------------------------------------------------------------------------------------------
                                      ORCA LEAN-SCF
                              memory conserving SCF solver
-------------------------------------------------------------------------------------------

----------------------------------------D-I-I-S--------------------------------------------
Iteration    Energy (Eh)           Delta-E    RMSDP     MaxDP     DIISErr   Damp  Time(sec)
-------------------------------------------------------------------------------------------
               ***  Starting incremental Fock matrix formation  ***
    1    -343.8930323802815110     0.00e+00  6.29e-03  7.70e-02  2.38e-01  0.700   0.6
    2    -343.9851447482814137    -9.21e-02  4.10e-03  5.50e-02  9.48e-02  0.700   0.6
                               ***Turning on AO-DIIS***
    3    -344.0146848650592801    -2.95e-02  1.50e-03  1.53e-02  2.04e-02  0.700   0.5
    4    -344.0338879000129282    -1.92e-02  1.97e-03  2.45e-02  1.03e-02  0.000   0.5
    5    -344.0783346193782108    -4.44e-02  5.91e-04  8.78e-03  6.10e-03  0.000   0.5
                              *** Initializing SOSCF ***
---------------------------------------S-O-S-C-F--------------------------------------
Iteration    Energy (Eh)           Delta-E    RMSDP     MaxDP     MaxGrad    Time(sec)
--------------------------------------------------------------------------------------
    6    -344.0785780387481054    -2.43e-04  2.09e-04  2.59e-03  1.26e-03     0.6
               *** Restarting incremental Fock matrix formation ***
    7    -344.0785991221248423    -2.11e-05  1.51e-04  1.99e-03  3.21e-04     0.5
    8    -344.0786007082604101    -1.59e-06  4.76e-05  7.02e-04  2.25e-04     0.5
                 **** Energy Check signals convergence ****

               *****************************************************
               *                     SUCCESS                       *
               *           SCF CONVERGED AFTER   8 CYCLES          *
               *****************************************************

             **** ENERGY FILE WAS UPDATED (sp.en.tmp) ****

----------------
TOTAL SCF ENERGY
----------------

Total Energy       :       -344.07860070826041 Eh           -9362.85472 eV

Components:
Nuclear Repulsion  :        260.16614074099436 Eh            7079.48060 eV
Electronic Energy  :       -604.24474144925478 Eh          -16442.33533 eV
One Electron Energy:       -986.42273441150337 Eh          -26841.92722 eV
Two Electron Energy:        382.17799296224860 Eh           10399.59189 eV

Virial components:
Potential Energy   :       -685.82463717807377 Eh          -18662.23715 eV
Kinetic Energy     :        341.74603646981342 Eh            9299.38242 eV
Virial Ratio       :          2.00682543172276

DFT components:
N(Alpha)           :       24.999993234248 electrons
N(Beta)            :       24.999993234248 electrons
N(Total)           :       49.999986468496 electrons
E(X)               :      -42.972481289377 Eh       
E(C)               :       -1.680894928061 Eh       
E(XC)              :      -44.653376217438 Eh       

---------------
SCF CONVERGENCE
---------------

  Last Energy change         ...    1.5861e-06  Tolerance :   1.0000e-05
  Last MAX-Density change    ...    7.0229e-04  Tolerance :   1.0000e-03
  Last RMS-Density change    ...    4.7623e-05  Tolerance :   1.0000e-04
  Last DIIS Error            ...    1.2633e-03  Tolerance :   5.0000e-04
  Last Orbital Gradient      ...    2.2482e-04  Tolerance :   1.0000e-04
  Last Orbital Rotation      ...    2.4536e-04  Tolerance :   1.0000e-04


----------------
ORBITAL ENERGIES
----------------

  NO   OCC          E(Eh)            E(eV) 
   0   2.0000     -18.756006      -510.3769 
   1   2.0000     -18.751891      -510.2649 
   2   2.0000     -18.748757      -510.1796 
   3   2.0000      -9.936130      -270.3758 
   4   2.0000      -9.930134      -270.2127 
   5   2.0000      -9.924420      -270.0572 
   6   2.0000      -0.939297       -25.5596 
   7   2.0000      -0.925553       -25.1856 
   8   2.0000      -0.916162       -24.9300 
   9   2.0000      -0.680976       -18.5303 
  10   2.0000      -0.603284       -16.4162 
  11   2.0000      -0.543298       -14.7839 
  12   2.0000      -0.479122       -13.0376 
  13   2.0000      -0.470976       -12.8159 
  14   2.0000      -0.443907       -12.0793 
  15   2.0000      -0.404573       -11.0090 
  16   2.0000      -0.391818       -10.6619 
  17   2.0000      -0.360204        -9.8016 
  18   2.0000      -0.348471        -9.4824 
  19   2.0000      -0.306912        -8.3515 
  20   2.0000      -0.279957        -7.6180 
  21   2.0000      -0.275173        -7.4878 
  22   2.0000      -0.245631        -6.6840 
  23   2.0000      -0.228372        -6.2143 
  24   2.0000      -0.201308        -5.4779 
  25   0.0000       0.002249         0.0612 
  26   0.0000       0.024118         0.6563 
  27   0.0000       0.052715         1.4344 
  28   0.0000       0.075508         2.0547 
  29   0.0000       0.098229         2.6729 
  30   0.0000       0.109258         2.9731 
  31   0.0000       0.123951         3.3729 
  32   0.0000       0.131272         3.5721 
  33   0.0000       0.154044         4.1918 
  34   0.0000       0.185379         5.0444 
  35   0.0000       0.198362         5.3977 
*Only the first 10 virtual orbitals were printed.

                    ********************************
                    * MULLIKEN POPULATION ANALYSIS *
                    ********************************

-----------------------
MULLIKEN ATOMIC CHARGES
-----------------------
   0 C :    0.025430
   1 C :   -0.033847
   2 C :    0.032336
   3 O :   -0.428178
   4 O :   -0.427928
   5 O :   -0.432569
   6 H :    0.088877
   7 H :    0.072423
   8 H :    0.051546
   9 H :    0.084891
  10 H :    0.087846
  11 H :    0.298265
  12 H :    0.292503
  13 H :    0.288407
Sum of atomic charges:   -0.0000000

--------------------------------
MULLIKEN REDUCED ORBITAL CHARGES
--------------------------------
  0 C s       :     3.047590  s :     3.047590
      pz      :     0.976403  p :     2.865296
      px      :     0.800922
      py      :     1.087971
      dz2     :     0.015713  d :     0.061684
      dxz     :     0.014245
      dyz     :     0.003542
      dx2y2   :     0.017168
      dxy     :     0.011017

  1 C s       :     3.085699  s :     3.085699
      pz      :     1.049064  p :     2.880880
      px      :     1.046705
      py      :     0.785110
      dz2     :     0.015364  d :     0.067268
      dxz     :     0.005757
      dyz     :     0.013051
      dx2y2   :     0.018120
      dxy     :     0.014976

  2 C s       :     3.045186  s :     3.045186
      pz      :     1.089256  p :     2.859861
      px      :     1.007616
      py      :     0.762990
      dz2     :     0.014331  d :     0.062616
      dxz     :     0.004705
      dyz     :     0.009734
      dx2y2   :     0.014633
      dxy     :     0.019213

  3 O s       :     3.790722  s :     3.790722
      pz      :     1.351104  p :     4.621769
      px      :     1.869131
      py      :     1.401535
      dz2     :     0.007853  d :     0.015687
      dxz     :     0.000883
      dyz     :     0.001707
      dx2y2   :     0.003159
      dxy     :     0.002085

  4 O s       :     3.792832  s :     3.792832
      pz      :     1.720817  p :     4.619833
      px      :     1.587911
      py      :     1.311105
      dz2     :     0.001384  d :     0.015264
      dxz     :     0.004340
      dyz     :     0.003036
      dx2y2   :     0.003784
      dxy     :     0.002720

  5 O s       :     3.791005  s :     3.791005
      pz      :     1.750732  p :     4.625966
      px      :     1.419051
      py      :     1.456182
      dz2     :     0.002278  d :     0.015598
      dxz     :     0.003315
      dyz     :     0.002584
      dx2y2   :     0.004606
      dxy     :     0.002815

  6 H s       :     0.911123  s :     0.911123

  7 H s       :     0.927577  s :     0.927577

  8 H s       :     0.948454  s :     0.948454

  9 H s       :     0.915109  s :     0.915109

 10 H s       :     0.912154  s :     0.912154

 11 H s       :     0.701735  s :     0.701735

 12 H s       :     0.707497  s :     0.707497

 13 H s       :     0.711593  s :     0.711593


------------------------
MULLIKEN OVERLAP CHARGES
------------------------
B(  0-C ,  1-C ) :   0.6594 B(  0-C ,  2-C ) :  -0.0612 B(  0-C ,  4-O ) :  -0.0970 
B(  0-C ,  5-O ) :   0.6780 B(  0-C ,  6-H ) :   0.6377 B(  0-C ,  7-H ) :   0.6682 
B(  0-C ,  8-H ) :  -0.1271 B(  0-C , 13-H ) :  -0.0812 B(  1-C ,  2-C ) :   0.4064 
B(  1-C ,  3-O ) :  -0.0979 B(  1-C ,  4-O ) :   0.5483 B(  1-C ,  5-O ) :  -0.1282 
B(  1-C ,  6-H ) :  -0.0759 B(  1-C ,  7-H ) :  -0.0691 B(  1-C ,  8-H ) :   0.6477 
B(  1-C ,  9-H ) :  -0.0579 B(  1-C , 12-H ) :  -0.0683 B(  2-C ,  3-O ) :   0.6410 
B(  2-C ,  4-O ) :  -0.1048 B(  2-C ,  8-H ) :  -0.0564 B(  2-C ,  9-H ) :   0.6542 
B(  2-C , 10-H ) :   0.6731 B(  2-C , 11-H ) :  -0.0960 B(  3-O ,  6-H ) :   0.0588 
B(  3-O , 10-H ) :  -0.0603 B(  3-O , 11-H ) :   0.5271 B(  4-O ,  8-H ) :  -0.0587 
B(  4-O , 12-H ) :   0.5017 B(  5-O ,  6-H ) :  -0.0643 B(  5-O ,  7-H ) :  -0.0550 
B(  5-O , 13-H ) :   0.5113 B(  6-H ,  7-H ) :  -0.0580 B(  9-H , 10-H ) :  -0.0775 



                     *******************************
                     * LOEWDIN POPULATION ANALYSIS *
                     *******************************

----------------------
LOEWDIN ATOMIC CHARGES
----------------------
   0 C :   -0.142484
   1 C :   -0.102079
   2 C :   -0.127007
   3 O :   -0.329493
   4 O :   -0.331252
   5 O :   -0.341118
   6 H :    0.116189
   7 H :    0.101741
   8 H :    0.094389
   9 H :    0.101052
  10 H :    0.116192
  11 H :    0.284926
  12 H :    0.281193
  13 H :    0.277753

-------------------------------
LOEWDIN REDUCED ORBITAL CHARGES
-------------------------------
  0 C s       :     2.927515  s :     2.927515
      pz      :     1.051243  p :     3.073580
      px      :     0.900657
      py      :     1.121680
      dz2     :     0.035956  d :     0.141389
      dxz     :     0.033496
      dyz     :     0.007582
      dx2y2   :     0.038754
      dxy     :     0.025601

  1 C s       :     2.909506  s :     2.909506
      pz      :     1.086360  p :     3.035762
      px      :     1.083370
      py      :     0.866032
      dz2     :     0.035723  d :     0.156812
      dxz     :     0.014252
      dyz     :     0.029352
      dx2y2   :     0.042131
      dxy     :     0.035355

  2 C s       :     2.921776  s :     2.921776
      pz      :     1.118846  p :     3.062241
      px      :     1.064141
      py      :     0.879254
      dz2     :     0.033405  d :     0.142990
      dxz     :     0.010890
      dyz     :     0.019097
      dx2y2   :     0.035178
      dxy     :     0.044420

  3 O s       :     3.540386  s :     3.540386
      pz      :     1.424831  p :     4.761908
      px      :     1.863534
      py      :     1.473543
      dz2     :     0.013726  d :     0.027199
      dxz     :     0.001304
      dyz     :     0.003137
      dx2y2   :     0.005678
      dxy     :     0.003354

  4 O s       :     3.543949  s :     3.543949
      pz      :     1.757381  p :     4.760600
      px      :     1.622861
      py      :     1.380358
      dz2     :     0.002219  d :     0.026703
      dxz     :     0.006594
      dyz     :     0.005103
      dx2y2   :     0.007623
      dxy     :     0.005164

  5 O s       :     3.545593  s :     3.545593
      pz      :     1.783931  p :     4.768539
      px      :     1.469325
      py      :     1.515283
      dz2     :     0.003415  d :     0.026986
      dxz     :     0.005939
      dyz     :     0.003703
      dx2y2   :     0.008621
      dxy     :     0.005307

  6 H s       :     0.883811  s :     0.883811

  7 H s       :     0.898259  s :     0.898259

  8 H s       :     0.905611  s :     0.905611

  9 H s       :     0.898948  s :     0.898948

 10 H s       :     0.883808  s :     0.883808

 11 H s       :     0.715074  s :     0.715074

 12 H s       :     0.718807  s :     0.718807

 13 H s       :     0.722247  s :     0.722247


---------------------------------
LOEWDIN BOND ORDERS (THRESH 0.050000)
---------------------------------
B(  0-C ,  1-C ) :   1.0655 B(  0-C ,  2-C ) :   0.0587 B(  0-C ,  4-O ) :   0.0772 
B(  0-C ,  5-O ) :   1.2375 B(  0-C ,  6-H ) :   0.8997 B(  0-C ,  7-H ) :   0.9073 
B(  1-C ,  2-C ) :   1.0536 B(  1-C ,  3-O ) :   0.0813 B(  1-C ,  4-O ) :   1.2043 
B(  1-C ,  5-O ) :   0.0842 B(  1-C ,  8-H ) :   0.8763 B(  2-C ,  3-O ) :   1.2473 
B(  2-C ,  4-O ) :   0.0685 B(  2-C ,  9-H ) :   0.9079 B(  2-C , 10-H ) :   0.9091 
B(  3-O , 11-H ) :   0.8900 B(  4-O , 12-H ) :   0.8844 B(  5-O , 13-H ) :   0.8922 


------------------------------------------
LOEWDIN REDUCED ORBITAL POPULATIONS PER MO
-------------------------------------------
THRESHOLD FOR PRINTING IS 0.1%%
                      0         1         2         3         4         5   
                 -18.75601 -18.75189 -18.74876  -9.93613  -9.93013  -9.92442
                   2.00000   2.00000   2.00000   2.00000   2.00000   2.00000
                  --------  --------  --------  --------  --------  --------
 0 C  s               0.0       0.0       0.0       0.0       0.0      99.6
 1 C  s               0.0       0.0       0.0      99.6       0.0       0.0
 2 C  s               0.0       0.0       0.0       0.0      99.6       0.0
 3 O  s               0.0      99.9       0.0       0.0       0.0       0.0
 3 O  py              0.0       0.0       0.0       0.0       0.1       0.0
 4 O  s              99.9       0.0       0.0       0.0       0.0       0.0
 4 O  py              0.0       0.0       0.0       0.1       0.0       0.0
 5 O  s               0.0       0.0      99.9       0.0       0.0       0.0

                      6         7         8         9        10        11   
                  -0.93930  -0.92555  -0.91616  -0.68098  -0.60328  -0.54330
                   2.00000   2.00000   2.00000   2.00000   2.00000   2.00000
                  --------  --------  --------  --------  --------  --------
 0 C  s               4.5       1.5       4.5      10.7      16.9       3.7
 0 C  pz              0.8       0.3       0.7       0.0       0.1       1.6
 0 C  px              0.4       1.3       5.8       4.9       0.3       1.0
 0 C  py              0.8       0.2       0.0       0.1       0.4       2.3
 0 C  dxz             0.0       0.1       0.3       0.1       0.0       0.1
 0 C  dx2y2           0.1       0.1       0.2       0.0       0.0       0.0
 1 C  s               9.5       0.1       1.5      19.3       0.0       9.3
 1 C  pz              0.3       0.0       0.0       0.9       0.0       2.8
 1 C  px              0.1       1.6       0.2       0.3      11.2       0.1
 1 C  py              3.0       1.2       5.1       4.4       0.9       0.9
 1 C  dz2             0.1       0.0       0.1       0.0       0.0       0.0
 1 C  dxz             0.0       0.0       0.0       0.0       0.2       0.0
 1 C  dx2y2           0.2       0.0       0.3       0.2       0.0       0.0
 1 C  dxy             0.0       0.0       0.0       0.0       0.1       0.0
 2 C  s               3.9       6.9       0.1      11.1      15.3       4.4
 2 C  pz              0.3       0.4       0.0       0.0       0.3       4.7
 2 C  px              0.3       0.6       0.2       3.6       0.4       2.9
 2 C  py              0.5       7.3       0.9       1.7       1.4       1.6
 2 C  dz2             0.0       0.1       0.0       0.0       0.0       0.0
 2 C  dyz             0.0       0.1       0.0       0.0       0.0       0.0
 2 C  dx2y2           0.0       0.4       0.0       0.2       0.0       0.1
 3 O  s               9.8      47.1       2.3       3.3       1.5       0.1
 3 O  pz              0.2       1.1       0.1       1.3       3.4       9.4
 3 O  px              0.0       0.0       0.0       0.4       0.2       0.3
 3 O  py              0.5       1.6       0.1       1.7       5.1       6.1
 3 O  dz2             0.0       0.0       0.0       0.1       0.1       0.1
 4 O  s              33.1       3.4      22.6       4.2       0.0       0.9
 4 O  pz              0.7       0.1       0.5       0.4       0.0       0.1
 4 O  px              0.6       0.1       0.4       1.4       0.9       3.2
 4 O  py              0.8       0.0       0.3       5.1       0.1      12.8
 4 O  dx2y2           0.0       0.0       0.0       0.1       0.0       0.1
 5 O  s              12.6       9.4      37.8       1.9       2.5       0.1
 5 O  pz              0.3       0.2       0.8       0.1       0.4       0.5
 5 O  px              0.3       0.1       0.4       2.0       7.8       2.7
 5 O  py              0.3       0.2       0.9       0.7       3.6       2.7
 5 O  dx2y2           0.0       0.0       0.0       0.0       0.1       0.0
 6 H  s               0.6       0.1       0.6       2.5       5.6       2.4
 7 H  s               0.6       0.2       0.4       2.2       4.2       2.0
 8 H  s               1.3       0.0       0.1       3.7       0.0       5.1
 9 H  s               0.6       0.7       0.0       2.0       5.2       0.9
10 H  s               0.6       0.7       0.0       2.7       4.7       3.9
11 H  s               2.0       9.6       0.5       1.8       2.7       4.6
12 H  s               7.0       0.8       4.5       3.3       0.2       4.4
13 H  s               2.8       2.0       7.7       1.3       4.0       1.5

                     12        13        14        15        16        17   
                  -0.47912  -0.47098  -0.44391  -0.40457  -0.39182  -0.36020
                   2.00000   2.00000   2.00000   2.00000   2.00000   2.00000
                  --------  --------  --------  --------  --------  --------
 0 C  s               0.8       0.2       0.7       0.3       0.5       0.3
 0 C  pz             10.9       4.0       4.2       0.2      12.9       0.8
 0 C  px              0.4      10.7       1.2       1.0       2.2       1.0
 0 C  py              0.3       4.0       0.6      19.3       2.1      12.3
 0 C  dz2             0.0       0.0       0.0       0.1       0.0       0.0
 0 C  dxz             0.0       0.4       0.1       0.0       0.0       0.1
 0 C  dx2y2           0.0       0.1       0.0       0.0       0.1       0.4
 1 C  s               1.8       0.4       0.3       0.0       0.1       0.0
 1 C  pz             18.2       1.8       0.1       1.4       5.6       8.3
 1 C  px              0.3       4.0       3.2       9.4       2.9       1.2
 1 C  py              7.5       2.3       5.3       1.4       1.9       2.7
 1 C  dz2             0.1       0.0       0.0       0.0       0.0       0.1
 1 C  dxz             0.0       0.1       0.0       0.1       0.1       0.0
 1 C  dx2y2           0.1       0.0       0.3       0.1       0.1       0.3
 2 C  s               0.0       0.9       1.6       0.2       0.5       0.3
 2 C  pz              2.7       1.7       2.8       0.0      17.8       9.6
 2 C  px              0.1       3.2       0.0      16.9       1.3       6.1
 2 C  py              2.4       6.4      10.7       0.8       2.9       1.3
 2 C  dz2             0.0       0.0       0.1       0.0       0.3       0.1
 2 C  dxz             0.1       0.0       0.0       0.1       0.0       0.0
 2 C  dx2y2           0.0       0.0       0.4       0.0       0.2       0.0
 2 C  dxy             0.0       0.0       0.2       0.0       0.0       0.0
 3 O  s               0.2       0.4       2.6       0.1       0.1       1.2
 3 O  pz              0.8       3.9      19.2       0.0       0.7       4.1
 3 O  px              0.9       1.3       0.6       6.6       0.3       4.3
 3 O  py              2.6       0.2       2.1       0.9      11.0       7.7
 3 O  dz2             0.0       0.0       0.1       0.0       0.1       0.0
 4 O  s               1.2       0.3       0.1       2.5       0.1       0.6
 4 O  pz              7.5       0.0       0.5       1.2       1.1       7.2
 4 O  px              6.1       3.4       1.8       5.2       3.1       0.1
 4 O  py              7.4       0.2      13.4       2.0       0.8       2.7
 5 O  s               0.2       1.2       0.3       2.3       0.5       0.0
 5 O  pz              1.7       0.0       0.3       1.6       5.3       0.6
 5 O  px              0.3      11.4       3.5       5.6       2.0       7.5
 5 O  py              0.2      18.5       2.1       4.2       0.0       0.1
 5 O  dx2y2           0.0       0.1       0.0       0.0       0.0       0.0
 6 H  s               0.0       0.1       0.9       7.3       1.0       8.4
 7 H  s               5.5       2.6       2.5       1.6       6.4       0.2
 8 H  s              11.6       0.0       0.1       0.6       1.2       3.7
 9 H  s               0.1       5.4       5.8       6.1       0.2       0.8
10 H  s               1.0       0.0       0.1       0.1      11.3       4.5
11 H  s               1.0       1.3       5.8       0.0       1.9       0.1
12 H  s               5.5       0.6       4.1       0.2       0.6       0.0
13 H  s               0.1       8.5       1.8       0.0       0.4       0.8

                     18        19        20        21        22        23   
                  -0.34847  -0.30691  -0.27996  -0.27517  -0.24563  -0.22837
                   2.00000   2.00000   2.00000   2.00000   2.00000   2.00000
                  --------  --------  --------  --------  --------  --------
 0 C  s               0.5       0.4       0.1       0.0       0.5       0.2
 0 C  pz              5.7       2.0       4.8       0.1       0.5       0.9
 0 C  px             10.0       0.2       0.7       0.1       0.9       0.5
 0 C  py              2.7       0.1       6.1       0.0       1.0       0.0
 0 C  dz2             0.1       0.0       0.6       0.1       0.5       0.2
 0 C  dxz             0.0       0.0       0.0       0.0       0.2       0.0
 0 C  dx2y2           0.3       0.0       0.1       0.0       0.1       0.2
 0 C  dxy             0.0       0.2       0.4       0.0       0.1       0.0
 1 C  s               0.2       0.2       0.5       0.2       0.6       1.7
 1 C  pz              3.6       2.0       0.2       4.2       0.4       3.7
 1 C  px              7.0       0.1       0.1       1.7       0.1       1.1
 1 C  py              0.1       2.7       1.6       0.0       0.7       1.0
 1 C  dz2             0.2       0.1       0.4       0.3       0.1       0.1
 1 C  dxz             0.1       0.0       0.1       0.0       0.0       0.0
 1 C  dyz             0.0       0.1       0.0       0.1       0.5       0.2
 1 C  dx2y2           0.1       0.0       0.1       0.2       0.0       0.0
 1 C  dxy             0.1       0.6       0.0       0.0       0.2       0.1
 2 C  s               0.1       0.5       0.2       0.1       0.0       0.0
 2 C  pz              4.6       0.0       0.3      10.6       0.0       0.0
 2 C  px             10.3       1.3       0.2       0.2       0.1       2.3
 2 C  py              0.2       0.5       0.0       4.9       0.0       0.3
 2 C  dz2             0.2       0.0       0.0       0.7       0.0       0.0
 2 C  dxz             0.2       0.0       0.0       0.0       0.0       0.0
 2 C  dyz             0.0       0.1       0.0       0.5       0.0       0.0
 2 C  dx2y2           0.0       0.0       0.0       0.0       0.0       0.3
 2 C  dxy             0.0       0.0       0.0       0.1       0.0       1.1
 3 O  s               0.7       1.6       0.5       5.5       0.0       0.0
 3 O  pz              0.8       6.1       2.6      16.1       0.3       0.6
 3 O  px              2.6       1.2       5.0       0.6       0.9      53.5
 3 O  py              8.1       4.1       0.6      18.5       0.2       2.2
 4 O  s               0.7       5.2       0.3       1.6       0.1       0.1
 4 O  pz              5.7       9.0       4.5       1.9      28.6       9.8
 4 O  px              0.1      20.6       0.2       5.2      16.5       2.4
 4 O  py              0.9      14.9       4.2       1.1       0.5       0.5
 5 O  s               0.3       2.3       5.6       0.0       0.4       0.0
 5 O  pz             11.2       1.3      12.5       0.0      30.5       6.9
 5 O  px              2.2       4.2       7.1       0.2       5.8       0.5
 5 O  py              0.2      11.0      18.3       0.0       4.4       0.5
 6 H  s               4.9       0.1       7.3       0.1       0.2       0.6
 7 H  s               2.9       0.3       7.6       0.4       2.3       1.7
 8 H  s               3.1       2.0       2.6       4.7       2.2       2.2
 9 H  s               4.2       0.9       0.1       5.6       0.0       3.2
10 H  s               3.8       0.3       0.4       9.5       0.0       0.4
11 H  s               0.0       0.7       0.3       3.3       0.1       0.0
12 H  s               0.7       1.9       0.1       1.3       0.1       0.3
13 H  s               0.4       1.0       3.2       0.0       0.2       0.1

                     24        25        26        27        28        29   
                  -0.20131   0.00225   0.02412   0.05271   0.07551   0.09823
                   2.00000   0.00000   0.00000   0.00000   0.00000   0.00000
                  --------  --------  --------  --------  --------  --------
 0 C  s               0.4       0.1       0.5       1.5       2.6       5.9
 0 C  pz              1.8       1.3       0.0       6.0       2.3       1.9
 0 C  px              2.5       1.4       0.3       1.2       3.5       1.0
 0 C  py              3.7       0.1       0.5       0.1       0.3       8.7
 0 C  dz2             0.2       0.0       0.1       0.4       0.0       0.1
 0 C  dxz             0.2       0.0       0.1       0.3       0.3       0.0
 0 C  dyz             0.0       0.1       0.1       0.2       0.0       0.0
 0 C  dx2y2           0.2       0.2       0.0       0.0       0.2       0.8
 0 C  dxy             0.2       0.2       0.0       0.0       0.1       0.0
 1 C  s               0.1       0.0       2.2       0.4       0.2       0.0
 1 C  pz              0.7       0.6       3.5       2.6       0.1       0.3
 1 C  px              9.3       0.3       0.3       0.1       0.1       0.2
 1 C  py              0.6       1.6       0.1       3.3       0.2       1.7
 1 C  dz2             0.1       0.0       0.0       1.0       0.0       0.0
 1 C  dxz             0.1       0.1       0.1       0.0       0.1       0.0
 1 C  dyz             0.2       0.0       0.0       0.1       0.0       0.1
 1 C  dx2y2           0.0       0.4       0.2       0.1       0.1       1.0
 1 C  dxy             0.4       0.1       0.0       0.1       0.0       0.0
 2 C  s               0.1       0.1       1.6       0.0      11.3       1.6
 2 C  pz              0.2       0.1       0.3       1.5       5.0       1.6
 2 C  px              2.9       0.1       0.5       0.2       0.7       1.2
 2 C  py              0.1       2.0       4.4       1.0       0.9       3.0
 2 C  dz2             0.0       0.1       0.0       0.3       0.1       0.0
 2 C  dxz             0.0       0.0       0.1       0.1       0.1       0.0
 2 C  dyz             0.0       0.1       0.4       0.0       0.0       0.1
 2 C  dx2y2           0.0       0.3       0.2       0.2       0.0       0.2
 2 C  dxy             0.5       0.1       0.0       0.1       0.0       0.3
 3 O  s               0.0       1.2       7.8       0.8       0.6       0.1
 3 O  pz              0.5       0.3       8.0       0.2       0.8       0.2
 3 O  px             14.4       0.0       0.0       0.1       0.2       0.2
 3 O  py              0.3       0.6       0.1       0.7       0.1       0.3
 3 O  dyz             0.0       0.0       0.0       0.0       0.1       0.0
 4 O  s               0.2       5.8       0.2       3.7       0.7       0.4
 4 O  pz              9.2       1.2       0.0       2.0       0.0       0.2
 4 O  px              9.9       4.8       0.3       0.4       0.0       0.2
 4 O  py              1.1       0.0       0.8       0.1       0.6       1.2
 5 O  s               0.1       5.0       0.0       4.3       1.8       0.2
 5 O  pz             15.0       0.2       0.1       0.9       1.3       0.2
 5 O  px              9.8       0.0       0.2       0.5       0.2       1.6
 5 O  py              7.8       5.4       0.3       2.3       0.3       0.7
 5 O  dxy             0.0       0.0       0.0       0.1       0.0       0.1
 6 H  s               1.3       0.1       1.2       0.7       0.0      33.7
 7 H  s               1.2       1.2       0.1      14.8      10.8       5.1
 8 H  s               1.0       1.0      10.2       9.4       0.3       0.8
 9 H  s               2.9       0.2       6.5       0.3       9.3      16.3
10 H  s               0.0       0.1       0.5       2.5      31.3       0.4
11 H  s               0.0       2.5      45.6       1.3       5.9       0.8
12 H  s               0.4      32.4       1.9      13.3       2.9       0.0
13 H  s               0.1      28.1       0.6      20.6       4.3       7.4

                     30        31        32        33        34        35   
                   0.10926   0.12395   0.13127   0.15404   0.18538   0.19836
                   0.00000   0.00000   0.00000   0.00000   0.00000   0.00000
                  --------  --------  --------  --------  --------  --------
 0 C  s               1.1       0.8       6.3       3.3       2.4       0.1
 0 C  pz              0.6       0.7       3.0       3.4       4.7       1.0
 0 C  px              0.0       4.6       0.0       0.8      23.2       6.1
 0 C  py              0.1       3.7       4.7       3.1       0.1       2.8
 0 C  dz2             0.0       0.2       0.3       0.2       0.2       0.0
 0 C  dxz             0.1       0.3       0.1       0.1       4.4       0.5
 0 C  dyz             0.2       0.1       0.1       0.0       0.4       1.2
 0 C  dx2y2           0.0       0.6       0.5       0.7       0.5       0.1
 0 C  dxy             0.0       0.1       0.0       0.2       0.2       0.5
 1 C  s               6.1       2.8       0.7       0.0       0.0       0.6
 1 C  pz              8.4       1.2       0.2       0.3       1.0       0.6
 1 C  px              0.1       1.4       1.1       2.2       0.6      18.8
 1 C  py              0.0       3.0       2.4       9.7      15.4       0.6
 1 C  dz2             0.2       0.1       0.0       0.0       0.9       0.3
 1 C  dxz             0.2       0.2       1.4       0.4       0.0       1.8
 1 C  dyz             0.0       0.2       0.1       0.2       1.8       0.1
 1 C  dx2y2           0.1       0.6       0.6       2.4       0.7       0.4
 1 C  dxy             0.0       0.3       0.0       0.2       0.0       2.2
 2 C  s               0.3       1.2       1.7       0.4       2.4       9.7
 2 C  pz              1.3       2.7       8.1       0.7       0.1       7.5
 2 C  px              2.0       9.6       0.2       5.7       3.3       5.4
 2 C  py              1.4       1.3       0.3      11.7       1.9       8.8
 2 C  dz2             0.3       0.1       0.9       0.0       0.0       1.7
 2 C  dxz             0.6       0.1       0.0       0.4       0.9       1.7
 2 C  dyz             0.2       0.0       0.0       0.0       0.4       0.1
 2 C  dx2y2           0.1       0.1       0.0       3.5       0.0       0.6
 2 C  dxy             0.0       0.0       0.1       0.3       0.1       1.1
 3 O  s               2.6       0.0       0.1       0.8       0.5       1.8
 3 O  pz              0.9       0.2       0.0       4.8       0.2       0.3
 3 O  px              0.4       0.3       0.0       1.2       0.0       1.2
 3 O  py              0.4       1.1       0.1       4.7       0.0       8.4
 3 O  dz2             0.0       0.0       0.0       0.2       0.0       0.2
 3 O  dyz             0.0       0.0       0.1       0.1       0.0       0.0
 3 O  dx2y2           0.1       0.1       0.0       0.1       0.0       0.4
 3 O  dxy             0.0       0.0       0.0       0.0       0.0       0.3
 4 O  s               1.5       0.5       0.1       1.0       0.5       0.3
 4 O  pz              2.3       0.1       0.1       0.0       0.3       0.2
 4 O  px              1.8       0.2       0.5       1.0       0.2       1.9
 4 O  py              0.2       3.0       1.2       4.6       4.8       0.0
 4 O  dyz             0.1       0.1       0.0       0.1       0.2       0.0
 4 O  dx2y2           0.0       0.1       0.0       0.1       0.2       0.0
 4 O  dxy             0.0       0.0       0.0       0.0       0.0       0.5
 5 O  s               0.4       0.4       1.1       0.5       2.2       0.6
 5 O  pz              0.2       0.9       0.4       0.0       2.0       0.1
 5 O  px              0.3       0.4       0.1       2.8       7.7       1.3
 5 O  py              0.1       0.0       1.3       0.4       3.1       0.5
 5 O  dxz             0.0       0.1       0.1       0.0       0.4       0.0
 5 O  dyz             0.0       0.0       0.0       0.0       0.0       0.1
 5 O  dx2y2           0.0       0.0       0.0       0.1       0.2       0.0
 6 H  s               0.2      15.1       1.4      12.6       0.2       1.1
 7 H  s               2.8       2.0      24.7       1.9       1.3       0.4
 8 H  s              33.5       7.0       2.2       0.2       1.0       2.3
 9 H  s               2.8      28.7       1.6       0.2       1.5       0.7
10 H  s               2.2       1.9      22.2       1.4       1.5       0.9
11 H  s               7.5       0.2       0.9       7.8       0.4       0.8
12 H  s              14.5       1.2       3.6       2.4       1.7       0.6
13 H  s               1.7       0.1       5.1       0.7       4.1       0.6

                     36        37        38        39        40        41   
                   0.21867   0.24290   0.42334   0.44021   0.46671   0.47093
                   0.00000   0.00000   0.00000   0.00000   0.00000   0.00000
                  --------  --------  --------  --------  --------  --------
 0 C  s               6.4       0.0       4.4       2.1       3.3       3.4
 0 C  pz             12.3       0.8      15.8       2.0       2.3       2.0
 0 C  px              1.3       3.5       1.7      25.4       0.1       8.3
 0 C  py              8.4       1.7       7.2       0.5       0.7      18.6
 0 C  dz2             0.1       0.4       0.6       0.3       1.4       3.1
 0 C  dxz             0.0       0.1       0.1       0.4       0.1       0.0
 0 C  dyz             2.2       0.0       1.8       0.1       0.0       0.9
 0 C  dx2y2           1.6       0.1       0.2       0.1       0.1       0.9
 0 C  dxy             1.6       1.5       0.1       0.6       0.0       0.1
 1 C  s               6.3      16.4       0.1       0.7       4.3       0.2
 1 C  pz              3.6       9.5       1.4       0.2       1.6       5.1
 1 C  px              8.5       2.4       1.6      12.9       1.0       4.0
 1 C  py              4.3       5.5      12.4       0.9       3.7       1.3
 1 C  dz2             0.7       1.6       0.0       0.4       1.8       1.8
 1 C  dxz             1.3       0.4       0.8       1.9       0.6       0.1
 1 C  dyz             0.5       0.1       0.1       0.0       0.1       0.9
 1 C  dx2y2           0.4       0.2       0.0       0.0       0.0       0.5
 1 C  dxy             0.6       0.1       0.5       0.0       0.1       0.8
 2 C  s               1.2       0.4       6.3       0.6       5.9       2.7
 2 C  pz              2.4       0.5       4.4      11.9       0.2       2.5
 2 C  px              0.4      13.2       2.5       1.3       7.7       2.2
 2 C  py              5.6       7.9       7.2       0.6      31.0       3.8
 2 C  dz2             1.4       0.1       0.1       4.6       0.0       0.0
 2 C  dxz             0.0       0.7       0.1       0.0       0.1       1.3
 2 C  dyz             0.9       0.3       0.5       0.2       0.4       0.2
 2 C  dx2y2           0.0       2.9       0.0       0.7       0.1       0.0
 2 C  dxy             0.0       1.1       0.0       0.2       0.0       0.7
 3 O  s               0.4       0.7       0.1       1.0       0.2       0.2
 3 O  pz              1.1       0.8       1.2       0.6       1.2       0.4
 3 O  px              0.2       3.1       0.3       0.1       0.2       0.1
 3 O  py              2.1       1.6       1.7       0.1       3.5       0.7
 3 O  dz2             0.0       0.0       0.9       0.0       1.2       0.3
 3 O  dyz             0.1       0.1       0.0       0.2       0.1       0.0
 3 O  dx2y2           0.1       0.2       0.2       0.0       1.0       0.2
 3 O  dxy             0.1       0.1       0.1       0.0       0.2       0.0
 4 O  s               0.0       2.0       0.6       0.0       0.6       0.1
 4 O  pz              0.6       0.0       0.7       0.0       1.0       3.6
 4 O  px              0.4       0.3       0.0       0.3       0.2       1.9
 4 O  py              0.4       8.2       1.9       0.2       0.8       0.1
 4 O  dz2             0.0       0.1       0.1       0.0       0.1       0.0
 4 O  dxz             0.2       0.1       0.1       0.2       0.1       0.3
 4 O  dyz             0.1       0.0       0.0       0.0       0.3       0.1
 4 O  dx2y2           0.1       1.2       0.4       0.0       0.4       0.0
 4 O  dxy             0.0       0.1       0.1       0.0       0.1       0.2
 5 O  s               0.3       0.2       0.5       0.4       0.2       0.1
 5 O  pz              0.0       0.5       1.1       0.6       0.9       1.6
 5 O  px              5.1       0.0       1.4       4.4       0.3       0.0
 5 O  py              0.1       0.9       1.0       0.5       0.1       0.1
 5 O  dz2             0.1       0.0       0.0       0.1       0.0       0.0
 5 O  dxz             0.0       0.0       0.5       0.3       0.2       0.1
 5 O  dyz             0.1       0.0       0.3       0.1       0.0       0.1
 5 O  dx2y2           0.4       0.0       0.5       1.0       0.1       0.0
 5 O  dxy             0.0       0.1       0.0       0.0       0.0       0.0
 6 H  s               1.7       1.3       0.6       0.1       1.0       7.6
 7 H  s               2.1       3.4       6.5       0.2       4.8       2.3
 8 H  s               1.3       1.1       0.0       2.5       7.3       4.2
 9 H  s               1.7       0.7       0.7       2.6       0.6       7.0
10 H  s               5.5       0.3       0.4      13.2       0.1       0.0
11 H  s               1.6       0.4       4.0       0.7       3.2       0.9
12 H  s               0.7       0.4       0.8       1.1       2.8       1.8
13 H  s               1.3       0.4       3.1       1.0       0.6       0.3

                     42        43        44        45        46        47   
                   0.49460   0.51164   0.53563   0.55201   0.56685   0.60851
                   0.00000   0.00000   0.00000   0.00000   0.00000   0.00000
                  --------  --------  --------  --------  --------  --------
 0 C  s               3.6       8.6       1.6       0.4       3.3      13.1
 0 C  pz              0.9       2.7       0.8       0.6       4.8       5.0
 0 C  px             14.9       2.7       5.1       2.7      13.0       1.1
 0 C  py              3.2       0.4       0.8       0.5       3.5       1.2
 0 C  dz2             0.9       0.9       0.1       0.5       0.1       0.0
 0 C  dxz             0.0       0.0       0.0       0.2       0.0       0.0
 0 C  dyz             0.0       0.5       0.0       0.2       0.0       0.1
 0 C  dx2y2           1.2       0.0       0.2       0.0       0.0       0.1
 0 C  dxy             0.3       0.7       0.9       0.6       0.1       0.0
 1 C  s               9.3       0.0       0.1       6.0       1.7       2.5
 1 C  pz              0.2       0.1       0.3       0.8       0.6       0.5
 1 C  px              7.2       1.0       9.5       2.4       4.4       6.9
 1 C  py             13.5       6.9      17.5       1.5      14.0       0.2
 1 C  dz2             0.0       0.2       0.1       1.0       0.6       0.1
 1 C  dxz             0.3       0.0       0.0       0.1       0.2       0.0
 1 C  dyz             0.1       0.0       0.8       0.4       0.0       0.2
 1 C  dx2y2           0.5       0.0       0.0       0.2       0.0       0.2
 1 C  dxy             0.3       0.4       0.1       0.0       0.1       0.0
 2 C  s               1.2       0.0       9.5       4.2       0.8       4.3
 2 C  pz              2.5       0.4       2.5       1.8       1.6      11.8
 2 C  px              9.8       7.6       0.5       3.9      12.6       5.5
 2 C  py              2.1       5.0       1.6       6.6       0.8       0.4
 2 C  dz2             0.2       0.6       0.6       0.7       0.3       0.0
 2 C  dxz             0.6       0.3       0.2       0.3       0.3       0.1
 2 C  dyz             0.0       2.1       0.0       0.5       0.1       0.0
 2 C  dxy             0.3       0.2       0.0       0.5       0.8       0.2
 3 O  s               0.1       0.6       0.0       0.1       0.3       0.2
 3 O  pz              0.1       1.2       0.5       1.4       0.1       3.7
 3 O  px              3.3       0.0       0.0       1.4       0.1       0.2
 3 O  py              0.2       0.1       0.7       0.1       0.0       2.7
 3 O  dz2             0.2       1.0       0.0       0.5       0.2       1.1
 3 O  dxz             0.0       0.3       0.0       0.1       0.0       0.0
 3 O  dyz             0.0       0.4       0.1       0.4       0.0       0.0
 3 O  dx2y2           0.0       0.1       0.0       0.2       0.0       0.1
 3 O  dxy             0.0       0.1       0.0       0.2       0.1       0.0
 4 O  s               0.1       0.5       0.3       0.7       0.4       0.1
 4 O  pz              0.3       0.5       0.8       0.9       0.2       0.4
 4 O  px              0.6       0.2       3.8       2.8       0.1       0.4
 4 O  py              1.7       0.4       1.9       1.2       1.1       0.3
 4 O  dz2             0.4       0.0       0.4       0.0       0.0       0.0
 4 O  dxz             0.0       0.2       1.3       0.9       0.0       0.3
 4 O  dyz             0.0       0.1       0.2       0.6       0.0       0.1
 4 O  dx2y2           0.8       0.3       0.0       0.4       0.2       0.0
 4 O  dxy             0.3       0.2       0.5       0.2       0.0       0.1
 5 O  s               0.1       2.6       0.0       0.1       0.3       2.3
 5 O  pz              0.6       0.0       0.5       0.2       3.5       0.6
 5 O  px              0.4       1.1       0.1       0.1       0.6       1.0
 5 O  py              0.1       1.7       0.6       1.5       0.6       0.0
 5 O  dz2             0.1       0.3       0.2       0.5       0.0       0.0
 5 O  dxz             0.3       0.4       0.1       0.0       0.0       0.0
 5 O  dyz             0.0       0.3       0.1       0.1       0.1       0.0
 5 O  dx2y2           0.1       0.9       0.1       0.1       0.2       0.1
 5 O  dxy             0.7       0.5       0.6       0.7       0.2       0.0
 6 H  s               5.9       2.0       1.7       0.5       1.7       5.0
 7 H  s               1.4       2.3       0.4       2.2       2.4       0.9
 8 H  s               0.6       0.0       0.5       4.0      13.2       0.5
 9 H  s               2.4       4.1       1.8       3.0       3.0       1.3
10 H  s               1.4       2.4       3.3       1.0       2.2       5.2
11 H  s               1.2      14.5       0.2       8.9       1.6      13.8
12 H  s               0.5       4.2      19.2      17.1       0.7       5.4
13 H  s               2.6      15.2       7.2      11.4       3.0       0.5

                     48        49        50        51        52        53   
                   0.61438   0.63509   0.65271   0.66019   0.66505   0.67185
                   0.00000   0.00000   0.00000   0.00000   0.00000   0.00000
                  --------  --------  --------  --------  --------  --------
 0 C  s               4.4       2.5       3.7      16.8       0.3       0.8
 0 C  pz             13.6      10.0       1.5       4.3       1.0       1.6
 0 C  px              1.2       0.0       0.2       0.3       0.3       3.0
 0 C  py              1.3       2.5       6.0      18.4       1.3       5.9
 0 C  dz2             0.2       0.1       0.0       0.0       1.2       0.4
 0 C  dxz             0.2       0.1       0.1       0.0       0.1       0.1
 0 C  dyz             0.0       0.1       0.0       0.0       0.0       0.4
 0 C  dx2y2           0.1       1.3       0.0       0.4       0.0       0.0
 0 C  dxy             0.3       0.0       0.2       0.0       0.1       0.0
 1 C  s               0.7      16.2       0.7       0.6       8.6       4.6
 1 C  pz             17.0       0.5       5.5       4.7       8.0       3.5
 1 C  px              7.1      13.1       0.2       4.1       6.5       0.5
 1 C  py              0.5       0.6       2.7       0.2       0.2       4.3
 1 C  dz2             0.1       0.0       0.2       0.0       0.4       0.2
 1 C  dxz             0.1       0.0       0.1       0.1       0.0       0.0
 1 C  dyz             0.1       0.1       0.2       0.0       0.1       0.1
 1 C  dx2y2           0.0       0.1       0.0       0.0       0.0       0.0
 1 C  dxy             0.0       0.2       0.0       0.0       0.1       0.1
 2 C  s               4.5       2.3      13.9       0.1       0.4       9.6
 2 C  pz              4.4       0.6       1.5       2.4      34.2       0.0
 2 C  px              1.0       0.0      16.7       0.7       0.0       1.7
 2 C  py              4.6       0.2      14.7       0.2       0.1       1.6
 2 C  dz2             0.2       0.3       0.0       0.8       0.0       0.1
 2 C  dxz             1.2       0.0       0.0       0.2       0.2       0.3
 2 C  dyz             0.0       0.1       0.1       0.0       0.1       1.0
 2 C  dx2y2           0.2       0.2       0.1       0.0       0.1       0.0
 2 C  dxy             0.1       0.2       0.3       0.2       0.1       0.2
 3 O  s               1.0       1.9       0.3       0.6       0.1       1.7
 3 O  pz              2.0       0.8       0.1       2.5       1.6       2.6
 3 O  px              1.3       1.0       0.0       0.8       0.0       0.3
 3 O  py              0.5       0.0       0.1       0.1       0.4       4.8
 3 O  dz2             0.5       0.0       0.0       0.5       0.1       0.1
 3 O  dyz             0.0       0.0       0.0       0.0       0.1       0.1
 3 O  dx2y2           0.0       0.1       0.0       0.0       0.0       0.1
 4 O  s               0.3       3.5       0.3       0.0       0.2       0.9
 4 O  pz              0.2       0.0       1.1       0.1       1.2       2.8
 4 O  px              0.4       1.0       0.1       0.3       1.1       3.4
 4 O  py              0.2       0.0       0.3       0.1       0.3       0.1
 4 O  dxz             0.0       0.0       0.0       0.0       0.3       0.0
 4 O  dx2y2           0.0       0.1       0.0       0.0       0.1       0.0
 4 O  dxy             0.0       0.0       0.0       0.1       0.4       0.0
 5 O  s               0.8       0.1       0.1       0.2       0.1       1.0
 5 O  pz              0.4       0.7       0.0       0.0       1.5       0.5
 5 O  px              0.0       0.9       0.2       0.9       0.5       0.9
 5 O  py              1.0       8.4       0.5       0.9       0.5       3.5
 5 O  dz2             0.0       0.2       0.0       0.0       0.1       0.1
 5 O  dyz             0.0       0.3       0.0       0.0       0.1       0.1
 5 O  dx2y2           0.0       0.2       0.0       0.0       0.0       0.1
 5 O  dxy             0.1       0.2       0.0       0.0       0.0       0.2
 6 H  s               2.7       8.4       2.9      16.5       0.2       0.9
 7 H  s              12.1       0.9       0.1       3.2       4.3       9.7
 8 H  s               2.1       0.9       6.7       3.3       8.0       2.2
 9 H  s               1.4       0.5      16.9       2.3       0.9       9.7
10 H  s               1.3       5.5       0.3       5.0       3.9       1.2
11 H  s               7.6       0.0       0.2       7.3       0.7       2.2
12 H  s               0.0       0.2       0.5       0.1       9.4       2.1
13 H  s               0.7      12.6       0.2       0.4       0.0       8.6

                     54        55        56        57        58        59   
                   0.67859   0.69927   0.80365   0.89955   0.94954   0.97051
                   0.00000   0.00000   0.00000   0.00000   0.00000   0.00000
                  --------  --------  --------  --------  --------  --------
 0 C  s               1.2       0.3       0.2      15.7       0.5       0.8
 0 C  pz             18.3       4.1       1.0       0.7       0.2       0.3
 0 C  px              1.3       0.0       0.6       5.5       0.1       1.4
 0 C  py             14.3       1.3       0.1       0.2       0.8       2.7
 0 C  dz2             0.0       0.8       0.0       0.0       0.0       1.5
 0 C  dxz             0.0       0.7       0.1       1.3       0.0       0.2
 0 C  dyz             0.2       1.1       0.1       0.7       0.6       0.1
 0 C  dx2y2           0.0       0.2       0.0       0.1       0.0       0.0
 0 C  dxy             0.1       0.6       0.1       0.0       0.6       0.2
 1 C  s               1.1       0.3      24.4       4.4       1.0       0.1
 1 C  pz              5.2      28.2       0.9       0.5       1.6       0.3
 1 C  px              0.5       0.2       0.3       0.4       0.6       0.0
 1 C  py              2.1       0.5       0.5       0.1       0.5       0.8
 1 C  dz2             0.3       1.8       0.0       0.1       0.9       0.4
 1 C  dxz             0.0       0.0       0.2       0.4       0.0       0.0
 1 C  dyz             0.1       0.2       0.5       0.0       0.0       0.1
 1 C  dx2y2           0.0       0.1       0.4       0.3       0.1       0.0
 1 C  dxy             0.0       0.0       0.7       0.0       0.3       0.3
 2 C  s               2.4       0.2      17.0       0.9       0.1       0.8
 2 C  pz              6.7       4.1       0.7       0.2       0.0       0.1
 2 C  px              2.8       0.6       0.0       5.8       0.2       0.1
 2 C  py              1.3       0.8       1.4       3.4       0.1       0.0
 2 C  dz2             0.3       0.6       0.0       0.1       0.1       0.1
 2 C  dxz             0.1       1.4       0.1       0.4       0.6       0.0
 2 C  dyz             0.1       0.2       0.0       0.1       0.1       0.8
 2 C  dx2y2           0.0       0.2       0.8       0.0       0.0       0.0
 2 C  dxy             0.1       0.5       0.7       0.0       0.2       0.0
 3 O  s               0.1       0.1       2.5       6.9       0.7       2.0
 3 O  pz              0.1       2.3      12.2       3.8       0.5       1.4
 3 O  px              1.0       2.3       6.4       0.5       1.3       0.2
 3 O  py              0.3       1.1       1.1       5.4       0.3       1.8
 3 O  dz2             0.0       0.1       0.0       0.0       0.0       0.1
 3 O  dxz             0.0       0.0       0.2       0.0       0.0       0.0
 3 O  dx2y2           0.0       0.0       0.1       0.0       0.0       0.0
[...]
 0 C  pz              0.1       0.1       0.0       0.0       0.1       0.0
 0 C  px              0.1       0.0       0.0       0.1       0.0       0.2
 0 C  py              0.0       0.2       0.0       0.0       0.0       0.1
 0 C  dz2             1.0       2.2       0.5       0.4       1.7       0.8
 0 C  dxz             0.1       0.0       0.0       1.6       0.7       2.9
 0 C  dyz             0.0       0.6       0.1       0.0       1.4       0.4
 0 C  dx2y2           0.0       0.1       0.0       1.5       3.8       0.8
 0 C  dxy             2.4       1.8       0.0       0.1       2.8       0.1
 1 C  s               0.1       0.0       0.1       0.1       0.0       0.0
 1 C  pz              0.3       0.6       0.0       0.1       0.0       0.1
 1 C  px              0.2       0.3       0.3       0.0       0.1       0.1
 1 C  py              0.0       0.0       0.1       0.0       0.1       0.1
 1 C  dz2             0.6       1.5       0.1       0.0       0.3       0.3
 1 C  dxz             1.0       0.6       0.7       0.1       1.1       0.5
 1 C  dyz             2.9       2.5       0.3       0.3       2.8       1.7
 1 C  dx2y2           0.0       0.3       0.3       0.7       1.1       0.1
 1 C  dxy             6.3       0.6       1.5       2.0       2.8       2.8
 2 C  s               0.2       0.0       0.1       0.3       0.1       0.0
 2 C  px              0.1       0.1       0.2       0.1       0.1       0.1
 2 C  py              0.1       0.0       0.1       0.1       0.0       0.1
 2 C  dz2             0.7       0.0       0.2       0.0       0.0       0.0
 2 C  dxz             0.8       0.3       0.1       0.3       0.4       0.0
 2 C  dyz             0.6       0.0       0.6       0.4       0.0       0.5
 2 C  dx2y2           1.2       0.3       1.1       0.4       0.3       0.7
 2 C  dxy             0.8       3.0       6.7       0.1       0.7       0.2
 3 O  s               0.0       0.0       0.2       1.6       0.0       0.4
 3 O  pz              0.0       0.0       0.2       0.5       0.0       0.2
 3 O  px              0.1       0.2       0.5       0.0       0.0       0.0
 3 O  dz2             0.2       1.2       1.7      23.7       0.9       7.8
 3 O  dxz             0.0       0.1       1.0       3.9       0.6       1.6
 3 O  dyz             6.8       0.5       1.0       5.4       0.0       2.8
 3 O  dx2y2           2.1       4.9       1.4       2.7       0.0       0.6
 3 O  dxy             3.2      11.9      37.1       6.6       0.8       1.0
 4 O  s               0.1       0.1       0.9       0.5       0.0       0.3
 4 O  pz              0.5       0.4       0.2       0.3       0.0       0.0
 4 O  px              0.6       0.1       1.0       0.0       0.0       0.3
 4 O  py              0.0       0.1       0.1       0.0       0.0       0.0
 4 O  dz2             0.1       2.8       0.6       0.1       2.4       1.4
 4 O  dxz            21.2       0.0      25.0       7.3       2.2       7.3
 4 O  dyz            17.9      22.9       5.9       0.1       4.2       6.7
 4 O  dx2y2           0.0       2.3       1.3       0.3       1.0       0.4
 4 O  dxy             7.8      11.0       0.1      16.8       2.1       0.4
 5 O  s               0.0       0.2       0.1       0.3       0.8       1.2
 5 O  pz              0.1       0.0       0.0       0.0       0.5       0.0
 5 O  px              0.1       0.1       0.0       0.0       0.2       0.0
 5 O  py              0.2       0.4       0.1       0.1       0.1       0.6
 5 O  dz2             1.7       9.8       2.7      10.6       0.3      21.3
 5 O  dxz             6.2       2.6       0.8       1.0       5.8       0.3
 5 O  dyz             6.2       8.0       1.5       3.1       0.2      10.5
 5 O  dx2y2           3.3       1.8       0.1       0.3      16.3       1.0
 5 O  dxy             1.5       2.8       0.0       0.7      37.3      15.4
11 H  s               0.0       0.1       0.3       3.2       0.2       1.1
12 H  s               0.3       0.0       2.7       1.5       0.1       0.7
13 H  s               0.1       0.2       0.2       0.5       2.7       3.8

                     96        97        98        99   
                   2.94245   3.26787   3.27361   3.30244
                   0.00000   0.00000   0.00000   0.00000
                  --------  --------  --------  --------
 0 C  s               0.0       1.4       0.5       0.9
 0 C  pz              0.0       0.4       0.1       0.3
 0 C  px              0.0       1.8       0.7       0.6
 0 C  dz2             0.9       0.1       0.2       0.1
 0 C  dxz             0.0       2.9       1.1       1.6
 0 C  dyz             0.0       0.0       0.0       0.2
 0 C  dx2y2           0.0       2.8       1.5       0.9
 0 C  dxy             0.0       0.3       0.3       0.0
 1 C  s               0.1       0.0       0.7       1.2
 1 C  px              0.4       0.0       0.0       0.1
 1 C  py              0.3       0.2       1.1       2.5
 1 C  dz2             0.1       0.0       0.5       1.5
 1 C  dxz             1.2       0.1       0.1       0.1
 1 C  dyz             0.9       0.0       0.0       1.4
 1 C  dx2y2           0.0       0.6       4.1       5.5
 1 C  dxy             4.2       0.1       0.9       0.0
 2 C  s               0.0       1.2       1.5       0.2
 2 C  px              0.1       0.1       0.1       0.1
 2 C  py              0.1       1.6       1.2       0.8
 2 C  dz2             0.1       1.0       1.1       0.1
 2 C  dxz             0.1       0.1       0.0       0.0
 2 C  dyz             1.5       0.7       0.1       0.4
 2 C  dx2y2           0.1       2.4       3.1       1.7
 2 C  dxy             2.3       0.4       2.0       0.1
 3 O  s               0.4       1.6       1.6       0.8
 3 O  pz              0.4       0.4       0.4       0.1
 3 O  px              0.2       0.1       0.0       0.1
 3 O  py              0.0       1.4       1.5       0.5
 3 O  dz2            20.3       8.5       7.9       2.7
 3 O  dxz             1.4       0.0       0.0       0.0
 3 O  dyz             5.2       1.8       3.7       0.3
 3 O  dx2y2           1.6      16.6      18.5       3.9
 3 O  dxy             3.9       3.3       1.1       3.5
 4 O  s               1.3       0.1       1.0       3.2
 4 O  pz              0.2       0.0       0.0       0.0
 4 O  px              0.0       0.0       0.1       0.2
 4 O  py              0.0       0.1       1.5       2.8
 4 O  dz2             2.4       0.2       3.2       9.4
 4 O  dxz             8.1       0.0       0.2       0.3
 4 O  dyz             1.7       0.1       3.7       3.0
 4 O  dx2y2           0.3       1.5      17.4      28.2
 4 O  dxy            33.0       0.6       0.3       0.2
 5 O  s               0.1       2.4       0.6       1.3
 5 O  pz              0.0       0.3       0.1       0.1
 5 O  px              0.0       2.0       0.6       1.0
 5 O  py              0.1       0.3       0.2       0.1
 5 O  dz2             1.1       0.9       0.0       0.9
 5 O  dxz             0.2      18.3       8.0       7.2
 5 O  dyz             0.5       0.7       0.2       0.4
 5 O  dx2y2           0.2      18.8       5.8       8.6
 5 O  dxy             0.1       0.8       0.5       0.1
11 H  s               2.3       0.4       0.3       0.1
12 H  s               2.4       0.0       0.4       0.4
13 H  s               0.1       0.4       0.1       0.2


                      *****************************
                      * MAYER POPULATION ANALYSIS *
                      *****************************

  NA   - Mulliken gross atomic population
  ZA   - Total nuclear charge
  QA   - Mulliken gross atomic charge
  VA   - Mayer's total valence
  BVA  - Mayer's bonded valence
  FA   - Mayer's free valence

  ATOM       NA         ZA         QA         VA         BVA        FA
  0 C      5.9746     6.0000     0.0254     3.9291     3.9291    -0.0000
  1 C      6.0338     6.0000    -0.0338     4.0641     4.0641    -0.0000
  2 C      5.9677     6.0000     0.0323     3.9312     3.9312     0.0000
  3 O      8.4282     8.0000    -0.4282     2.0163     2.0163    -0.0000
  4 O      8.4279     8.0000    -0.4279     1.9793     1.9793    -0.0000
  5 O      8.4326     8.0000    -0.4326     2.0007     2.0007     0.0000
  6 H      0.9111     1.0000     0.0889     0.9890     0.9890    -0.0000
  7 H      0.9276     1.0000     0.0724     0.9670     0.9670     0.0000
  8 H      0.9485     1.0000     0.0515     0.9699     0.9699    -0.0000
  9 H      0.9151     1.0000     0.0849     0.9581     0.9581    -0.0000
 10 H      0.9122     1.0000     0.0878     0.9651     0.9651    -0.0000
 11 H      0.7017     1.0000     0.2983     0.8823     0.8823    -0.0000
 12 H      0.7075     1.0000     0.2925     0.8967     0.8967    -0.0000
 13 H      0.7116     1.0000     0.2884     0.8937     0.8937     0.0000

  Mayer bond orders larger than 0.100000
B(  0-C ,  1-C ) :   1.0248 B(  0-C ,  5-O ) :   1.0700 B(  0-C ,  6-H ) :   0.9080 
B(  0-C ,  7-H ) :   0.9173 B(  1-C ,  2-C ) :   1.0164 B(  1-C ,  4-O ) :   1.0497 
B(  1-C ,  8-H ) :   0.8986 B(  2-C ,  3-O ) :   1.0665 B(  2-C ,  9-H ) :   0.9225 
B(  2-C , 10-H ) :   0.9182 B(  3-O , 11-H ) :   0.8513 B(  4-O , 12-H ) :   0.8474 
B(  5-O , 13-H ) :   0.8532 

-------
TIMINGS
-------

Total SCF time: 0 days 0 hours 0 min 4 sec 

Total time                  ....       4.712 sec
Sum of individual times     ....       4.293 sec  ( 91.1%)

SCF preparation             ....       0.161 sec  (  3.4%)
Fock matrix formation       ....       3.512 sec  ( 74.5%)
  Startup                   ....       0.053 sec  (  1.5% of F)
  Split-RI-J                ....       0.974 sec  ( 27.7% of F)
  XC integration            ....       2.010 sec  ( 57.2% of F)
    Basis function eval.    ....       0.685 sec  ( 34.1% of XC)
    Density eval.           ....       0.216 sec  ( 10.7% of XC)
    XC-Functional eval.     ....       0.215 sec  ( 10.7% of XC)
    XC-Potential eval.      ....       0.379 sec  ( 18.9% of XC)
Diagonalization             ....       0.000 sec  (  0.0%)
Density matrix formation    ....       0.148 sec  (  3.1%)
Total Energy calculation    ....       0.025 sec  (  0.5%)
Population analysis         ....       0.058 sec  (  1.2%)
Orbital Transformation      ....       0.057 sec  (  1.2%)
Orbital Orthonormalization  ....       0.000 sec  (  0.0%)
DIIS solution               ....       0.266 sec  (  5.6%)
  MO trafo                  ....       0.000 sec  (  0.0 % of DIIS)
  Orb grad                  ....       0.000 sec  (  0.0 % of DIIS)
  Energy W gradient         ....       0.000 sec  (  0.0 % of DIIS)
  DIIS error                ....       0.001 sec  (  0.5 % of DIIS)
  DIIS work                 ....       0.211 sec  ( 79.3 % of DIIS)
  Form Q                    ....       0.000 sec  (  0.0 % of DIIS)
  Form QpQm                 ....       0.000 sec  (  0.0 % of DIIS)
  Exp/Cayley                ....       0.000 sec  (  0.0 % of DIIS)
  Orb update                ....       0.000 sec  (  0.0 % of DIIS)
  Wake-sleep                ....       0.016 sec  (  6.1 % of DIIS)
SOSCF solution              ....       0.067 sec  (  1.4%)
  MO trafo                  ....       0.041 sec  ( 60.9 % of SOSCF)
  Orb grad                  ....       0.001 sec  (  1.7 % of SOSCF)
  Rot update                ....       0.012 sec  ( 17.3 % of SOSCF)
  Step                      ....       0.014 sec  ( 20.0 % of SOSCF)
Finished LeanSCF after   4.8 sec

Maximum memory used throughout the entire LEANSCF-calculation: 9.4 MB


-------------------------------------------------------------------------------
                          DFT DISPERSION CORRECTION                            
                                                                               
                                DFTD4 V3.4.0                                   
-------------------------------------------------------------------------------
The PBE functional is recognized
Active option DFTDOPT                   ...         5   

-------------------------   ----------------
Dispersion correction           -0.008994455
-------------------------   ----------------

------------------   -----------------
gCP correction             0.081999096
------------------   -----------------

-------------------------   --------------------
FINAL SINGLE POINT ENERGY      -344.005596067618
-------------------------   --------------------


------------------------------------------------------------------------------
                              ORCA PROPERTY CALCULATIONS
------------------------------------------------------------------------------

GBWName                                 ... sp.gbw
Number of atoms                         ...     14
Number of basis functions               ...    100
Max core memory                         ...   1024 MB

Electric properties:
Dipole moment                           ... YES
Quadrupole moment                       ...  NO
Static polarizability (Dipole/Dipole)   ...  NO
Static polarizability (Dipole/Quad.)    ...  NO
Static polarizability (Quad./Quad.)     ...  NO
Static polarizability (Velocity)        ...  NO

Atomic electric properties:
Dipole moment                           ...  NO
Quadrupole moment                       ...  NO
Static polarizability                   ...  NO

Choice of electric origin               ... Center of mass
Position of electric origin             ...     0.000008    -0.000001    -0.000005

General magnetic properties:
Magnetizability                         ...  NO

EPR properties:
g-Tensor (aka g-matrix)                 ...  NO
Zero-Field splitting spin-orbit         ...  NO
Zero-field splitting spin-spin          ...  NO
Hyperfine couplings                     ...  NO (   0 nuclei)
Quadrupole couplings                    ...  NO (   0 nuclei)
Contact density                         ...  NO (   0 nuclei)

NMR properties:
Chemical shifts                         ...  NO (   0 nuclei)
Spin-rotation constants                 ...  NO (   0 nuclei)
Spin-spin couplings                     ...  NO (   0 nuclei,    0 pairs)

Choice of magnetic origin               ... GIAO
Position of magnetic origin             ...     0.000000     0.000000     0.000000

Properties with geometric perturbations:
SCF Hessian                             ...  NO
IR spectrum                             ...  NO
VCD spectrum                            ...  NO
X-ray spectroscopy properties:
SCF XES/XAS/RIXS spectra                ...  NO


-------------
DIPOLE MOMENT
-------------

Method             : SCF
Type of density    : Electron Density
Multiplicity       :   1
Irrep              :   0
Energy             :  -344.0786007082604101 Eh
Relativity type    : 
Basis              : AO
                                X                 Y                 Z
Electronic contribution:     -0.672481508       0.286296350       0.621058378
Nuclear contribution   :      0.498570212       0.295211421      -0.117299445
                        -----------------------------------------
Total Dipole Moment    :     -0.173911296       0.581507771       0.503758933
                        -----------------------------------------
Magnitude (a.u.)       :      0.788777212
Magnitude (Debye)      :      2.004912339



--------------------
Rotational spectrum 
--------------------
 
Rotational constants in cm-1:             0.168783             0.079835             0.058491 
Rotational constants in MHz :          5059.996751          2393.397277          1753.528626 

Dipole components along the rotational axes: 
x,y,z [a.u.] :     0.362275     0.519222     0.470462 
x,y,z [Debye]:     0.920831     1.319758     1.195819 

 

Dipole moment calculation done in   0.0 sec 

Maximum memory used throughout the entire PROP-calculation: 6.0 MB

--------------------------------
SUGGESTED CITATIONS FOR THIS RUN
--------------------------------

Below you find a list of papers that are relevant to this ORCA run
We neither can nor want to force you to cite these papers, but we appreciate if you do
You receive ORCA, which is the product of decades of hard work by many enthusiastic individuals, for free
The only thing we kindly ask in return is that you cite our papers,
We deeply appreciate it, if you show your appreciation for ORCA by not just citing the generic ORCA reference.

Please note that relegating all ORCA citations to the supporting information does *not* help us.
SI sections are not indexed - citations you put there will not count into any citation statistics
But we need these citations in order to attract the funding resources that allow us to do what we are doing

Therefore, if you are a happy ORCA user, please consider citing a few of the papers listed below in the main body of your paper

In addition to the list printed below, the program has created the file sp.bibtex that contains the list in bibtex format
You can import this file easily into all common literature databanks and citation aid programs


List of essential papers. We consider these as the minimum necessary citations

  1. Neese,F.
     Software update: the ORCA program system, version 5.0
     WIRES Comput. Molec. Sci., 2022 12(1)e1606
     doi.org/10.1002/wcms.1606

List of papers to cite with high priority. The work reported in these papers was absolutely
necessary for this run to complete.
Our perspective: the developers of density functionals and basis sets usually get cited in chemistry papers
Good! But without the algorithms to do something with them, the functionals or basis sets would not do anything.
Hence, in our opinion, the algorithm design and method developments papers are equally worthy of getting cited

  1. Neese,F.
     An improvement of the resolution of the identity approximation for the formation of the Coulomb matrix
     J. Comp. Chem., 2003 24(14)1740-1747
     doi.org/10.1002/jcc.10318
  2. Neese,F.
     The SHARK Integral Generation and Digestion System
     J. Comp. Chem., 2022  1-16
     doi.org/10.1002/jcc.26942
  3. Caldeweyher,E.; Bannwarth,C.; Grimme,S.
     Extension of the D3 dispersion coefficient model
     J. Chem. Phys., 2017 147 034112-XXXX
     doi.org/10.1063/1.4993215
  4. Caldeweyher,E.; Ehlert,S.; Hansen,A.; Neugebauer,H.; Spicher,S.; Bannwarth,C.; Grimme,S.
     A generally applicable atomic-charge dependent London dispersion correction
     J. Chem. Phys., 2019 150 154122-XXXX
     doi.org/10.1063/1.5090222
  5. Caldeweyher,E.; Mewes,J.; Ehlert,S.; Grimme,S.
     Extension and evaluation of the D4 London-dispersion model for periodic systems
     Phys. Chem. Chem. Phys., 2020 22(16)8499-8512
     doi.org/10.1039/D0CP00502A

List of suggested additional citations. These are papers that are important in the 'surrounding' of 
of this run, or papers that preceded the highly important papers. If you like your results we are grateful for a citation.

  1. Neese,F.
     The ORCA program system
     WIRES Comput. Molec. Sci., 2012 2(1)73-78
     doi.org/10.1002/wcms.81
  2. Neese,F.
     Software update: the ORCA program system, version 4.0
     WIRES Comput. Molec. Sci., 2018 8(1)1-6
     doi.org/10.1002/wcms.1327
  3. Neese,F.; Wennmohs,F.; Becker,U.; Riplinger,C.
     The ORCA quantum chemistry program package
     J. Chem. Phys., 2020 152 Art. No. L224108
     doi.org/10.1063/5.0004608

List of optional additional citations

  1. Neese,F.
     Approximate second-order SCF convergence for spin unrestricted wavefunctions
     Chem. Phys. Lett., 2000 325(1-3)93-98
     doi.org/10.1016/s0009-2614(00)00662-x

Timings for individual modules:

Sum of individual times          ...        6.001 sec (=   0.100 min)
Startup calculation              ...        0.556 sec (=   0.009 min)   9.3 %
SCF iterations                   ...        5.348 sec (=   0.089 min)  89.1 %
Property calculations            ...        0.097 sec (=   0.002 min)   1.6 %
                             ****ORCA TERMINATED NORMALLY****
TOTAL RUN TIME: 0 days 0 hours 0 minutes 6 seconds 663 msec
