14
 energy: -22.693474408283 gnorm: 0.040181921399 xtb: 6.7.1 (edcfbbe)
C           -1.07442916607475       -0.55287768656173       -0.19654860710752
C            0.00236592667050        0.17823143867080        0.58124559072772
C            1.31878745712287       -0.58533526295287        0.62825950118298
O            1.85969804500316       -0.84063348140804       -0.67544861161107
O            0.17835554920428        1.45655318613854       -0.06607000676875
O           -2.34229557814507        0.11683119484907       -0.11457546375321
H           -1.21790158179076       -1.54793694191123        0.23438104131306
H           -0.77010582367778       -0.66652301476429       -1.24564546160861
H           -0.34238721784098        0.32570319663236        1.61577917015259
H            1.16277176154311       -1.55967597782006        1.10255941045598
H            2.03788315924724       -0.01833013809156        1.23767648811706
H            1.94598277507871        0.01752919302235       -1.11330054932625
H            0.70451920916062        2.01447324591641        0.52163616400278
H           -2.22123547595629        0.99489044404895       -0.49981524150905
14
 energy: -22.694821960000 gnorm: 0.019738308997 xtb: 6.7.1 (edcfbbe)
C           -1.07228604713700       -0.55857074017823       -0.19854013005659
C            0.00007440419811        0.18898006338159        0.58604552309437
C            1.31940462823106       -0.58452316413047        0.63121415056082
O            1.84554892369464       -0.84028091588066       -0.66168139444983
O            0.18328841066888        1.45561727299549       -0.05601026582752
O           -2.32737730911884        0.10217126996937       -0.12629584339841
H           -1.22725251691162       -1.55056266706881        0.22956748771939
H           -0.76202594509306       -0.66389293396004       -1.24403347271371
H           -0.35581735376477        0.34360551314641        1.61387376680703
H            1.16578386081003       -1.56090932497267        1.09449492649531
H            2.05492042645533       -0.02494891311449        1.22478140414513
H            1.92114881405376        0.01206658193331       -1.11579284901628
H            0.70302720832084        2.02487228015075        0.52676466570935
H           -2.20642846486249        0.98927507349715       -0.49425454480137
14
 energy: -22.695222082658 gnorm: 0.004049699744 xtb: 6.7.1 (edcfbbe)
C           -1.06927272279874       -0.55735905906786       -0.20136190721399
C            0.00208148965743        0.19694313390695        0.59232031508101
C            1.32248025073457       -0.58724709644524        0.63331591934619
O            1.83222991618702       -0.83970842335442       -0.65424031246418
O            0.18604539839215        1.45029846254153       -0.04960071679364
O           -2.31676705480716        0.09245122450979       -0.14119165667185
H           -1.22237093642047       -1.54700327271087        0.22847421246891
H           -0.74118217234380       -0.66215512258502       -1.24110553130959
H           -0.36413643600804        0.34866621194341        1.61600425694723
H            1.16433672080049       -1.56271425019765        1.09298528882798
H            2.06253627078660       -0.03051216782554        1.22352898314995
H            1.88755687284921        0.00601879980297       -1.12728106411396
H            0.69777014244521        2.03478809626550        0.52592560442009
H           -2.19929869992961        0.99043285898516       -0.48763996740643
14
 energy: -22.695266256935 gnorm: 0.001997871895 xtb: 6.7.1 (edcfbbe)
C           -1.06817328730178       -0.55660441095247       -0.20136317245715
C            0.00312748582909        0.19904405440934        0.59457278130561
C            1.32299383218246       -0.58835897696498        0.63287008676440
O            1.82917863513436       -0.83880835972362       -0.65528916459762
O            0.18729450169210        1.44979326550569       -0.04738653455771
O           -2.31475790260899        0.09220977109447       -0.14842347098000
H           -1.21847242383653       -1.54633714097012        0.23039198858084
H           -0.73159393675870       -0.66506572218132       -1.23888866679549
H           -0.36284568446942        0.34613880679311        1.61918635644281
H            1.16210406731684       -1.56295446031418        1.09421917702561
H            2.06206656427272       -0.03243089357133        1.22625846390440
H            1.87229303167125        0.00482871416835       -1.13354162137541
H            0.69610210654861        2.03897135831082        0.52597002041823
H           -2.19730795012716        0.99247339016495       -0.48844281941081
14
 energy: -22.695284062306 gnorm: 0.001633968571 xtb: 6.7.1 (edcfbbe)
C           -1.06724340962858       -0.55595440095334       -0.20058986697658
C            0.00450190592173        0.19990112436875        0.59635664039219
C            1.32363247714746       -0.58954254842676        0.63185114232632
O            1.82980723614169       -0.83632914719895       -0.65716512452553
O            0.18787815193302        1.44984601548453       -0.04492083852048
O           -2.31300472322152        0.09458293729299       -0.15835283740144
H           -1.21729958398229       -1.54450437684835        0.23588003434102
H           -0.72311193559442       -0.67280603502726       -1.23576613149507
H           -0.35819753892067        0.34206873560186        1.62316809366027
H            1.16055434582281       -1.56398202292941        1.09443985540729
H            2.06189843767600       -0.03527774749744        1.22962027928611
H            1.85285844966328        0.00562677779177       -1.13917620434195
H            0.69241332914356        2.04341325947943        0.52742618137722
H           -2.19267810255721        0.99585682463090       -0.49263779926166
14
 energy: -22.695292534383 gnorm: 0.000860153953 xtb: 6.7.1 (edcfbbe)
C           -1.06709062335555       -0.55712241185317       -0.19973866030228
C            0.00462247814343        0.19874468448475        0.59624786854363
C            1.32393620070288       -0.58955865222712        0.63168508429548
O            1.83208893105634       -0.83381512061811       -0.65740609090877
O            0.18760525983383        1.44926976322550       -0.04499702740833
O           -2.31139316973516        0.09680661063308       -0.16100568990535
H           -1.22134793305053       -1.54374650271800        0.23956510632335
H           -0.72333050910209       -0.67774639940867       -1.23441909091587
H           -0.35721545320445        0.34177220064003        1.62321454912032
H            1.16155396800573       -1.56504316064802        1.09226314798299
H            2.06222472168294       -0.03596388787139        1.22998104089046
H            1.84737014106792        0.00831194385772       -1.13890191096982
H            0.69012884766353        2.04330552333348        0.52854565962708
H           -2.18714382016398        0.99768480493864       -0.49490056210518
14
 energy: -22.695303663879 gnorm: 0.000520648194 xtb: 6.7.1 (edcfbbe)
C           -1.06697343772580       -0.56029541754493       -0.19698063672898
C            0.00511619261558        0.19571691591250        0.59704019533857
C            1.32522300946167       -0.59018591973488        0.63170377326659
O            1.83594904901653       -0.82538279190187       -0.65858633483917
O            0.18734109164133        1.44609610457398       -0.04609958018876
O           -2.30695814240015        0.10312555429976       -0.16875904140597
H           -1.23170271146827       -1.54159379443664        0.25002862327832
H           -0.72132369513135       -0.69155491364242       -1.22959693897484
H           -0.35614195622906        0.34118844065459        1.62369213095125
H            1.16450057272177       -1.56886706697896        1.08563693375148
H            2.06276710054241       -0.03868664883483        1.23243723701277
H            1.83138045529438        0.01743497987918       -1.13914306175427
H            0.68436518414862        2.04252405901159        0.52974876370722
H           -2.17153367294282        1.00337989451165       -0.50098863914649
14
 energy: -22.695307952693 gnorm: 0.000637881306 xtb: 6.7.1 (edcfbbe)
C           -1.06749266119299       -0.56243621800180       -0.19417493887922
C            0.00522625860675        0.19427909421959        0.59833964017688
C            1.32557936740332       -0.59102224609011        0.63095275216546
O            1.83715856006187       -0.81832774997570       -0.66060727289474
O            0.18741716428627        1.44396037987268       -0.04668783784972
O           -2.30428100334106        0.10753247451185       -0.17396442073650
H           -1.23831113265791       -1.54009254214324        0.25838700117352
H           -0.71974066266643       -0.70171897712519       -1.22504545959544
H           -0.35494600523115        0.34111568498741        1.62504219079544
H            1.16563258439386       -1.57218490454665        1.07970866835386
H            2.06228447760224       -0.04177369667671        1.23466784408860
H            1.82310241271124        0.02547593823187       -1.13873076104685
H            0.68201040305499        2.04187953210415        0.52957471898321
H           -2.16163072348616        1.00621262640056       -0.50732870046679
14
 energy: -22.695310672666 gnorm: 0.000376872897 xtb: 6.7.1 (edcfbbe)
C           -1.06839016986077       -0.56336461272784       -0.19190981525749
C            0.00537859204429        0.19353635350124        0.59946089687292
C            1.32597463490939       -0.59174493634365        0.63018122408107
O            1.83738787867359       -0.81348364876295       -0.66217044980482
O            0.18727679533247        1.44257026706393       -0.04666535224230
O           -2.30316568910269        0.11019558420059       -0.17755800898930
H           -1.24266979227111       -1.53844453125628        0.26464756474183
H           -0.71836035018019       -0.70836143604616       -1.22125128893674
H           -0.35372736171351        0.34105485202172        1.62631981771499
H            1.16626080341276       -1.57466488828418        1.07505251173185
H            2.06225687747408       -0.04454719306805        1.23635465673732
H            1.81906333173815        0.03139181454743       -1.13843768254524
H            0.68113194901129        2.04138436141711        0.52924819588357
H           -2.15640845992292        1.00737740950579       -0.51313884571994
14
 energy: -22.695312634397 gnorm: 0.000313781826 xtb: 6.7.1 (edcfbbe)
C           -1.06913582608047       -0.56420088544931       -0.18966968571546
C            0.00527872089196        0.19327766848226        0.60062835526747
C            1.32581128346902       -0.59241362955463        0.62894796243393
O            1.83698740794386       -0.80957356227081       -0.66414837962985
O            0.18689561392653        1.44195067495839       -0.04624994978747
O           -2.30215833642651        0.11238376644011       -0.17991184396370
H           -1.24611467144910       -1.53711681254289        0.27051350697512
H           -0.71732647646757       -0.71407829292637       -1.21774692181701
H           -0.35243547312516        0.34100709320019        1.62793880432282
H            1.16597995735839       -1.57675066331255        1.07065112518570
H            2.06172784552712       -0.04709154227665        1.23731184424432
H            1.81816371973150        0.03674833813813       -1.13791449673578
H            0.68107285960867        2.04105365585763        0.52909172245823
H           -2.15273758536341        1.00770358702522       -0.51930861897059
14
 energy: -22.695313718294 gnorm: 0.000150803402 xtb: 6.7.1 (edcfbbe)
C           -1.07004918700546       -0.56468490714101       -0.18767096526557
C            0.00533095882193        0.19282938633471        0.60139078773570
C            1.32600174226874       -0.59283777301979        0.62795775320258
O            1.83683098130355       -0.80653769194954       -0.66575994742800
O            0.18630848520144        1.44145855361030       -0.04565469051281
O           -2.30174018793759        0.11432999930436       -0.18209988169991
H           -1.24960894165876       -1.53566885225029        0.27567718724132
H           -0.71695113321150       -0.71900275721194       -1.21466282582250
H           -0.35107226163948        0.34062170451520        1.62911295293416
H            1.16607477499052       -1.57832780911499        1.06704955648139
H            2.06205079102869       -0.04922971711905        1.23774258086844
H            1.81820739937695        0.04128657705455       -1.13721740641368
H            0.68079462538389        2.04065116264037        0.52936338958005
H           -2.15016900737806        1.00801152011583       -0.52509506663346
14
 energy: -22.695314073073 gnorm: 0.000110554274 xtb: 6.7.1 (edcfbbe)
C           -1.07044412295416       -0.56515062102478       -0.18644544163099
C            0.00527731074344        0.19262671777253        0.60190513802369
C            1.32593633835832       -0.59314875059369        0.62715595995559
O            1.83677025215130       -0.80466162343449       -0.66690122586482
O            0.18580929125273        1.44121799377683       -0.04523812938307
O           -2.30103772474016        0.11566842900193       -0.18352761447368
H           -1.25201894002605       -1.53464401655845        0.27924358572357
H           -0.71668757645025       -0.72261807620748       -1.21274151880187
H           -0.35029784377564        0.34040319728685        1.62993361728675
H            1.16603982537739       -1.57938042834689        1.06458145903463
H            2.06200464957988       -0.05055602724320        1.23775906106967
H            1.81834623398989        0.04420059767905       -1.13668866935117
H            0.68020934881721        2.04060110338265        0.52967622331536
H           -2.14789800277906        1.00834090027784       -0.52857902063593
14
 energy: -22.695314152040 gnorm: 0.000049786703 xtb: 6.7.1 (edcfbbe)
C           -1.07071184621746       -0.56546660416579       -0.18581856820937
C            0.00526405730057        0.19239262352695        0.60204677988332
C            1.32599340186209       -0.59322895243083        0.62682165557663
O            1.83673477210928       -0.80374334476840       -0.66750171169489
O            0.18556116574182        1.44105282003732       -0.04509334311823
O           -2.30075065883856        0.11644435907283       -0.18444608013199
H           -1.25339439755075       -1.53421734399386        0.28098146281724
H           -0.71662499935786       -0.72448088988545       -1.21174201274570
H           -0.34989348949104        0.34014763896169        1.63021615093885
H            1.16612432542869       -1.57980022117594        1.06348556667005
H            2.06211382457129       -0.05107131755309        1.23773815876761
H            1.81844543829889        0.04557462234982       -1.13641136223413
H            0.67966288841642        2.04057986991674        0.52991321751464
H           -2.14651544272854        1.00871613587671       -0.53005648976632
