
                                 *****************
                                 * O   R   C   A *
                                 *****************

                                            #,                                       
                                            ###                                      
                                            ####                                     
                                            #####                                    
                                            ######                                   
                                           ########,                                 
                                     ,,################,,,,,                         
                               ,,#################################,,                 
                          ,,##########################################,,             
                       ,#########################################, ''#####,          
                    ,#############################################,,   '####,        
                  ,##################################################,,,,####,       
                ,###########''''           ''''###############################       
              ,#####''   ,,,,##########,,,,          '''####'''          '####       
            ,##' ,,,,###########################,,,                        '##       
           ' ,,###''''                  '''############,,,                           
         ,,##''                                '''############,,,,        ,,,,,,###''
      ,#''                                            '''#######################'''  
     '                                                          ''''####''''         
             ,#######,   #######,   ,#######,      ##                                
            ,#'     '#,  ##    ##  ,#'     '#,    #''#        ,####,   ,####,        
            ##       ##  ##   ,#'  ##            #'  '#       #'       #'  '#        
            ##       ##  #######   ##           ,######,      #####,   #    #        
            '#,     ,#'  ##    ##  '#,     ,#' ,#      #,     #,   #   #,  ,#        
             '#######'   ##     ##  '#######'  #'      '#     '####' # '####'        



                #########################################################
                #                        -***-                          #
                #          Department of theory and spectroscopy        #
                #                                                       #
                #                      Frank Neese                      #
                #                                                       #
                #     Directorship, Architecture, Infrastructure        #
                #                    SHARK, DRIVERS                     #
                #        Core code/Algorithms in most modules           #
                #                                                       #
                #        Max Planck Institute fuer Kohlenforschung      #
                #                Kaiser Wilhelm Platz 1                 #
                #                 D-45470 Muelheim/Ruhr                 #
                #                      Germany                          #
                #                                                       #
                #                  All rights reserved                  #
                #                        -***-                          #
                #########################################################


                         Program Version 6.0.0  -   RELEASE  -


 With contributions from (in alphabetic order):
   Daniel Aravena         : Magnetic Suceptibility
   Michael Atanasov       : Ab Initio Ligand Field Theory (pilot matlab implementation)
   Alexander A. Auer      : GIAO ZORA, VPT2 properties, NMR spectrum
   Ute Becker             : All parallelization in ORCA, NUMFREQ, NUMCALC
   Giovanni Bistoni       : ED, misc. LED, open-shell LED, HFLD
   Martin Brehm           : Molecular dynamics
   Dmytro Bykov           : pre 5.0 version of the SCF Hessian
   Marcos Casanova-Páez   : Triplet and SCS-CIS(D). UHF-(DLPNO)-IP/EA/STEOM-CCSD. UHF-CVS-IP/STEOM-CCSD
   Vijay G. Chilkuri      : MRCI spin determinant printing, contributions to CSF-ICE
   Pauline Colinet        : FMM embedding
   Dipayan Datta          : RHF DLPNO-CCSD density
   Achintya Kumar Dutta   : EOM-CC, STEOM-CC
   Nicolas Foglia         : Exact transition moments, OPA infrastructure, MCD improvements
   Dmitry Ganyushin       : Spin-Orbit,Spin-Spin,Magnetic field MRCI
   Miquel Garcia          : C-PCM and meta-GGA Hessian, CCSD/C-PCM, Gaussian charge scheme
   Tiago L. C. Gouveia    : GS-ROHF, GS-ROCIS
   Yang Guo               : DLPNO-NEVPT2, F12-NEVPT2, CIM, IAO-localization
   Andreas Hansen         : Spin unrestricted coupled pair/coupled cluster methods
   Ingolf Harden          : AUTO-CI MPn and infrastructure 
   Benjamin Helmich-Paris : MC-RPA, TRAH-(SCF,CASSCF), AVAS, COSX integrals, SCF dyn. polar.
   Lee Huntington         : MR-EOM, pCC
   Robert Izsak           : Overlap fitted RIJCOSX, COSX-SCS-MP3, EOM
   Riya Kayal             : Wick's Theorem for AUTO-CI, AUTO-CI UHF-CCSDT
   Emily Kempfer          : AUTO-CI, RHF CISDT and CCSDT
   Christian Kollmar      : KDIIS, OOCD, Brueckner-CCSD(T), CCSD density, CASPT2, CASPT2-K, improved NEVPT2
   Axel Koslowski         : Symmetry handling
   Simone Kossmann        : Meta GGA functionals, TD-DFT gradient, OOMP2, (MP2 Hessian; deprecated post 5.0)
   Lucas Lang             : DCDCAS
   Marvin Lechner         : AUTO-CI (C++ implementation), FIC-MRCC
   Spencer Leger          : CASSCF response
   Dagmar Lenk            : GEPOL surface, SMD, ORCA-2-JSON
   Dimitrios Liakos       : Extrapolation schemes; Compound Job, initial MDCI parallelization
   Dimitrios Manganas     : Further ROCIS development; embedding schemes. LFT, Crystal Embedding
   Dimitrios Pantazis     : SARC Basis sets
   Anastasios Papadopoulos: AUTO-CI, single reference methods and gradients
   Taras Petrenko         : pre 6.0 DFT Hessian and TD-DFT gradient, (ASA, deprecated), ECA, 1-Electron XAS/XES, NRVS
   Peter Pinski           : DLPNO-MP2, DLPNO-MP2 Gradient
   Christoph Reimann      : Effective Core Potentials
   Marius Retegan         : Local ZFS, SOC
   Christoph Riplinger    : Optimizer, TS searches, QM/MM, DLPNO-CCSD(T), (RO)-DLPNO pert. Triples
   Michael Roemelt        : Original ROCIS implementation
   Masaaki Saitow         : Open-shell DLPNO-CCSD energy and density
   Barbara Sandhoefer     : DKH picture change effects
   Kantharuban Sivalingam : CASSCF convergence/infrastructure, NEVPT2 and variants, FIC-MRCI
   Bernardo de Souza      : ESD, SOC TD-DFT
   Georgi Stoychev        : AutoAux, RI-MP2 NMR, DLPNO-MP2 response, X2C
   Van Anh Tran           : RI-MP2 g-tensors
   Willem Van den Heuvel  : Paramagnetic NMR
   Zikuan Wang            : NOTCH, Electric field optimization 
   Frank Wennmohs         : Technical directorship and infrastructure
   Hang Xu                : AUTO-CI-Response properties 


 We gratefully acknowledge several colleagues who have allowed us to
 interface, adapt or use parts of their codes:
   Stefan Grimme, W. Hujo, H. Kruse, P. Pracht,  : VdW corrections, initial TS optimization,
                  C. Bannwarth, S. Ehlert,         DFT functionals, gCP, sTDA/sTD-DF
                  L. Wittmann, M. Mueller
   Ed Valeev, F. Pavosevic, A. Kumar             : LibInt (2-el integral package), F12 methods
   Garnet Chan, S. Sharma, J. Yang, R. Olivares  : DMRG
   Ulf Ekstrom                                   : XCFun DFT Library
   Mihaly Kallay                                 : mrcc  (arbitrary order and MRCC methods)
   Frank Weinhold                                : gennbo (NPA and NBO analysis)
   Simon Mueller                                 : openCOSMO-RS
   Christopher J. Cramer and Donald G. Truhlar   : smd solvation model
   Lars Goerigk                                  : TD-DFT with DH, B97 family of functionals
   V. Asgeirsson, H. Jonsson                     : NEB implementation
   FAccTs GmbH                                   : IRC, NEB, NEB-TS, DLPNO-Multilevel, CI-OPT
                                                   MM, QMMM, 2- and 3-layer-ONIOM, Crystal-QMMM,
                                                   LR-CPCM, SF, NACMEs, symmetry and pop. for TD-DFT,
                                                   nearIR, NL-DFT gradient (VV10), updates on ESD,
                                                   ML-optimized integration grids, MBIS, APM,
                                                   GOAT, DOCKER, SOLVATOR, interface openCOSMO-RS
   S Lehtola, MJT Oliveira, MAL Marques          : LibXC Library
   Liviu Ungur et al                             : ANISO software


 Your calculation uses the libint2 library for the computation of 2-el integrals
 For citations please refer to: http://libint.valeyev.net

 Your ORCA version has been built with support for libXC version: 6.2.2
 For citations please refer to: https://libxc.gitlab.io

 This ORCA versions uses:
   CBLAS   interface :  Fast vector & matrix operations
   LAPACKE interface :  Fast linear algebra routines
   SCALAPACK package :  Parallel linear algebra routines
   Shared memory     :  Shared parallel matrices
   BLAS/LAPACK       :  OpenBLAS 0.3.27  USE64BITINT DYNAMIC_ARCH NO_AFFINITY SkylakeX SINGLE_THREADED
        Core in use  :  SkylakeX
   Copyright (c) 2011-2014, The OpenBLAS Project


Your calculation utilizes the geometrical counterpoise correction gCP
Please cite in your paper:
H.Kruse, S. Grimme J.Chem.Phys., 136, (2012), 154101 
   

Your calculation utilizes the atom-pairwise dispersion correction
based on EEQ partial charges (D4)


================================================================================

----- Orbital basis set information -----
Your calculation utilizes the basis: def2-mTZVPP
   Stefan Grimme, Andreas Hansen, Sebastian Ehlert, and Jan-Michael Mewes 
   J. Chem. Phys. 154, 064103 (2021). DOI: 10.1063/5.0040021

----- AuxJ basis set information -----
Your calculation utilizes the auxiliary basis: def2/J
   F. Weigend, Phys. Chem. Chem. Phys. 8, 1057 (2006).

================================================================================
                                        WARNINGS
                       Please study these warnings very carefully!
================================================================================

Using LibXC functional ID 497 : Re-regularized SCAN exchange by Furness et al
[ 1]  J. W. Furness, A. D. Kaplan, J. Ning, J. P. Perdew, and J. Sun.,  J. Phys. Chem. Lett. 11, 8208-8215 (2020)
[ 2]  J. W. Furness, A. D. Kaplan, J. Ning, J. P. Perdew, and J. Sun.,  J. Phys. Chem. Lett. 11, 9248-9248 (2020)
Using LibXC functional ID 498 : Re-regularized SCAN correlation by Furness et al
[ 1]  J. W. Furness, A. D. Kaplan, J. Ning, J. P. Perdew, and J. Sun.,  J. Phys. Chem. Lett. 11, 8208-8215 (2020)
[ 2]  J. W. Furness, A. D. Kaplan, J. Ning, J. P. Perdew, and J. Sun.,  J. Phys. Chem. Lett. 11, 9248-9248 (2020)
Using LibXC functional ID 497 : Re-regularized SCAN exchange by Furness et al
[ 1]  J. W. Furness, A. D. Kaplan, J. Ning, J. P. Perdew, and J. Sun.,  J. Phys. Chem. Lett. 11, 8208-8215 (2020)
[ 2]  J. W. Furness, A. D. Kaplan, J. Ning, J. P. Perdew, and J. Sun.,  J. Phys. Chem. Lett. 11, 9248-9248 (2020)
Using LibXC functional ID 498 : Re-regularized SCAN correlation by Furness et al
[ 1]  J. W. Furness, A. D. Kaplan, J. Ning, J. P. Perdew, and J. Sun.,  J. Phys. Chem. Lett. 11, 8208-8215 (2020)
[ 2]  J. W. Furness, A. D. Kaplan, J. Ning, J. P. Perdew, and J. Sun.,  J. Phys. Chem. Lett. 11, 9248-9248 (2020)

================================================================================
                                       INPUT FILE
================================================================================
NAME = sp_gas.inp
|  1> ! r2scan-3c def2/J RI DEFGRID2 scfconv6 printgap
|  2> %output
|  3>     printlevel normal
|  4> end
|  5> * xyz 0 1
|  6> C 2.1842233108 -0.9250034537 -0.6165628826
|  7> C 1.2022903252 -0.1418037443 0.2503084534
|  8> C 1.7756261459 1.2260729589 0.6302499703
|  9> O 0.0001137622 -0.0012068498 -0.5005623017
| 10> C -1.2020848718 0.1413566765 0.2499667398
| 11> C -2.1825754164 0.9261368882 -0.6171140097
| 12> C -1.7775883702 -1.2256274102 0.6298304493
| 13> H 2.3677968797 -0.3790041351 -1.5376275789
| 14> H 3.1211402108 -1.0645063411 -0.0863981894
| 15> H 1.7650527851 -1.8951408977 -0.868533279
| 16> H 0.9940893026 -0.7127480893 1.1681959004
| 17> H 1.0630090184 1.7896563678 1.2282468045
| 18> H 1.9942246912 1.7922704385 -0.2714189112
| 19> H 2.6884873879 1.0983179383 1.2040350494
| 20> H -0.9932834377 0.7119000432 1.1679259118
| 21> H -3.1201160609 1.0654440365 -0.0880047927
| 22> H -1.7626342407 1.8963866938 -0.8673816582
| 23> H -2.3651848351 0.381318324 -1.5390700559
| 24> H -2.6901596379 -1.096491572 1.2037956815
| 25> H -1.0657014413 -1.7903260732 1.2276426058
| 26> H -1.997229018 -1.7914080814 -0.2718387035
| 27> *
| 28> 
| 29>                          ****END OF INPUT****
================================================================================

                       ****************************
                       * Single Point Calculation *
                       ****************************

---------------------------------
CARTESIAN COORDINATES (ANGSTROEM)
---------------------------------
  C      2.184223   -0.925003   -0.616563
  C      1.202290   -0.141804    0.250308
  C      1.775626    1.226073    0.630250
  O      0.000114   -0.001207   -0.500562
  C     -1.202085    0.141357    0.249967
  C     -2.182575    0.926137   -0.617114
  C     -1.777588   -1.225627    0.629830
  H      2.367797   -0.379004   -1.537628
  H      3.121140   -1.064506   -0.086398
  H      1.765053   -1.895141   -0.868533
  H      0.994089   -0.712748    1.168196
  H      1.063009    1.789656    1.228247
  H      1.994225    1.792270   -0.271419
  H      2.688487    1.098318    1.204035
  H     -0.993283    0.711900    1.167926
  H     -3.120116    1.065444   -0.088005
  H     -1.762634    1.896387   -0.867382
  H     -2.365185    0.381318   -1.539070
  H     -2.690160   -1.096492    1.203796
  H     -1.065701   -1.790326    1.227643
  H     -1.997229   -1.791408   -0.271839

----------------------------
CARTESIAN COORDINATES (A.U.)
----------------------------
  NO LB      ZA    FRAG     MASS         X           Y           Z
   0 C     6.0000    0    12.011    4.127584   -1.748003   -1.165135
   1 C     6.0000    0    12.011    2.271999   -0.267970    0.473014
   2 C     6.0000    0    12.011    3.355447    2.316942    1.191000
   3 O     8.0000    0    15.999    0.000215   -0.002281   -0.945926
   4 C     6.0000    0    12.011   -2.271611    0.267125    0.472369
   5 C     6.0000    0    12.011   -4.124470    1.750145   -1.166176
   6 C     6.0000    0    12.011   -3.359155   -2.316100    1.190207
   7 H     1.0000    0     1.008    4.474488   -0.716214   -2.905695
   8 H     1.0000    0     1.008    5.898100   -2.011625   -0.163269
   9 H     1.0000    0     1.008    3.335466   -3.581297   -1.641290
  10 H     1.0000    0     1.008    1.878557   -1.346899    2.207570
  11 H     1.0000    0     1.008    2.008796    3.381960    2.321050
  12 H     1.0000    0     1.008    3.768539    3.386900   -0.512907
  13 H     1.0000    0     1.008    5.080505    2.075520    2.275296
  14 H     1.0000    0     1.008   -1.877034    1.345296    2.207060
  15 H     1.0000    0     1.008   -5.896165    2.013397   -0.166305
  16 H     1.0000    0     1.008   -3.330896    3.583651   -1.639114
  17 H     1.0000    0     1.008   -4.469552    0.720587   -2.908421
  18 H     1.0000    0     1.008   -5.083665   -2.072069    2.274844
  19 H     1.0000    0     1.008   -2.013884   -3.383226    2.319908
  20 H     1.0000    0     1.008   -3.774216   -3.385271   -0.513701

--------------------------------
INTERNAL COORDINATES (ANGSTROEM)
--------------------------------
 C      0   0   0     0.000000000000     0.00000000     0.00000000
 C      1   0   0     1.526125842187     0.00000000     0.00000000
 C      2   1   0     1.531063746132   111.00899869     0.00000000
 O      2   1   3     1.424360511329   107.11358998   121.35077027
 C      4   2   1     1.424394522861   116.38896669   153.01409441
 C      5   4   2     1.526129324428   107.11842940   152.83732458
 C      5   4   2     1.531060484683   111.01534144   274.18765826
 H      1   2   3     1.086358451838   109.41386968   298.57123522
 H      1   2   3     1.085517818838   110.11268279    58.89389458
 H      1   2   3     1.086443588286   109.98358274   179.47999682
 H      2   1   3     1.100837170638   109.21679624   239.65986705
 H      3   2   1     1.087680855264   110.73320749   178.66786178
 H      3   2   1     1.086909233459   109.56357177    58.97818617
 H      3   2   1     1.085756100343   109.92909755   298.84241373
 H      5   4   2     1.100802804151   109.34002931    34.60305462
 H      6   5   4     1.085516239018   110.11749637   180.13143712
 H      6   5   4     1.086447961110   109.98517377   300.72101474
 H      6   5   4     1.086359249429   109.40718772    59.80886206
 H      7   5   4     1.085770910972   109.93113796   179.78355204
 H      7   5   4     1.087679619186   110.72519612    59.61007104
 H      7   5   4     1.086902499390   109.56624320   299.92226846

---------------------------
INTERNAL COORDINATES (A.U.)
---------------------------
 C      0   0   0     0.000000000000     0.00000000     0.00000000
 C      1   0   0     2.883959887634     0.00000000     0.00000000
 C      2   1   0     2.893291173765   111.00899869     0.00000000
 O      2   1   3     2.691651282384   107.11358998   121.35077027
 C      4   2   1     2.691715554865   116.38896669   153.01409441
 C      5   4   2     2.883966468115   107.11842940   152.83732458
 C      5   4   2     2.893285010519   111.01534144   274.18765826
 H      1   2   3     2.052919957245   109.41386968   298.57123522
 H      1   2   3     2.051331391095   110.11268279    58.89389458
 H      1   2   3     2.053080841816   109.98358274   179.47999682
 H      2   1   3     2.080280770547   109.21679624   239.65986705
 H      3   2   1     2.055418937557   110.73320749   178.66786178
 H      3   2   1     2.053960783668   109.56357177    58.97818617
 H      3   2   1     2.051781677883   109.92909755   298.84241373
 H      5   4   2     2.080215827298   109.34002931    34.60305462
 H      6   5   4     2.051328405668   110.11749637   180.13143712
 H      6   5   4     2.053089105256   109.98517377   300.72101474
 H      6   5   4     2.052921464473   109.40718772    59.80886206
 H      7   5   4     2.051809665916   109.93113796   179.78355204
 H      7   5   4     2.055416601709   110.72519612    59.61007104
 H      7   5   4     2.053948058122   109.56624320   299.92226846

---------------------
BASIS SET INFORMATION
---------------------
There are 3 groups of distinct atoms

 Group   1 Type C   : 11s6p1d contracted to 5s3p1d pattern {62111/411/1}
 Group   2 Type O   : 11s6p2d contracted to 5s3p2d pattern {62111/411/11}
 Group   3 Type H   : 4s1p contracted to 2s1p pattern {31/1}

Atom   0C    basis set group =>   1
Atom   1C    basis set group =>   1
Atom   2C    basis set group =>   1
Atom   3O    basis set group =>   2
Atom   4C    basis set group =>   1
Atom   5C    basis set group =>   1
Atom   6C    basis set group =>   1
Atom   7H    basis set group =>   3
Atom   8H    basis set group =>   3
Atom   9H    basis set group =>   3
Atom  10H    basis set group =>   3
Atom  11H    basis set group =>   3
Atom  12H    basis set group =>   3
Atom  13H    basis set group =>   3
Atom  14H    basis set group =>   3
Atom  15H    basis set group =>   3
Atom  16H    basis set group =>   3
Atom  17H    basis set group =>   3
Atom  18H    basis set group =>   3
Atom  19H    basis set group =>   3
Atom  20H    basis set group =>   3
---------------------------------
AUXILIARY/J BASIS SET INFORMATION
---------------------------------
There are 3 groups of distinct atoms

 Group   1 Type C   : 12s5p4d2f1g contracted to 6s4p3d1f1g pattern {711111/2111/211/2/1}
 Group   2 Type O   : 12s5p4d2f1g contracted to 6s4p3d1f1g pattern {711111/2111/211/2/1}
 Group   3 Type H   : 5s2p1d contracted to 3s1p1d pattern {311/2/1}

Atom   0C    basis set group =>   1
Atom   1C    basis set group =>   1
Atom   2C    basis set group =>   1
Atom   3O    basis set group =>   2
Atom   4C    basis set group =>   1
Atom   5C    basis set group =>   1
Atom   6C    basis set group =>   1
Atom   7H    basis set group =>   3
Atom   8H    basis set group =>   3
Atom   9H    basis set group =>   3
Atom  10H    basis set group =>   3
Atom  11H    basis set group =>   3
Atom  12H    basis set group =>   3
Atom  13H    basis set group =>   3
Atom  14H    basis set group =>   3
Atom  15H    basis set group =>   3
Atom  16H    basis set group =>   3
Atom  17H    basis set group =>   3
Atom  18H    basis set group =>   3
Atom  19H    basis set group =>   3
Atom  20H    basis set group =>   3

Checking for AutoStart:
The File: sp_gas.gbw exists
Trying to determine its content:
     ... Fine, the file contains calculation information
     ... Fine, the calculation information was read
     ... Fine, the file contains a basis set
     ... Fine, the basis set was read
     ... Fine, the file contains a geometry
     ... Fine, the geometry was read
     ... Fine, the file contains a set of orbitals
     ... Fine, the orbitals can be read
     => possible old guess file was deleted
     => GBW file was renamed to GES file
     => GES file is set as startup file
     => Guess is set to MORead
     ... now leaving AutoStart

------------------------------------------------------------------------------
                             ORCA STARTUP CALCULATIONS
                           -- RI-GTO INTEGRALS CHOSEN --
------------------------------------------------------------------------------
------------------------------------------------------------------------------
                   ___                                                        
                  /   \      - P O W E R E D   B Y -                         
                 /     \                                                     
                 |  |  |   _    _      __       _____    __    __             
                 |  |  |  | |  | |    /  \     |  _  \  |  |  /  |          
                  \  \/   | |  | |   /    \    | | | |  |  | /  /          
                 / \  \   | |__| |  /  /\  \   | |_| |  |  |/  /          
                |  |  |   |  __  | /  /__\  \  |    /   |      \           
                |  |  |   | |  | | |   __   |  |    \   |  |\   \          
                \     /   | |  | | |  |  |  |  | |\  \  |  | \   \       
                 \___/    |_|  |_| |__|  |__|  |_| \__\ |__|  \__/        
                                                                              
                      - O R C A' S   B I G   F R I E N D -                    
                                      &                                       
                       - I N T E G R A L  F E E D E R -                       
                                                                              
 v1 FN, 2020, v2 2021, v3 2022-2024                                           
------------------------------------------------------------------------------


----------------------
SHARK INTEGRAL PACKAGE
----------------------

Number of atoms                             ...     21
Number of basis functions                   ...    208
Number of shells                            ...    106
Maximum angular momentum                    ...      2
Integral batch strategy                     ... SHARK/LIBINT Hybrid
RI-J (if used) integral strategy            ... SPLIT-RIJ (Revised 2003 algorithm where possible)
Printlevel                                  ...      1
Contraction scheme used                     ... SEGMENTED contraction
Prescreening option                         ... SCHWARTZ
   Thresh                                   ... 1.000e-10
   Tcut                                     ... 1.000e-11
   Tpresel                                  ... 1.000e-11 
Coulomb Range Separation                    ... NOT USED
Exchange Range Separation                   ... NOT USED
Multipole approximations                    ... NOT USED
Finite Nucleus Model                        ... NOT USED
CABS basis                                  ... NOT available
Auxiliary Coulomb fitting basis             ... AVAILABLE
   # of basis functions in Aux-J            ...    497
   # of shells in Aux-J                     ...    175
   Maximum angular momentum in Aux-J        ...      4
Auxiliary J/K fitting basis                 ... NOT available
Auxiliary Correlation fitting basis         ... NOT available
Auxiliary 'external' fitting basis          ... NOT available

Checking pre-screening integrals            ... done (  0.0 sec) Dimension = 106
Check shell pair data                       ... done (  0.0 sec)
Shell pair information
Shell pair cut-off parameter TPreSel        ...   1.0e-11
Total number of shell pairs                 ...      5671
Shell pairs after pre-screening             ...      5112
Total number of primitive shell pairs       ...     19699
Primitive shell pairs kept                  ...     12753
          la=0 lb=0:   1807 shell pairs
          la=1 lb=0:   1977 shell pairs
          la=1 lb=1:    569 shell pairs
          la=2 lb=0:    464 shell pairs
          la=2 lb=1:    260 shell pairs
          la=2 lb=2:     35 shell pairs

Calculating one electron integrals          ... done (  0.0 sec)
Calculating RI/J V-Matrix + Cholesky decomp.... done (  0.1 sec)
Calculating Nuclear repulsion               ... done (  0.0 sec) ENN=    337.405347315718 Eh

Diagonalization of the overlap matrix:
Smallest eigenvalue                        ... 3.047e-04
Time for diagonalization                   ...    0.003 sec
Threshold for overlap eigenvalues          ... 1.000e-07
Number of eigenvalues below threshold      ... 0
Time for construction of square roots      ...    0.013 sec
Total time needed                          ...    0.028 sec

-------------------
DFT GRID GENERATION
-------------------

General Integration Accuracy     IntAcc      ... 4.388
Radial Grid Type                 RadialGrid  ... OptM3 with GC (2021)
Angular Grid (max. ang.)         AngularGrid ... 4 (Lebedev-302)
Angular grid pruning method      GridPruning ... 4 (adaptive)
Weight generation scheme         WeightScheme... mBecke (2022)
Basis function cutoff            BFCut       ... 1.0000e-10
Integration weight cutoff        WCut        ... 1.0000e-14
Partially contracted basis set               ... off
Rotationally invariant grid construction     ... off
Angular grids for H and He will be reduced by one unit
Diffuse basis detected: some atoms will have their outermost
                        angular grid increased by 1.

Total number of grid points                  ...    87270
Total number of batches                      ...     1369
Average number of points per batch           ...       63
Average number of grid points per atom       ...     4156
Initializing property integral containers    ... done (  0.0 sec)

SHARK setup successfully completed in   1.1 seconds

Maximum memory used throughout the entire STARTUP-calculation: 38.8 MB
-------------------------------------------------------------------------------
                                 ORCA GUESS
                   Start orbitals & Density for SCF / CASSCF
-------------------------------------------------------------------------------

------------
SCF SETTINGS
------------
Hamiltonian:
 Density Functional     Method          .... DFT(GTOs)
  Functional kind                       .... Exchange
  Functional name                       .... Re-regularized SCAN exchange by Furness et al
  Functional family                     .... MGGA
  Functional refs                              
    [ 0] J. W. Furness, A. D. Kaplan, J. Ning, J. P. Perdew, and J. Sun.,  J. Phys. Chem. Lett. 11, 8208-8215 (2020), doi: 10.1021/acs.jpclett.0c02405
    [ 1] J. W. Furness, A. D. Kaplan, J. Ning, J. P. Perdew, and J. Sun.,  J. Phys. Chem. Lett. 11, 9248-9248 (2020), doi: 10.1021/acs.jpclett.0c03077
  Functional external parameters        .... 6
    Parameter  0 _c1        =  6.670000e-01 : c1 parameter        
    Parameter  1 _c2        =  8.000000e-01 : c2 parameter        
    Parameter  2 _d         =  1.240000e+00 : d parameter         
    Parameter  3 _k1        =  6.500000e-02 : k1 parameter        
    Parameter  4 _eta       =  1.000000e-03 : eta parameter       
    Parameter  5 _dp2       =  3.610000e-01 : dp2 parameter       
  Functional kind                       .... Correlation
  Functional name                       .... Re-regularized SCAN correlation by Furness et al
  Functional family                     .... MGGA
  Functional refs                              
    [ 0] J. W. Furness, A. D. Kaplan, J. Ning, J. P. Perdew, and J. Sun.,  J. Phys. Chem. Lett. 11, 8208-8215 (2020), doi: 10.1021/acs.jpclett.0c02405
    [ 1] J. W. Furness, A. D. Kaplan, J. Ning, J. P. Perdew, and J. Sun.,  J. Phys. Chem. Lett. 11, 9248-9248 (2020), doi: 10.1021/acs.jpclett.0c03077
  Functional external parameters        .... 1
    Parameter  0 _eta       =  1.000000e-03 : Regularization parameter
 Gradients option       PostSCFGGA      .... off
 RI-approximation to the Coulomb term is turned on
   Number of AuxJ basis functions       .... 497


General Settings:
 Integral files         IntName         .... sp_gas
 Hartree-Fock type      HFTyp           .... RHF
 Total Charge           Charge          ....    0
 Multiplicity           Mult            ....    1
 Number of Electrons    NEL             ....   58
 Basis Dimension        Dim             ....  208
 Nuclear Repulsion      ENuc            ....    337.4053473157 Eh

Convergence Acceleration:
 AO-DIIS                CNVDIIS         .... on
   Start iteration      DIISMaxIt       ....    12
   Startup error        DIISStart       ....  0.200000
   # of expansion vecs  DIISMaxEq       ....     5
   Bias factor          DIISBfac        ....   1.050
   Max. coefficient     DIISMaxC        ....  10.000
 MO-DIIS                CNVKDIIS        .... off
 Trust-Rad. Augm. Hess. CNVTRAH         .... auto
   Auto Start mean grad. ratio tolernc. ....  1.125000
   Auto Start start iteration           ....     1
   Auto Start num. interpolation iter.  ....    10
   Max. Number of Micro iterations      ....    24
   Max. Number of Macro iterations      .... Maxiter - #DIIS iter
   Number of Davidson start vectors     ....     2
   Converg. threshold    (grad. norm)   ....   3.330e-04
   Grad. Scal. Fac. for Micro threshold ....   0.100
   Minimum threshold for Micro iter.    ....   1.000e-02
   NR start threshold (gradient norm)   ....   1.000e-04
   Initial trust radius                 ....   0.400
   Minimum AH scaling param. (alpha)    ....   1.000
   Maximum AH scaling param. (alpha)    .... 1000.000
   Quad. conv. algorithm                .... NR
   White noise on init. David. guess    .... on
   Maximum white noise                  ....   0.010
   Pseudo random numbers                .... off
   Inactive MOs                         .... canonical
   Orbital update algorithm             .... Taylor
   Preconditioner                       .... Diag
   Full preconditioner red. dimension   ....   250
   COSX micro iterations for RIJONX calc.... off
 SOSCF                  CNVSOSCF        .... on
   Start iteration      SOSCFMaxIt      ....   150
   Startup grad/error   SOSCFStart      ....  0.003300
   Hessian update       SOSCFHessUp     .... L-BFGS
 Level Shifting         CNVShift        .... on
   Level shift para.    LevelShift      ....    0.2500
   Turn off err/grad.   ShiftErr        ....    0.0010
 Zerner damping         CNVZerner       .... off
 Static damping         CNVDamp         .... on
   Fraction old density DampFac         ....    0.7000
   Max. Damping (<1)    DampMax         ....    0.9800
   Min. Damping (>=0)   DampMin         ....    0.0000
   Turn off err/grad.   DampErr         ....    0.1000

SCF Procedure:
 Maximum # iterations   MaxIter         ....   125
 SCF integral mode      SCFMode         .... Direct
   Integral package                     .... SHARK and LIBINT hybrid scheme
 Reset frequency        DirectResetFreq ....    20
 Integral Threshold     Thresh          ....  1.000e-10 Eh
 Primitive CutOff       TCut            ....  1.000e-11 Eh

Convergence Tolerance:
 Convergence Check Mode ConvCheckMode   .... Total+1el-Energy
 Convergence forced     ConvForced      .... 0
 Energy Change          TolE            ....  1.000e-06 Eh
 1-El. energy change                    ....  1.000e-03 Eh
 Orbital Gradient       TolG            ....  3.330e-04
 Orbital Rotation angle TolX            ....  3.330e-04
 DIIS Error             TolErr          ....  1.000e-06

---------------------
INITIAL GUESS: MOREAD
---------------------
Guess MOs are being read from file: sp_gas.ges
Input Geometry matches current geometry (good)
Atom 0: N(Shells)= 9 and 6 - projection required
Input basis set needs projection
NBasis(read)= 126
NBasis(calc)= 208
Basis set overlap was calculated
Using GuessMode=FMatrix for the initial guess
C*T matrix was formed
Effective Fockian was calculated
Effective Fockian was diagonalized
Initial density was built
                      ------------------
                      INITIAL GUESS DONE (   0.1 sec)
                      ------------------
             **** ENERGY FILE WAS UPDATED (sp_gas.en.tmp) ****
Finished Guess after   0.2 sec
Maximum memory used throughout the entire GUESS-calculation: 14.2 MB

-------------------------------------------------------------------------------------------
                                      ORCA LEAN-SCF
                              memory conserving SCF solver
-------------------------------------------------------------------------------------------

----------------------------------------D-I-I-S--------------------------------------------
Iteration    Energy (Eh)           Delta-E    RMSDP     MaxDP     DIISErr   Damp  Time(sec)
-------------------------------------------------------------------------------------------
               ***  Starting incremental Fock matrix formation  ***
    1    -312.0354010089763506     0.00e+00  3.10e-03  9.40e-02  6.27e-01  0.700   2.4
    2    -312.0850561504526013    -4.97e-02  2.58e-03  7.67e-02  4.41e-01  0.700   2.1
    3    -312.1201881531392246    -3.51e-02  1.91e-03  5.60e-02  3.09e-01  0.700   2.1
    4    -312.1448534024785886    -2.47e-02  1.38e-03  3.98e-02  2.16e-01  0.700   2.0
                               ***Turning on AO-DIIS***
    5    -312.1621542375149829    -1.73e-02  1.00e-03  2.85e-02  1.51e-01  0.700   2.1
    6    -312.1742832782811092    -1.21e-02  7.16e-04  2.01e-02  1.06e-01  0.700   2.0
    7    -312.1827849081043951    -8.50e-03  5.07e-04  1.41e-02  7.41e-02  0.700   2.0
    8    -312.1887417339701187    -5.96e-03  1.19e-03  3.31e-02  5.19e-02  0.000   1.9
                              *** Initializing SOSCF ***
---------------------------------------S-O-S-C-F--------------------------------------
Iteration    Energy (Eh)           Delta-E    RMSDP     MaxDP     MaxGrad    Time(sec)
--------------------------------------------------------------------------------------
    9    -312.2026602602832099    -1.39e-02  9.05e-06  2.39e-04  8.61e-05     2.0
               *** Restarting incremental Fock matrix formation ***
   10    -312.2026604112099903    -1.51e-07  4.70e-06  1.10e-04  2.33e-05     2.3
                  *** Gradient check signals convergence ***

               *****************************************************
               *                     SUCCESS                       *
               *           SCF CONVERGED AFTER  10 CYCLES          *
               *****************************************************

             **** ENERGY FILE WAS UPDATED (sp_gas.en.tmp) ****

----------------
TOTAL SCF ENERGY
----------------

Total Energy       :       -312.20266041120999 Eh           -8495.46629 eV

Components:
Nuclear Repulsion  :        337.40534731571802 Eh            9181.26627 eV
Electronic Energy  :       -649.60800772692801 Eh          -17676.73256 eV
One Electron Energy:      -1090.41381081329359 Eh          -29671.66827 eV
Two Electron Energy:        440.80580308636559 Eh           11994.93571 eV

Virial components:
Potential Energy   :       -622.96846393188844 Eh          -16951.83372 eV
Kinetic Energy     :        310.76580352067850 Eh            8456.36743 eV
Virial Ratio       :          2.00462360039056

DFT components:
N(Alpha)           :       29.000079558081 electrons
N(Beta)            :       29.000079558081 electrons
N(Total)           :       58.000159116163 electrons
E(X)               :      -44.487952290450 Eh       
E(C)               :       -1.806569383264 Eh       
E(XC)              :      -46.294521673714 Eh       

---------------
SCF CONVERGENCE
---------------

  Last Energy change         ...    1.5093e-07  Tolerance :   1.0000e-06
  Last MAX-Density change    ...    1.1031e-04  Tolerance :   1.0000e-05
  Last RMS-Density change    ...    4.7047e-06  Tolerance :   1.0000e-06
  Last DIIS Error            ...    8.6071e-05  Tolerance :   1.0000e-06
  Last Orbital Gradient      ...    2.3276e-05  Tolerance :   3.3300e-04
  Last Orbital Rotation      ...    4.2840e-05  Tolerance :   3.3300e-04


----------------
ORBITAL ENERGIES
----------------

  NO   OCC          E(Eh)            E(eV) 
   0   2.0000     -18.939370      -515.3665 
   1   2.0000     -10.079654      -274.2813 
   2   2.0000     -10.079640      -274.2810 
   3   2.0000     -10.015111      -272.5250 
   4   2.0000     -10.015098      -272.5247 
   5   2.0000     -10.014021      -272.4954 
   6   2.0000     -10.014014      -272.4952 
   7   2.0000      -0.986812       -26.8525 
   8   2.0000      -0.761296       -20.7159 
   9   2.0000      -0.713373       -19.4119 
  10   2.0000      -0.654341       -17.8055 
  11   2.0000      -0.651489       -17.7279 
  12   2.0000      -0.565667       -15.3926 
  13   2.0000      -0.530797       -14.4437 
  14   2.0000      -0.469544       -12.7770 
  15   2.0000      -0.429329       -11.6826 
  16   2.0000      -0.415113       -11.2958 
  17   2.0000      -0.388123       -10.5614 
  18   2.0000      -0.383541       -10.4367 
  19   2.0000      -0.375639       -10.2217 
  20   2.0000      -0.354716        -9.6523 
  21   2.0000      -0.354120        -9.6361 
  22   2.0000      -0.337326        -9.1791 
  23   2.0000      -0.332900        -9.0587 
  24   2.0000      -0.323438        -8.8012 
  25   2.0000      -0.309741        -8.4285 
  26   2.0000      -0.303427        -8.2567 
  27   2.0000      -0.266757        -7.2588 
  28   2.0000      -0.212116        -5.7720 
  29   0.0000       0.078995         2.1496 
  30   0.0000       0.107914         2.9365 
  31   0.0000       0.115833         3.1520 
  32   0.0000       0.118787         3.2324 
  33   0.0000       0.125620         3.4183 
  34   0.0000       0.139986         3.8092 
  35   0.0000       0.145133         3.9493 
  36   0.0000       0.147327         4.0090 
  37   0.0000       0.155049         4.2191 
  38   0.0000       0.162320         4.4169 
  39   0.0000       0.167679         4.5628 
*Only the first 10 virtual orbitals were printed.

                    ********************************
                    * MULLIKEN POPULATION ANALYSIS *
                    ********************************

-----------------------
MULLIKEN ATOMIC CHARGES
-----------------------
   0 C :   -0.457704
   1 C :    0.003596
   2 C :   -0.454066
   3 O :   -0.205122
   4 C :    0.003961
   5 C :   -0.457707
   6 C :   -0.454265
   7 H :    0.153711
   8 H :    0.137781
   9 H :    0.152780
  10 H :    0.128106
  11 H :    0.137952
  12 H :    0.156771
  13 H :    0.143582
  14 H :    0.128043
  15 H :    0.137752
  16 H :    0.152726
  17 H :    0.153795
  18 H :    0.143584
  19 H :    0.138002
  20 H :    0.156721
Sum of atomic charges:    0.0000000

--------------------------------
MULLIKEN REDUCED ORBITAL CHARGES
--------------------------------
  0 C s       :     3.327722  s :     3.327722
      pz      :     1.024769  p :     3.104178
      px      :     1.016487
      py      :     1.062923
      dz2     :     0.003996  d :     0.025804
      dxz     :     0.006267
      dyz     :     0.005663
      dx2y2   :     0.005478
      dxy     :     0.004400

  1 C s       :     3.208094  s :     3.208094
      pz      :     0.967324  p :     2.721245
      px      :     0.801601
      py      :     0.952320
      dz2     :     0.009327  d :     0.067065
      dxz     :     0.015561
      dyz     :     0.013107
      dx2y2   :     0.013462
      dxy     :     0.015608

  2 C s       :     3.318377  s :     3.318377
      pz      :     1.086704  p :     3.110037
      px      :     1.051858
      py      :     0.971475
      dz2     :     0.002495  d :     0.025653
      dxz     :     0.005817
      dyz     :     0.007139
      dx2y2   :     0.004953
      dxy     :     0.005249

  3 O s       :     3.748382  s :     3.748382
      pz      :     1.552051  p :     4.454917
      px      :     1.030729
      py      :     1.872137
      dz2     :    -0.000108  d :     0.001823
      dxz     :     0.002265
      dyz     :     0.004698
      dx2y2   :    -0.003197
      dxy     :    -0.001835

  4 C s       :     3.207960  s :     3.207960
      pz      :     0.967165  p :     2.721021
      px      :     0.801607
      py      :     0.952250
      dz2     :     0.009326  d :     0.067059
      dxz     :     0.015555
      dyz     :     0.013102
      dx2y2   :     0.013449
      dxy     :     0.015627

  5 C s       :     3.327771  s :     3.327771
      pz      :     1.024792  p :     3.104132
      px      :     1.016603
      py      :     1.062736
      dz2     :     0.004015  d :     0.025804
      dxz     :     0.006251
      dyz     :     0.005653
      dx2y2   :     0.005480
      dxy     :     0.004405

  6 C s       :     3.318566  s :     3.318566
      pz      :     1.086643  p :     3.110046
      px      :     1.051712
      py      :     0.971691
      dz2     :     0.002495  d :     0.025653
      dxz     :     0.005818
      dyz     :     0.007138
      dx2y2   :     0.004938
      dxy     :     0.005264

  7 H s       :     0.828005  s :     0.828005
      pz      :     0.009097  p :     0.018283
      px      :     0.003810
      py      :     0.005376

  8 H s       :     0.843799  s :     0.843799
      pz      :     0.005232  p :     0.018420
      px      :     0.009346
      py      :     0.003842

  9 H s       :     0.828981  s :     0.828981
      pz      :     0.004092  p :     0.018239
      px      :     0.004618
      py      :     0.009528

 10 H s       :     0.854805  s :     0.854805
      pz      :     0.008878  p :     0.017088
      px      :     0.002688
      py      :     0.005523

 11 H s       :     0.843556  s :     0.843556
      pz      :     0.005908  p :     0.018492
      px      :     0.006755
      py      :     0.005829

 12 H s       :     0.825036  s :     0.825036
      pz      :     0.008673  p :     0.018193
      px      :     0.003876
      py      :     0.005644

 13 H s       :     0.837948  s :     0.837948
      pz      :     0.005778  p :     0.018470
      px      :     0.008978
      py      :     0.003714

 14 H s       :     0.854864  s :     0.854864
      pz      :     0.008881  p :     0.017093
      px      :     0.002690
      py      :     0.005521

 15 H s       :     0.843828  s :     0.843828
      pz      :     0.005225  p :     0.018420
      px      :     0.009354
      py      :     0.003842

 16 H s       :     0.829036  s :     0.829036
      pz      :     0.004086  p :     0.018238
      px      :     0.004622
      py      :     0.009529

 17 H s       :     0.827922  s :     0.827922
      pz      :     0.009107  p :     0.018283
      px      :     0.003808
      py      :     0.005368

 18 H s       :     0.837948  s :     0.837948
      pz      :     0.005779  p :     0.018469
      px      :     0.008974
      py      :     0.003715

 19 H s       :     0.843508  s :     0.843508
      pz      :     0.005906  p :     0.018490
      px      :     0.006747
      py      :     0.005837

 20 H s       :     0.825085  s :     0.825085
      pz      :     0.008673  p :     0.018194
      px      :     0.003879
      py      :     0.005642


------------------------
MULLIKEN OVERLAP CHARGES
------------------------
B(  0-C ,  1-C ) :   0.4952 B(  0-C ,  2-C ) :  -0.1446 B(  0-C ,  3-O ) :  -0.0715 
B(  0-C ,  7-H ) :   0.8435 B(  0-C ,  8-H ) :   0.8346 B(  0-C ,  9-H ) :   0.8097 
B(  1-C ,  2-C ) :   0.5201 B(  1-C ,  3-O ) :   0.1653 B(  1-C ,  4-C ) :  -0.1647 
B(  1-C ,  7-H ) :  -0.0732 B(  1-C ,  8-H ) :  -0.0902 B(  1-C ,  9-H ) :  -0.0616 
B(  1-C , 10-H ) :   0.8178 B(  1-C , 12-H ) :  -0.0987 B(  1-C , 13-H ) :  -0.0754 
B(  2-C ,  3-O ) :  -0.0989 B(  2-C , 10-H ) :  -0.0791 B(  2-C , 11-H ) :   0.7898 
B(  2-C , 12-H ) :   0.8594 B(  2-C , 13-H ) :   0.8290 B(  3-O ,  4-C ) :   0.1645 
B(  3-O ,  5-C ) :  -0.0713 B(  3-O ,  6-C ) :  -0.0986 B(  3-O , 10-H ) :  -0.1054 
B(  3-O , 14-H ) :  -0.1053 B(  4-C ,  5-C ) :   0.4950 B(  4-C ,  6-C ) :   0.5206 
B(  4-C , 14-H ) :   0.8179 B(  4-C , 15-H ) :  -0.0904 B(  4-C , 16-H ) :  -0.0615 
B(  4-C , 17-H ) :  -0.0732 B(  4-C , 18-H ) :  -0.0754 B(  4-C , 20-H ) :  -0.0987 
B(  5-C ,  6-C ) :  -0.1446 B(  5-C , 15-H ) :   0.8348 B(  5-C , 16-H ) :   0.8097 
B(  5-C , 17-H ) :   0.8435 B(  6-C , 14-H ) :  -0.0789 B(  6-C , 18-H ) :   0.8292 
B(  6-C , 19-H ) :   0.7899 B(  6-C , 20-H ) :   0.8593 


                     *******************************
                     * LOEWDIN POPULATION ANALYSIS *
                     *******************************

----------------------
LOEWDIN ATOMIC CHARGES
----------------------
   0 C :   -0.382981
   1 C :    0.053385
   2 C :   -0.396914
   3 O :   -0.770616
   4 C :    0.053378
   5 C :   -0.383001
   6 C :   -0.396890
   7 H :    0.161523
   8 H :    0.155175
   9 H :    0.160415
  10 H :    0.164611
  11 H :    0.154163
  12 H :    0.160542
  13 H :    0.155390
  14 H :    0.164631
  15 H :    0.155166
  16 H :    0.160373
  17 H :    0.161554
  18 H :    0.155374
  19 H :    0.154187
  20 H :    0.160535

-------------------------------
LOEWDIN REDUCED ORBITAL CHARGES
-------------------------------
  0 C s       :     2.971199  s :     2.971199
      pz      :     1.125799  p :     3.350942
      px      :     1.097334
      py      :     1.127809
      dz2     :     0.009287  d :     0.060840
      dxz     :     0.015088
      dyz     :     0.013717
      dx2y2   :     0.012888
      dxy     :     0.009861

  1 C s       :     2.836843  s :     2.836843
      pz      :     1.011974  p :     2.965177
      px      :     0.911678
      py      :     1.041526
      dz2     :     0.020066  d :     0.144594
      dxz     :     0.035486
      dyz     :     0.028180
      dx2y2   :     0.027447
      dxy     :     0.033415

  2 C s       :     2.975371  s :     2.975371
      pz      :     1.145657  p :     3.360498
      px      :     1.126243
      py      :     1.088598
      dz2     :     0.005842  d :     0.061044
      dxz     :     0.014861
      dyz     :     0.016552
      dx2y2   :     0.011930
      dxy     :     0.011859

  3 O s       :     3.493314  s :     3.493314
      pz      :     1.626454  p :     4.766527
      px      :     1.295124
      py      :     1.844948
      dz2     :     0.092528  d :     0.510774
      dxz     :     0.142443
      dyz     :     0.062034
      dx2y2   :     0.100530
      dxy     :     0.113240

  4 C s       :     2.836824  s :     2.836824
      pz      :     1.012014  p :     2.965214
      px      :     0.911707
      py      :     1.041493
      dz2     :     0.020062  d :     0.144585
      dxz     :     0.035471
      dyz     :     0.028174
      dx2y2   :     0.027403
      dxy     :     0.033475

  5 C s       :     2.971209  s :     2.971209
      pz      :     1.125821  p :     3.350949
      px      :     1.097455
      py      :     1.127673
      dz2     :     0.009336  d :     0.060842
      dxz     :     0.015046
      dyz     :     0.013690
      dx2y2   :     0.012896
      dxy     :     0.009875

  6 C s       :     2.975378  s :     2.975378
      pz      :     1.145641  p :     3.360468
      px      :     1.126131
      py      :     1.088697
      dz2     :     0.005842  d :     0.061044
      dxz     :     0.014862
      dyz     :     0.016550
      dx2y2   :     0.011893
      dxy     :     0.011896

  7 H s       :     0.794978  s :     0.794978
      pz      :     0.022417  p :     0.043499
      px      :     0.008204
      py      :     0.012878

  8 H s       :     0.800967  s :     0.800967
      pz      :     0.012581  p :     0.043857
      px      :     0.022724
      py      :     0.008552

  9 H s       :     0.796220  s :     0.796220
      pz      :     0.009216  p :     0.043365
      px      :     0.010780
      py      :     0.023370

 10 H s       :     0.794814  s :     0.794814
      pz      :     0.020284  p :     0.040575
      px      :     0.007037
      py      :     0.013253

 11 H s       :     0.802204  s :     0.802204
      pz      :     0.013598  p :     0.043633
      px      :     0.016434
      py      :     0.013601

 12 H s       :     0.795810  s :     0.795810
      pz      :     0.021639  p :     0.043648
      px      :     0.008488
      py      :     0.013520

 13 H s       :     0.800438  s :     0.800438
      pz      :     0.013627  p :     0.044172
      px      :     0.021953
      py      :     0.008592

 14 H s       :     0.794787  s :     0.794787
      pz      :     0.020290  p :     0.040583
      px      :     0.007043
      py      :     0.013249

 15 H s       :     0.800977  s :     0.800977
      pz      :     0.012563  p :     0.043857
      px      :     0.022744
      py      :     0.008550

 16 H s       :     0.796262  s :     0.796262
      pz      :     0.009202  p :     0.043365
      px      :     0.010791
      py      :     0.023372

 17 H s       :     0.794948  s :     0.794948
      pz      :     0.022445  p :     0.043498
      px      :     0.008196
      py      :     0.012857

 18 H s       :     0.800456  s :     0.800456
      pz      :     0.013629  p :     0.044169
      px      :     0.021945
      py      :     0.008596

 19 H s       :     0.802185  s :     0.802185
      pz      :     0.013592  p :     0.043628
      px      :     0.016414
      py      :     0.013622

 20 H s       :     0.795817  s :     0.795817
      pz      :     0.021639  p :     0.043648
      px      :     0.008495
      py      :     0.013514


---------------------------------
LOEWDIN BOND ORDERS (THRESH 0.050000)
---------------------------------
B(  0-C ,  1-C ) :   1.0509 B(  0-C ,  2-C ) :   0.0720 B(  0-C ,  3-O ) :   0.1708 
B(  0-C ,  7-H ) :   0.9166 B(  0-C ,  8-H ) :   0.9192 B(  0-C ,  9-H ) :   0.9198 
B(  1-C ,  2-C ) :   1.0482 B(  1-C ,  3-O ) :   1.3348 B(  1-C ,  4-C ) :   0.0780 
B(  1-C , 10-H ) :   0.7970 B(  2-C ,  3-O ) :   0.1610 B(  2-C , 11-H ) :   0.9200 
B(  2-C , 12-H ) :   0.9196 B(  2-C , 13-H ) :   0.9190 B(  3-O ,  4-C ) :   1.3346 
B(  3-O ,  5-C ) :   0.1708 B(  3-O ,  6-C ) :   0.1610 B(  3-O , 10-H ) :   0.0954 
B(  3-O , 14-H ) :   0.0954 B(  4-C ,  5-C ) :   1.0509 B(  4-C ,  6-C ) :   1.0482 
B(  4-C , 14-H ) :   0.7970 B(  5-C ,  6-C ) :   0.0720 B(  5-C , 15-H ) :   0.9192 
B(  5-C , 16-H ) :   0.9198 B(  5-C , 17-H ) :   0.9166 B(  6-C , 18-H ) :   0.9190 
B(  6-C , 19-H ) :   0.9200 B(  6-C , 20-H ) :   0.9196 

------------------------------------------
LOEWDIN REDUCED ORBITAL POPULATIONS PER MO
-------------------------------------------
THRESHOLD FOR PRINTING IS 0.1%%
                      0         1         2         3         4         5   
                 -18.93937 -10.07965 -10.07964 -10.01511 -10.01510 -10.01402
                   2.00000   2.00000   2.00000   2.00000   2.00000   2.00000
                  --------  --------  --------  --------  --------  --------
 0 C  s               0.0       0.0       0.0       0.0       0.0      97.3
 1 C  s               0.0      98.9       0.4       0.0       0.0       0.0
 2 C  s               0.0       0.0       0.0      99.0       0.7       0.0
 3 O  s              99.9       0.0       0.0       0.0       0.0       0.0
 3 O  dxz             0.0       0.1       0.2       0.0       0.0       0.0
 3 O  dx2y2           0.0       0.1       0.1       0.0       0.0       0.0
 4 C  s               0.0       0.4      98.9       0.0       0.0       0.0
 5 C  s               0.0       0.0       0.0       0.0       0.0       2.4
 6 C  s               0.0       0.0       0.0       0.7      99.0       0.0

                      6         7         8         9        10        11   
                 -10.01401  -0.98681  -0.76130  -0.71337  -0.65434  -0.65149
                   2.00000   2.00000   2.00000   2.00000   2.00000   2.00000
                  --------  --------  --------  --------  --------  --------
 0 C  s               2.4       0.7       8.4       8.9       9.3      12.4
 0 C  pz              0.0       0.1       0.5       0.5       0.1       0.1
 0 C  px              0.0       0.9       0.6       0.0       0.0       0.0
 0 C  py              0.0       0.3       0.6       0.3       0.3       0.3
 1 C  s               0.0       8.2      13.1       6.1       0.0       0.0
 1 C  pz              0.0       1.7       0.3       0.5       1.8       2.4
 1 C  px              0.0       5.5       2.0       5.4       0.0       0.5
 1 C  py              0.0       0.1       0.1       0.1       6.9       4.9
 1 C  dxz             0.0       0.4       0.0       0.2       0.0       0.1
 1 C  dx2y2           0.0       0.3       0.0       0.1       0.1       0.0
 1 C  dxy             0.0       0.0       0.0       0.0       0.1       0.1
 2 C  s               0.0       0.7       7.1      10.5      13.1      10.1
 2 C  pz              0.0       0.2       0.2       0.0       0.1       0.2
 2 C  px              0.0       0.5       0.1       0.0       0.0       0.0
 2 C  py              0.0       0.6       1.3       0.7       0.4       0.3
 3 O  s               0.0      55.2       0.0       7.0       0.0       0.0
 3 O  pz              0.0       2.4       0.0       0.6       0.0       0.4
 3 O  px              0.0       0.0      11.2       0.0       0.2       0.0
 3 O  py              0.0       0.0       0.1       0.0       1.1       0.0
 3 O  dz2             0.0       0.0       0.0       0.2       0.0       0.2
 3 O  dxz             0.0       0.0       2.3       0.0       0.3       0.0
 3 O  dyz             0.0       0.0       0.0       0.0       0.2       0.0
 3 O  dx2y2           0.0       0.5       0.0       1.1       0.0       0.2
 3 O  dxy             0.0       0.0       0.0       0.0       0.0       1.3
 4 C  s               0.0       8.2      13.1       6.1       0.0       0.0
 4 C  pz              0.0       1.7       0.3       0.5       1.8       2.4
 4 C  px              0.0       5.5       2.0       5.4       0.0       0.5
 4 C  py              0.0       0.1       0.1       0.1       6.8       4.9
 4 C  dxz             0.0       0.4       0.0       0.2       0.0       0.1
 4 C  dx2y2           0.0       0.3       0.0       0.1       0.0       0.0
 4 C  dxy             0.0       0.0       0.0       0.0       0.1       0.1
 5 C  s              97.3       0.7       8.4       8.9       9.2      12.5
 5 C  pz              0.0       0.1       0.5       0.5       0.1       0.1
 5 C  px              0.0       0.9       0.6       0.0       0.0       0.0
 5 C  py              0.0       0.3       0.6       0.3       0.3       0.3
 6 C  s               0.0       0.7       7.1      10.4      13.0      10.2
 6 C  pz              0.0       0.2       0.2       0.0       0.1       0.2
 6 C  px              0.0       0.5       0.1       0.0       0.0       0.0
 6 C  py              0.0       0.6       1.3       0.7       0.4       0.3
 7 H  s               0.0       0.0       1.2       1.5       2.0       2.8
 7 H  pz              0.0       0.0       0.1       0.1       0.1       0.2
 8 H  s               0.0       0.0       1.2       1.8       2.0       2.9
 8 H  px              0.0       0.0       0.1       0.1       0.1       0.2
 9 H  s               0.0       0.0       1.1       1.4       2.4       3.1
 9 H  py              0.0       0.0       0.1       0.1       0.2       0.2
10 H  s               0.0       0.6       1.7       1.2       0.0       0.0
10 H  pz              0.0       0.0       0.1       0.1       0.0       0.0
11 H  s               0.0       0.0       0.9       1.7       3.4       2.7
11 H  px              0.0       0.0       0.0       0.1       0.1       0.1
12 H  s               0.0       0.0       1.0       1.7       2.9       2.1
12 H  pz              0.0       0.0       0.1       0.1       0.2       0.1
13 H  s               0.0       0.0       1.0       2.0       3.0       2.3
13 H  px              0.0       0.0       0.1       0.1       0.2       0.1
14 H  s               0.0       0.6       1.7       1.2       0.0       0.0
14 H  pz              0.0       0.0       0.1       0.1       0.0       0.0
15 H  s               0.0       0.0       1.2       1.8       2.0       2.9
15 H  px              0.0       0.0       0.1       0.1       0.1       0.2
16 H  s               0.0       0.0       1.1       1.4       2.4       3.1
16 H  py              0.0       0.0       0.1       0.1       0.2       0.2
17 H  s               0.0       0.0       1.2       1.5       2.0       2.8
17 H  pz              0.0       0.0       0.1       0.1       0.1       0.2
18 H  s               0.0       0.0       1.0       2.0       3.0       2.4
18 H  px              0.0       0.0       0.1       0.1       0.2       0.1
19 H  s               0.0       0.0       0.9       1.7       3.3       2.7
19 H  px              0.0       0.0       0.0       0.1       0.1       0.1
20 H  s               0.0       0.0       1.0       1.7       2.9       2.2
20 H  pz              0.0       0.0       0.1       0.1       0.2       0.1

                     12        13        14        15        16        17   
                  -0.56567  -0.53080  -0.46954  -0.42933  -0.41511  -0.38812
                   2.00000   2.00000   2.00000   2.00000   2.00000   2.00000
                  --------  --------  --------  --------  --------  --------
 0 C  s               5.8       0.9       0.1       0.6       0.0       0.2
 0 C  pz              0.7       2.7       5.1       0.9       0.3       0.4
 0 C  px              3.4       0.6       0.1       0.9       4.5       0.9
 0 C  py              0.6       0.0       0.4      10.0       5.9       4.3
 1 C  s               5.6       5.9       0.7       1.2       0.2       0.0
 1 C  pz              0.1       7.6      12.3       3.1       0.1       2.6
 1 C  px              3.1       0.4       2.1       6.2       3.5       1.4
 1 C  py              0.2       1.6       3.7       0.7       6.3       2.0
 1 C  dxz             0.1       0.1       0.1       0.0       0.0       0.0
 2 C  s               2.6       2.4       0.0       0.2       0.6       0.0
 2 C  pz              0.1       0.3       2.6       5.3       3.3       3.1
 2 C  px              0.9       1.2       0.7       1.7       0.5      17.6
 2 C  py              1.5       4.1       2.2       4.2       7.2       0.0
 3 O  s               0.0       4.6       0.0       0.1       0.0       0.0
 3 O  pz              0.0       7.7       0.0       4.2       0.0       0.0
 3 O  px             19.4       0.0      15.2       0.0       1.5       0.1
 3 O  py              0.6       0.0       1.2       0.0      12.6       5.1
 3 O  dz2             0.0       0.7       0.0       1.0       0.0       0.0
 3 O  dxz             1.7       0.0       1.1       0.0       0.1       0.6
 3 O  dyz             0.3       0.0       0.5       0.0       0.2       0.5
 3 O  dx2y2           0.0       0.2       0.0       1.6       0.0       0.0
 3 O  dxy             0.0       0.3       0.0       0.1       0.0       0.0
 4 C  s               5.6       5.9       0.7       1.2       0.2       0.0
 4 C  pz              0.1       7.6      12.3       3.1       0.1       2.6
 4 C  px              3.1       0.4       2.1       6.2       3.5       1.4
 4 C  py              0.2       1.6       3.7       0.7       6.3       2.0
 4 C  dxz             0.1       0.1       0.1       0.0       0.0       0.0
 5 C  s               5.8       0.9       0.1       0.6       0.0       0.2
 5 C  pz              0.7       2.7       5.1       0.9       0.4       0.4
 5 C  px              3.4       0.6       0.1       0.9       4.5       0.9
 5 C  py              0.6       0.0       0.4      10.0       5.9       4.3
 6 C  s               2.6       2.4       0.0       0.2       0.6       0.0
 6 C  pz              0.1       0.3       2.6       5.2       3.3       3.2
 6 C  px              0.9       1.2       0.7       1.7       0.5      17.6
 6 C  py              1.5       4.1       2.2       4.2       7.2       0.0
 7 H  s               2.3       1.4       1.6       0.0       0.4       0.0
 7 H  pz              0.1       0.0       0.0       0.0       0.0       0.0
 8 H  s               3.2       0.3       0.4       0.9       1.1       0.5
 8 H  px              0.1       0.0       0.0       0.0       0.0       0.0
 9 H  s               1.9       0.4       0.0       4.1       3.7       1.4
10 H  s               1.9       7.6       6.3       0.8       0.2       0.2
10 H  pz              0.1       0.3       0.1       0.0       0.0       0.0
10 H  py              0.0       0.1       0.1       0.0       0.0       0.1
11 H  s               1.0       0.8       0.1       4.7       2.4       5.4
11 H  px              0.0       0.1       0.0       0.1       0.1       0.0
11 H  py              0.0       0.0       0.0       0.0       0.0       0.1
12 H  s               1.1       2.5       1.1       0.2       0.2       2.6
12 H  pz              0.1       0.1       0.0       0.0       0.1       0.0
13 H  s               1.5       1.2       0.7       0.0       1.3       3.2
13 H  pz              0.0       0.0       0.0       0.0       0.0       0.2
14 H  s               1.9       7.6       6.3       0.7       0.2       0.2
14 H  pz              0.1       0.3       0.1       0.0       0.0       0.0
14 H  py              0.0       0.1       0.1       0.0       0.0       0.1
15 H  s               3.2       0.3       0.4       0.9       1.1       0.5
15 H  px              0.1       0.0       0.0       0.0       0.0       0.0
16 H  s               1.9       0.4       0.0       4.0       3.7       1.4
17 H  s               2.3       1.4       1.6       0.0       0.4       0.0
17 H  pz              0.1       0.0       0.0       0.0       0.0       0.0
18 H  s               1.5       1.2       0.7       0.0       1.3       3.1
18 H  pz              0.0       0.0       0.0       0.0       0.0       0.2
19 H  s               1.0       0.8       0.1       4.7       2.4       5.4
19 H  px              0.0       0.1       0.0       0.1       0.1       0.0
19 H  py              0.0       0.0       0.0       0.0       0.0       0.1
20 H  s               1.1       2.5       1.1       0.2       0.2       2.6
20 H  pz              0.1       0.1       0.0       0.0       0.1       0.0

                     18        19        20        21        22        23   
                  -0.38354  -0.37564  -0.35472  -0.35412  -0.33733  -0.33290
                   2.00000   2.00000   2.00000   2.00000   2.00000   2.00000
                  --------  --------  --------  --------  --------  --------
 0 C  pz              6.6       0.4      10.5       8.9       6.3       4.3
 0 C  px              0.4      21.2       1.3       0.1       7.7       0.0
 0 C  py              1.7       1.2       2.6       3.7       0.0       0.4
 0 C  dxz             0.0       0.1       0.0       0.0       0.1       0.0
 0 C  dx2y2           0.0       0.1       0.0       0.0       0.2       0.0
 1 C  s               0.1       0.2       0.0       0.0       0.2       0.0
 1 C  pz              0.1       1.1       0.1       0.0       2.3       0.6
 1 C  px              0.9       0.7       0.0       0.0       1.6       3.0
 1 C  py              4.0       2.9       0.3       0.3       0.0       0.1
 1 C  dz2             0.0       0.0       0.1       0.1       0.0       0.0
 1 C  dxz             0.1       0.1       0.0       0.0       0.3       0.0
 1 C  dx2y2           0.0       0.2       0.0       0.0       0.2       0.1
 2 C  pz              5.1       0.7      11.7      11.9       4.6       3.1
 2 C  px             10.9       0.5       0.1       0.8       1.2      13.0
 2 C  py              0.1       2.6       2.9       3.4       0.0       0.0
 2 C  dyz             0.0       0.0       0.1       0.1       0.0       0.2
 3 O  s               2.8       0.7       0.0       0.0       0.0       1.1
 3 O  pz              6.0       1.8       1.2       0.0       0.0      16.3
 3 O  px              0.0       0.0       0.0       0.1      12.6       0.0
 3 O  py              0.0       0.0       0.0       0.3       0.1       0.0
 3 O  dz2             0.0       0.8       0.1       0.0       0.0       0.2
 3 O  dxz             0.0       0.0       0.0       0.2       0.1       0.0
 3 O  dx2y2           0.2       0.1       0.2       0.0       0.0       0.0
 3 O  dxy             1.1       1.1       0.2       0.0       0.0       0.1
 4 C  s               0.1       0.2       0.0       0.0       0.2       0.0
 4 C  pz              0.1       1.0       0.1       0.0       2.3       0.6
 4 C  px              0.9       0.6       0.0       0.0       1.6       3.0
 4 C  py              4.1       2.9       0.2       0.3       0.0       0.1
 4 C  dz2             0.0       0.0       0.1       0.1       0.0       0.0
 4 C  dxz             0.1       0.1       0.0       0.0       0.3       0.0
 4 C  dx2y2           0.0       0.2       0.0       0.0       0.2       0.1
 5 C  pz              6.6       0.4      10.3       9.1       6.3       4.3
 5 C  px              0.4      21.2       1.3       0.1       7.7       0.0
 5 C  py              1.7       1.2       2.6       3.8       0.0       0.4
 5 C  dxz             0.0       0.1       0.0       0.0       0.1       0.0
 5 C  dx2y2           0.0       0.1       0.0       0.0       0.2       0.0
 6 C  pz              5.1       0.7      11.5      12.2       4.6       3.2
 6 C  px             10.9       0.5       0.1       0.8       1.3      13.0
 6 C  py              0.1       2.6       2.8       3.4       0.0       0.0
 6 C  dyz             0.0       0.0       0.1       0.1       0.0       0.2
 7 H  s               4.3       0.3       5.6       5.7       2.1       1.1
 7 H  px              0.0       0.1       0.0       0.0       0.1       0.0
 8 H  s               0.3       8.8       3.8       2.0       8.4       0.8
 8 H  px              0.0       0.1       0.1       0.1       0.1       0.0
 9 H  s               0.1       3.5       0.0       0.4       1.4       0.6
 9 H  py              0.0       0.1       0.0       0.0       0.1       0.0
10 H  s               0.0       0.1       0.0       0.0       1.6       0.4
11 H  s               0.4       0.4       0.3       0.1       0.1       7.1
12 H  s               0.7       1.2       6.6       6.7       1.7       2.5
13 H  s               8.1       0.5       2.5       3.9       2.6       2.6
13 H  pz              0.0       0.0       0.0       0.0       0.0       0.1
13 H  px              0.1       0.0       0.1       0.1       0.0       0.0
14 H  s               0.1       0.1       0.0       0.0       1.6       0.4
15 H  s               0.3       8.9       3.7       2.0       8.3       0.9
15 H  px              0.0       0.1       0.1       0.1       0.1       0.0
16 H  s               0.1       3.5       0.0       0.4       1.4       0.6
16 H  py              0.0       0.1       0.0       0.0       0.1       0.0
17 H  s               4.3       0.3       5.5       5.9       2.1       1.2
17 H  px              0.0       0.1       0.0       0.0       0.1       0.0
18 H  s               8.1       0.6       2.4       3.9       2.6       2.6
18 H  pz              0.0       0.0       0.0       0.0       0.0       0.1
18 H  px              0.1       0.0       0.1       0.1       0.0       0.0
19 H  s               0.4       0.4       0.3       0.1       0.1       7.1
20 H  s               0.7       1.2       6.5       6.9       1.7       2.5

                     24        25        26        27        28        29   
                  -0.32344  -0.30974  -0.30343  -0.26676  -0.21212   0.07900
                   2.00000   2.00000   2.00000   2.00000   2.00000   0.00000
                  --------  --------  --------  --------  --------  --------
 0 C  s               0.0       0.0       0.6       0.6       0.2       3.6
 0 C  pz              0.0       0.1       5.7       2.0       0.2       0.8
 0 C  px              1.8       0.3       7.8       1.3       0.7       0.6
 0 C  py             11.1      10.8       1.1       0.6       0.4       1.1
 0 C  dz2             0.1       0.1       0.0       0.0       0.0       0.3
 0 C  dxz             0.0       0.1       0.0       0.0       0.0       0.3
 0 C  dyz             0.1       0.1       0.1       0.0       0.0       0.0
 0 C  dx2y2           0.1       0.1       0.0       0.0       0.0       0.0
 1 C  s               0.0       0.1       0.0       0.7       0.0       3.5
 1 C  pz              0.1       0.1       5.6       8.0       0.1       5.2
 1 C  px              0.0       0.3       8.7       0.3       0.0       3.3
 1 C  py              4.0      10.6       0.3       0.1       2.9       1.2
 1 C  dz2             0.0       0.1       0.1       0.4       0.1       0.1
 1 C  dxz             0.1       0.1       0.1       0.0       0.1       0.4
 1 C  dyz             0.0       0.1       0.3       0.2       0.4       0.1
 1 C  dx2y2           0.0       0.1       0.0       0.2       0.0       0.1
 1 C  dxy             0.0       0.1       0.1       0.1       0.9       0.0
 2 C  s               0.1       0.5       0.0       0.1       0.9       7.3
 2 C  pz              0.1       0.2       1.9       1.9       0.8       0.9
 2 C  px              2.9       0.5       2.1       0.1       1.1       0.1
 2 C  py              6.7      11.1       0.0       0.2       4.7       1.5
 2 C  dxz             0.2       0.0       0.0       0.0       0.0       0.0
 2 C  dyz             0.0       0.0       0.2       0.2       0.0       0.0
 2 C  dx2y2           0.0       0.0       0.0       0.0       0.0       0.6
 2 C  dxy             0.1       0.1       0.1       0.0       0.0       0.1
 3 O  s               0.0       0.0       0.0       3.1       0.0       3.2
 3 O  pz              0.0       0.1       0.0      40.4       0.0       0.9
 3 O  px              0.6       0.0       3.0       0.0       0.8       0.0
 3 O  py              7.7       0.0       0.0       0.0      63.3       0.0
 3 O  dz2             0.0       0.1       0.0       1.4       0.0       0.1
 3 O  dxz             0.0       0.0       0.4       0.0       0.1       0.0
 3 O  dyz             0.2       0.0       0.4       0.0       0.8       0.0
 3 O  dx2y2           0.0       0.0       0.0       0.7       0.0       1.1
 3 O  dxy             0.0       1.1       0.0       0.2       0.0       0.3
 4 C  s               0.0       0.1       0.0       0.7       0.0       3.5
 4 C  pz              0.1       0.1       5.6       8.0       0.1       5.2
 4 C  px              0.0       0.3       8.7       0.3       0.0       3.3
 4 C  py              4.0      10.7       0.3       0.1       2.9       1.2
 4 C  dz2             0.0       0.1       0.1       0.4       0.1       0.1
 4 C  dxz             0.1       0.1       0.1       0.0       0.1       0.4
 4 C  dyz             0.0       0.1       0.3       0.2       0.4       0.1
 4 C  dx2y2           0.0       0.1       0.0       0.2       0.0       0.1
 4 C  dxy             0.0       0.1       0.1       0.1       0.9       0.0
 5 C  s               0.0       0.0       0.6       0.6       0.2       3.6
 5 C  pz              0.0       0.1       5.7       2.0       0.2       0.8
 5 C  px              1.8       0.3       7.8       1.3       0.8       0.6
 5 C  py             11.0      10.8       1.1       0.6       0.4       1.1
 5 C  dz2             0.1       0.1       0.0       0.0       0.0       0.3
 5 C  dxz             0.0       0.1       0.0       0.0       0.0       0.3
 5 C  dyz             0.1       0.1       0.1       0.0       0.0       0.0
 5 C  dx2y2           0.1       0.1       0.0       0.0       0.0       0.0
 6 C  s               0.1       0.5       0.0       0.1       0.9       7.3
 6 C  pz              0.1       0.2       1.9       1.9       0.8       0.9
 6 C  px              2.9       0.5       2.1       0.1       1.1       0.1
 6 C  py              6.7      11.1       0.0       0.2       4.7       1.5
 6 C  dxz             0.2       0.0       0.0       0.0       0.0       0.0
 6 C  dyz             0.0       0.0       0.2       0.2       0.0       0.0
 6 C  dx2y2           0.0       0.0       0.0       0.0       0.0       0.6
 6 C  dxy             0.1       0.1       0.1       0.0       0.0       0.1
 7 H  s               2.3       2.1       2.0       0.7       0.2       0.3
 7 H  py              0.0       0.0       0.1       0.0       0.0       0.2
 8 H  s               0.4       0.0       0.8       0.0       0.3       1.5
 8 H  pz              0.0       0.0       0.1       0.0       0.0       0.2
 8 H  px              0.0       0.0       0.0       0.0       0.0       0.3
 9 H  s               7.5       6.5       0.0       0.0       0.1       1.3
 9 H  px              0.0       0.0       0.1       0.0       0.0       0.3
 9 H  py              0.1       0.0       0.0       0.0       0.0       0.1
10 H  s               1.1       2.2       4.9       6.5       2.2       2.5
10 H  pz              0.0       0.1       0.0       0.0       0.0       0.8
10 H  px              0.0       0.0       0.0       0.0       0.0       0.6
10 H  py              0.0       0.0       0.1       0.0       0.0       0.4
11 H  s               3.8       1.3       2.7       0.7       0.0       2.1
11 H  pz              0.0       0.0       0.0       0.0       0.0       0.2
11 H  px              0.0       0.0       0.0       0.0       0.0       1.0
12 H  s               0.4       0.9       1.9       1.5       0.0       0.4
12 H  pz              0.0       0.0       0.0       0.0       0.0       0.3
13 H  s               2.1       0.0       0.2       0.4       0.7       2.4
13 H  px              0.0       0.0       0.0       0.0       0.0       0.7
13 H  py              0.0       0.1       0.0       0.0       0.1       0.1
14 H  s               1.1       2.2       4.9       6.5       2.2       2.5
14 H  pz              0.0       0.1       0.0       0.0       0.0       0.8
14 H  px              0.0       0.0       0.0       0.0       0.0       0.6
14 H  py              0.0       0.0       0.1       0.0       0.0       0.4
15 H  s               0.4       0.0       0.8       0.0       0.3       1.5
15 H  pz              0.0       0.0       0.1       0.0       0.0       0.2
15 H  px              0.0       0.0       0.0       0.0       0.0       0.3
16 H  s               7.5       6.6       0.0       0.0       0.1       1.3
16 H  px              0.0       0.0       0.1       0.0       0.0       0.3
16 H  py              0.1       0.0       0.0       0.0       0.0       0.1
17 H  s               2.3       2.0       2.0       0.7       0.2       0.3
17 H  py              0.0       0.0       0.1       0.0       0.0       0.2
18 H  s               2.1       0.0       0.2       0.4       0.7       2.4
18 H  px              0.0       0.0       0.0       0.0       0.0       0.7
18 H  py              0.0       0.1       0.0       0.0       0.1       0.1
19 H  s               3.8       1.3       2.7       0.7       0.0       2.1
19 H  pz              0.0       0.0       0.0       0.0       0.0       0.2
19 H  px              0.0       0.0       0.0       0.0       0.0       1.0
20 H  s               0.4       0.9       1.9       1.5       0.0       0.4
20 H  pz              0.0       0.0       0.0       0.0       0.0       0.3

                     30        31        32        33        34        35   
                   0.10791   0.11583   0.11879   0.12562   0.13999   0.14513
                   0.00000   0.00000   0.00000   0.00000   0.00000   0.00000
                  --------  --------  --------  --------  --------  --------
 0 C  s               2.8      13.1       0.2       8.7       2.0       4.7
 0 C  pz              0.6       0.9       0.6       1.5       2.4       5.7
 0 C  px              0.2       1.2       1.3       1.4       3.8       4.7
 0 C  py              0.4       0.7       2.3       1.6       3.2       6.5
 0 C  dz2             0.3       0.0       0.0       0.0       0.0       0.0
 0 C  dxz             0.1       0.1       0.0       0.1       0.1       0.3
 0 C  dyz             0.0       0.1       0.1       0.1       0.4       0.6
 0 C  dx2y2           0.5       0.0       0.0       0.2       0.0       0.1
 0 C  dxy             0.4       0.1       0.0       0.0       0.3       0.1
 1 C  s               1.4       3.7       0.7       1.6       5.5       2.6
 1 C  pz              1.9       1.1       1.4       7.1       0.3       0.9
 1 C  px             10.2       1.1       1.7       0.8       1.1       3.0
 1 C  py              2.8       1.6       4.5       3.1       1.0       0.4
 1 C  dz2             0.5       0.0       0.0       0.1       0.2       0.0
 1 C  dxz             1.1       0.1       0.1       0.0       0.0       0.0
 1 C  dyz             0.1       0.1       0.0       0.0       0.2       0.4
 1 C  dx2y2           0.7       0.0       0.2       0.6       0.1       0.1
 1 C  dxy             0.0       0.0       0.0       0.2       0.0       0.1
 2 C  s               1.0       0.8      16.0       1.4       4.3       0.3
 2 C  pz              0.9       0.0       0.5       6.0       2.6       0.4
 2 C  px              0.4       3.6       0.1       0.7       2.9       2.8
 2 C  py              1.0       4.1       5.4       0.1      11.0       2.3
 2 C  dz2             0.0       0.1       0.0       0.1       0.1       0.1
 2 C  dxz             0.2       0.1       0.1       0.2       0.0       0.1
 2 C  dyz             0.0       0.0       0.1       0.0       0.4       0.9
 2 C  dx2y2           0.1       0.1       0.0       0.1       0.5       0.3
 2 C  dxy             0.5       0.1       0.0       0.0       0.2       0.0
 3 O  s               7.2       0.0       0.0       2.6       0.7       0.0
 3 O  pz              7.4       0.0       0.0       0.4       0.1       0.0
 3 O  px              0.0       0.6       0.3       0.0       0.0       0.2
 3 O  py              0.0       0.0       0.6       0.0       0.0       0.6
 3 O  dz2             0.6       0.0       0.0       0.0       0.1       0.0
[...]
 1 C  dxy             0.0       0.3       0.1       0.0       0.0       0.0
 2 C  s               0.4       0.1       0.0      34.0       4.3      45.3
 2 C  pz              0.1       0.0       0.0       0.0       0.0       0.0
 2 C  px              0.9       0.1       0.0       0.0       0.0       0.0
 2 C  py              1.1       0.1       0.0       0.0       0.0       0.0
 2 C  dz2             1.4       0.0       0.0       0.0       0.0       0.0
 2 C  dyz             3.0       0.0       0.0       0.0       0.0       0.0
 2 C  dx2y2           0.5       0.3       0.2       0.0       0.0       0.0
 3 O  s               0.1      38.4       0.0       0.0       0.0       0.0
 3 O  pz              0.2       8.9       0.0       0.0       0.0       0.0
 3 O  px              0.0       0.0      36.3       0.0       0.0       0.0
 3 O  py              0.0       0.0       0.3       0.0       0.0       0.0
 3 O  dz2             0.0       0.6       0.0       0.0       0.0       0.0
 3 O  dxz             0.0       0.0      29.6       0.0       0.0       0.0
 3 O  dyz             0.0       0.0       0.2       0.0       0.0       0.0
 3 O  dx2y2           1.2      21.5       0.0       0.0       0.0       0.0
 3 O  dxy             0.3       1.9       0.0       0.0       0.0       0.0
 4 C  s               0.5       0.8       0.7       0.1       1.3       0.1
 4 C  pz              2.2       1.6       1.6       0.0       0.0       0.0
 4 C  px              2.0       2.8       4.1       0.0       0.0       0.0
 4 C  py              1.5       0.0       0.2       0.0       0.0       0.0
 4 C  dz2             2.8       0.1       0.2       0.0       0.0       0.0
 4 C  dxz             0.0       3.3       4.9       0.0       0.0       0.0
 4 C  dyz             7.1       0.0       0.0       0.0       0.0       0.0
 4 C  dx2y2           0.0       2.8       2.6       0.0       0.0       0.0
 4 C  dxy             0.0       0.3       0.2       0.0       0.0       0.0
 5 C  s               0.3       0.0       0.0      15.8      44.2       4.4
 5 C  pz              0.8       0.0       0.1       0.0       0.0       0.0
 5 C  px              0.4       0.0       0.1       0.0       0.0       0.0
 5 C  dz2             0.8       0.1       0.0       0.0       0.0       0.0
 5 C  dxz             0.0       0.1       0.2       0.0       0.0       0.0
 5 C  dyz             2.6       0.0       0.1       0.0       0.0       0.0
 5 C  dx2y2           0.0       0.2       0.1       0.0       0.0       0.0
 5 C  dxy             0.2       0.0       0.0       0.0       0.0       0.0
 6 C  s               0.4       0.1       0.0      33.9       4.3      45.7
 6 C  pz              0.1       0.0       0.0       0.0       0.0       0.0
 6 C  px              0.9       0.1       0.0       0.0       0.0       0.0
 6 C  py              1.1       0.1       0.0       0.0       0.0       0.0
 6 C  dz2             1.4       0.0       0.0       0.0       0.0       0.0
 6 C  dyz             3.0       0.0       0.0       0.0       0.0       0.0
 6 C  dx2y2           0.5       0.3       0.2       0.0       0.0       0.0
 7 H  s               0.9       0.0       0.0       0.0       0.0       0.0
 7 H  pz              1.6       0.0       0.0       0.0       0.0       0.0
 7 H  py              0.5       0.0       0.0       0.0       0.0       0.0
 9 H  py              0.1       0.0       0.0       0.0       0.0       0.0
10 H  s               3.4       0.3       0.3       0.0       0.0       0.0
10 H  pz              6.4       0.2       0.1       0.0       0.0       0.0
10 H  px              0.5       0.2       0.3       0.0       0.0       0.0
10 H  py              2.4       0.1       0.2       0.0       0.0       0.0
11 H  s               0.2       0.0       0.0       0.0       0.0       0.0
11 H  pz              0.1       0.0       0.0       0.0       0.0       0.0
12 H  s               0.8       0.0       0.0       0.0       0.0       0.0
12 H  pz              1.6       0.0       0.0       0.0       0.0       0.0
12 H  py              0.7       0.0       0.0       0.0       0.0       0.0
13 H  s               0.2       0.1       0.0       0.0       0.0       0.0
13 H  px              0.4       0.1       0.0       0.0       0.0       0.0
13 H  py              0.1       0.0       0.0       0.0       0.0       0.0
14 H  s               3.5       0.3       0.3       0.0       0.0       0.0
14 H  pz              6.5       0.2       0.1       0.0       0.0       0.0
14 H  px              0.5       0.2       0.3       0.0       0.0       0.0
14 H  py              2.4       0.1       0.2       0.0       0.0       0.0
16 H  py              0.1       0.0       0.0       0.0       0.0       0.0
17 H  s               0.9       0.0       0.0       0.0       0.0       0.0
17 H  pz              1.6       0.0       0.0       0.0       0.0       0.0
17 H  py              0.6       0.0       0.0       0.0       0.0       0.0
18 H  s               0.2       0.1       0.0       0.0       0.0       0.0
18 H  px              0.4       0.1       0.0       0.0       0.0       0.0
18 H  py              0.1       0.0       0.0       0.0       0.0       0.0
19 H  s               0.2       0.0       0.0       0.0       0.0       0.0
19 H  pz              0.1       0.0       0.0       0.0       0.0       0.0
20 H  s               0.9       0.0       0.0       0.0       0.0       0.0
20 H  pz              1.6       0.0       0.0       0.0       0.0       0.0
20 H  py              0.7       0.0       0.0       0.0       0.0       0.0

                    204       205       206       207   
                  22.02593  22.08986  22.11624  43.86660
                   0.00000   0.00000   0.00000   0.00000
                  --------  --------  --------  --------
 0 C  s              33.5       1.3       0.6       0.0
 1 C  s               0.5      48.8      48.9       0.0
 2 C  s              16.1       0.0       0.1       0.0
 3 O  s               0.0       0.0       0.1      99.9
 4 C  s               0.6      48.3      49.4       0.0
 5 C  s              33.4       1.3       0.6       0.0
 6 C  s              15.6       0.0       0.1       0.0


                      *****************************
                      * MAYER POPULATION ANALYSIS *
                      *****************************

  NA   - Mulliken gross atomic population
  ZA   - Total nuclear charge
  QA   - Mulliken gross atomic charge
  VA   - Mayer's total valence
  BVA  - Mayer's bonded valence
  FA   - Mayer's free valence

  ATOM       NA         ZA         QA         VA         BVA        FA
  0 C      6.4577     6.0000    -0.4577     3.8524     3.8524    -0.0000
  1 C      5.9964     6.0000     0.0036     3.5570     3.5570     0.0000
  2 C      6.4541     6.0000    -0.4541     3.8160     3.8160     0.0000
  3 O      8.2051     8.0000    -0.2051     1.5365     1.5365     0.0000
  4 C      5.9960     6.0000     0.0040     3.5567     3.5567     0.0000
  5 C      6.4577     6.0000    -0.4577     3.8524     3.8524     0.0000
  6 C      6.4543     6.0000    -0.4543     3.8165     3.8165     0.0000
  7 H      0.8463     1.0000     0.1537     0.9640     0.9640     0.0000
  8 H      0.8622     1.0000     0.1378     0.9666     0.9666     0.0000
  9 H      0.8472     1.0000     0.1528     0.9624     0.9624    -0.0000
 10 H      0.8719     1.0000     0.1281     0.9576     0.9576     0.0000
 11 H      0.8620     1.0000     0.1380     0.9663     0.9663     0.0000
 12 H      0.8432     1.0000     0.1568     0.9636     0.9636     0.0000
 13 H      0.8564     1.0000     0.1436     0.9665     0.9665     0.0000
 14 H      0.8720     1.0000     0.1280     0.9576     0.9576     0.0000
 15 H      0.8622     1.0000     0.1378     0.9666     0.9666     0.0000
 16 H      0.8473     1.0000     0.1527     0.9624     0.9624    -0.0000
 17 H      0.8462     1.0000     0.1538     0.9640     0.9640    -0.0000
 18 H      0.8564     1.0000     0.1436     0.9664     0.9664     0.0000
 19 H      0.8620     1.0000     0.1380     0.9663     0.9663     0.0000
 20 H      0.8433     1.0000     0.1567     0.9636     0.9636     0.0000

  Mayer bond orders larger than 0.100000
B(  0-C ,  1-C ) :   0.9473 B(  0-C ,  7-H ) :   0.9793 B(  0-C ,  8-H ) :   0.9738 
B(  0-C ,  9-H ) :   0.9731 B(  1-C ,  2-C ) :   0.9423 B(  1-C ,  3-O ) :   0.7804 
B(  1-C , 10-H ) :   0.9442 B(  2-C , 11-H ) :   0.9652 B(  2-C , 12-H ) :   0.9812 
B(  2-C , 13-H ) :   0.9733 B(  3-O ,  4-C ) :   0.7800 B(  4-C ,  5-C ) :   0.9473 
B(  4-C ,  6-C ) :   0.9425 B(  4-C , 14-H ) :   0.9442 B(  5-C , 15-H ) :   0.9738 
B(  5-C , 16-H ) :   0.9731 B(  5-C , 17-H ) :   0.9793 B(  6-C , 18-H ) :   0.9733 
B(  6-C , 19-H ) :   0.9653 B(  6-C , 20-H ) :   0.9812 

-------
TIMINGS
-------

Total SCF time: 0 days 0 hours 0 min 21 sec 

Total time                  ....      21.147 sec
Sum of individual times     ....      20.651 sec  ( 97.7%)

SCF preparation             ....       0.173 sec  (  0.8%)
Fock matrix formation       ....      19.487 sec  ( 92.2%)
  Startup                   ....       0.069 sec  (  0.4% of F)
  Split-RI-J                ....       3.311 sec  ( 17.0% of F)
  XC integration            ....      15.546 sec  ( 79.8% of F)
    Basis function eval.    ....       2.617 sec  ( 16.8% of XC)
    Density eval.           ....       5.346 sec  ( 34.4% of XC)
    XC-Functional eval.     ....       1.979 sec  ( 12.7% of XC)
    XC-Potential eval.      ....       4.644 sec  ( 29.9% of XC)
Diagonalization             ....       0.000 sec  (  0.0%)
Density matrix formation    ....       0.259 sec  (  1.2%)
Total Energy calculation    ....       0.047 sec  (  0.2%)
Population analysis         ....       0.115 sec  (  0.5%)
Orbital Transformation      ....       0.057 sec  (  0.3%)
Orbital Orthonormalization  ....       0.000 sec  (  0.0%)
DIIS solution               ....       0.467 sec  (  2.2%)
  MO trafo                  ....       0.000 sec  (  0.0 % of DIIS)
  Orb grad                  ....       0.000 sec  (  0.0 % of DIIS)
  Energy W gradient         ....       0.000 sec  (  0.0 % of DIIS)
  DIIS error                ....       0.010 sec  (  2.2 % of DIIS)
  DIIS work                 ....       0.401 sec  ( 86.1 % of DIIS)
  Form Q                    ....       0.000 sec  (  0.0 % of DIIS)
  Form QpQm                 ....       0.000 sec  (  0.0 % of DIIS)
  Exp/Cayley                ....       0.000 sec  (  0.0 % of DIIS)
  Orb update                ....       0.000 sec  (  0.0 % of DIIS)
  Wake-sleep                ....       0.030 sec  (  6.3 % of DIIS)
SOSCF solution              ....       0.048 sec  (  0.2%)
  MO trafo                  ....       0.038 sec  ( 79.9 % of SOSCF)
  Orb grad                  ....       0.001 sec  (  1.4 % of SOSCF)
  Rot update                ....       0.000 sec  (  0.1 % of SOSCF)
  Step                      ....       0.009 sec  ( 18.5 % of SOSCF)
Finished LeanSCF after  21.2 sec

Maximum memory used throughout the entire LEANSCF-calculation: 23.2 MB


-------------------------------------------------------------------------------
                          DFT DISPERSION CORRECTION                            
                                                                               
                                DFTD4 V3.4.0                                   
-------------------------------------------------------------------------------
The R2SCAN3C composite method is recognized
Using three-body term ABC
Active option DFTDOPT                   ...         5   

-------------------------   ----------------
Dispersion correction           -0.005336068
-------------------------   ----------------

------------------   -----------------
gCP correction             0.012088119
------------------   -----------------

-------------------------   --------------------
FINAL SINGLE POINT ENERGY      -312.195908360085
-------------------------   --------------------


------------------------------------------------------------------------------
                              ORCA PROPERTY CALCULATIONS
------------------------------------------------------------------------------

GBWName                                 ... sp_gas.gbw
Number of atoms                         ...     21
Number of basis functions               ...    208
Max core memory                         ...   1024 MB

Electric properties:
Dipole moment                           ... YES
Quadrupole moment                       ...  NO
Static polarizability (Dipole/Dipole)   ...  NO
Static polarizability (Dipole/Quad.)    ...  NO
Static polarizability (Quad./Quad.)     ...  NO
Static polarizability (Velocity)        ...  NO

Atomic electric properties:
Dipole moment                           ...  NO
Quadrupole moment                       ...  NO
Static polarizability                   ...  NO

Choice of electric origin               ... Center of mass
Position of electric origin             ...    -0.000000     0.000000     0.000007

General magnetic properties:
Magnetizability                         ...  NO

EPR properties:
g-Tensor (aka g-matrix)                 ...  NO
Zero-Field splitting spin-orbit         ...  NO
Zero-field splitting spin-spin          ...  NO
Hyperfine couplings                     ...  NO (   0 nuclei)
Quadrupole couplings                    ...  NO (   0 nuclei)
Contact density                         ...  NO (   0 nuclei)

NMR properties:
Chemical shifts                         ...  NO (   0 nuclei)
Spin-rotation constants                 ...  NO (   0 nuclei)
Spin-spin couplings                     ...  NO (   0 nuclei,    0 pairs)

Choice of magnetic origin               ... GIAO
Position of magnetic origin             ...     0.000000     0.000000     0.000000

Properties with geometric perturbations:
SCF Hessian                             ...  NO
IR spectrum                             ...  NO
VCD spectrum                            ...  NO
X-ray spectroscopy properties:
SCF XES/XAS/RIXS spectra                ...  NO


-------------
DIPOLE MOMENT
-------------

Method             : SCF
Type of density    : Electron Density
Multiplicity       :   1
Irrep              :   0
Energy             :  -312.2026604112099903 Eh
Relativity type    : 
Basis              : AO
                                X                 Y                 Z
Electronic contribution:      0.000637011      -0.004673147      -1.101824894
Nuclear contribution   :     -0.000475270       0.005300213       1.558899841
                        -----------------------------------------
Total Dipole Moment    :      0.000161741       0.000627066       0.457074947
                        -----------------------------------------
Magnitude (a.u.)       :      0.457075405
Magnitude (Debye)      :      1.161793351



--------------------
Rotational spectrum 
--------------------
 
Rotational constants in cm-1:             0.137368             0.051318             0.045255 
Rotational constants in MHz :          4118.200688          1538.488908          1356.715550 

Dipole components along the rotational axes: 
x,y,z [a.u.] :     0.000162     0.000627     0.457075 
x,y,z [Debye]:     0.000411     0.001594     1.161792 

 

Dipole moment calculation done in   0.0 sec 

Maximum memory used throughout the entire PROP-calculation: 12.9 MB

--------------------------------
SUGGESTED CITATIONS FOR THIS RUN
--------------------------------

Below you find a list of papers that are relevant to this ORCA run
We neither can nor want to force you to cite these papers, but we appreciate if you do
You receive ORCA, which is the product of decades of hard work by many enthusiastic individuals, for free
The only thing we kindly ask in return is that you cite our papers,
We deeply appreciate it, if you show your appreciation for ORCA by not just citing the generic ORCA reference.

Please note that relegating all ORCA citations to the supporting information does *not* help us.
SI sections are not indexed - citations you put there will not count into any citation statistics
But we need these citations in order to attract the funding resources that allow us to do what we are doing

Therefore, if you are a happy ORCA user, please consider citing a few of the papers listed below in the main body of your paper

In addition to the list printed below, the program has created the file sp_gas.bibtex that contains the list in bibtex format
You can import this file easily into all common literature databanks and citation aid programs


List of essential papers. We consider these as the minimum necessary citations

  1. Neese,F.
     Software update: the ORCA program system, version 5.0
     WIRES Comput. Molec. Sci., 2022 12(1)e1606
     doi.org/10.1002/wcms.1606
  2. Grimme,S.; Hansen,A.; Ehlert,S.; Mewes,J.
     r2SCAN-3c: A 'Swiss army knife' composite electronic-structure method
     J. Chem. Phys., 2021 154 064103
     doi.org/10.1063/5.0040021

List of papers to cite with high priority. The work reported in these papers was absolutely
necessary for this run to complete.
Our perspective: the developers of density functionals and basis sets usually get cited in chemistry papers
Good! But without the algorithms to do something with them, the functionals or basis sets would not do anything.
Hence, in our opinion, the algorithm design and method developments papers are equally worthy of getting cited

  1. Neese,F.
     An improvement of the resolution of the identity approximation for the formation of the Coulomb matrix
     J. Comp. Chem., 2003 24(14)1740-1747
     doi.org/10.1002/jcc.10318
  2. Neese,F.
     The SHARK Integral Generation and Digestion System
     J. Comp. Chem., 2022  1-16
     doi.org/10.1002/jcc.26942
  3. Lehtola,S.; Steigemann,C.; Oliveira,M.; Marques,M.
     Recent developments in Libxc - A comprehensive library of functionals for density functional theory
     Software X, 2018 7 
     doi.org/10.1016/j.softx.2017.11.002
  4. Caldeweyher,E.; Bannwarth,C.; Grimme,S.
     Extension of the D3 dispersion coefficient model
     J. Chem. Phys., 2017 147 034112-XXXX
     doi.org/10.1063/1.4993215
  5. Caldeweyher,E.; Ehlert,S.; Hansen,A.; Neugebauer,H.; Spicher,S.; Bannwarth,C.; Grimme,S.
     A generally applicable atomic-charge dependent London dispersion correction
     J. Chem. Phys., 2019 150 154122-XXXX
     doi.org/10.1063/1.5090222
  6. Caldeweyher,E.; Mewes,J.; Ehlert,S.; Grimme,S.
     Extension and evaluation of the D4 London-dispersion model for periodic systems
     Phys. Chem. Chem. Phys., 2020 22(16)8499-8512
     doi.org/10.1039/D0CP00502A

List of suggested additional citations. These are papers that are important in the 'surrounding' of 
of this run, or papers that preceded the highly important papers. If you like your results we are grateful for a citation.

  1. Neese,F.
     The ORCA program system
     WIRES Comput. Molec. Sci., 2012 2(1)73-78
     doi.org/10.1002/wcms.81
  2. Neese,F.
     Software update: the ORCA program system, version 4.0
     WIRES Comput. Molec. Sci., 2018 8(1)1-6
     doi.org/10.1002/wcms.1327
  3. Neese,F.; Wennmohs,F.; Becker,U.; Riplinger,C.
     The ORCA quantum chemistry program package
     J. Chem. Phys., 2020 152 Art. No. L224108
     doi.org/10.1063/5.0004608

List of optional additional citations

  1. Neese,F.
     Approximate second-order SCF convergence for spin unrestricted wavefunctions
     Chem. Phys. Lett., 2000 325(1-3)93-98
     doi.org/10.1016/s0009-2614(00)00662-x

Timings for individual modules:

Sum of individual times          ...       22.737 sec (=   0.379 min)
Startup calculation              ...        1.150 sec (=   0.019 min)   5.1 %
SCF iterations                   ...       21.497 sec (=   0.358 min)  94.5 %
Property calculations            ...        0.089 sec (=   0.001 min)   0.4 %
                             ****ORCA TERMINATED NORMALLY****
TOTAL RUN TIME: 0 days 0 hours 0 minutes 23 seconds 382 msec
