
                                 *****************
                                 * O   R   C   A *
                                 *****************

                                            #,                                       
                                            ###                                      
                                            ####                                     
                                            #####                                    
                                            ######                                   
                                           ########,                                 
                                     ,,################,,,,,                         
                               ,,#################################,,                 
                          ,,##########################################,,             
                       ,#########################################, ''#####,          
                    ,#############################################,,   '####,        
                  ,##################################################,,,,####,       
                ,###########''''           ''''###############################       
              ,#####''   ,,,,##########,,,,          '''####'''          '####       
            ,##' ,,,,###########################,,,                        '##       
           ' ,,###''''                  '''############,,,                           
         ,,##''                                '''############,,,,        ,,,,,,###''
      ,#''                                            '''#######################'''  
     '                                                          ''''####''''         
             ,#######,   #######,   ,#######,      ##                                
            ,#'     '#,  ##    ##  ,#'     '#,    #''#        ,####,   ,####,        
            ##       ##  ##   ,#'  ##            #'  '#       #'       #'  '#        
            ##       ##  #######   ##           ,######,      #####,   #    #        
            '#,     ,#'  ##    ##  '#,     ,#' ,#      #,     #,   #   #,  ,#        
             '#######'   ##     ##  '#######'  #'      '#     '####' # '####'        



                #########################################################
                #                        -***-                          #
                #          Department of theory and spectroscopy        #
                #                                                       #
                #                      Frank Neese                      #
                #                                                       #
                #     Directorship, Architecture, Infrastructure        #
                #                    SHARK, DRIVERS                     #
                #        Core code/Algorithms in most modules           #
                #                                                       #
                #        Max Planck Institute fuer Kohlenforschung      #
                #                Kaiser Wilhelm Platz 1                 #
                #                 D-45470 Muelheim/Ruhr                 #
                #                      Germany                          #
                #                                                       #
                #                  All rights reserved                  #
                #                        -***-                          #
                #########################################################


                         Program Version 6.0.0  -   RELEASE  -


 With contributions from (in alphabetic order):
   Daniel Aravena         : Magnetic Suceptibility
   Michael Atanasov       : Ab Initio Ligand Field Theory (pilot matlab implementation)
   Alexander A. Auer      : GIAO ZORA, VPT2 properties, NMR spectrum
   Ute Becker             : All parallelization in ORCA, NUMFREQ, NUMCALC
   Giovanni Bistoni       : ED, misc. LED, open-shell LED, HFLD
   Martin Brehm           : Molecular dynamics
   Dmytro Bykov           : pre 5.0 version of the SCF Hessian
   Marcos Casanova-Páez   : Triplet and SCS-CIS(D). UHF-(DLPNO)-IP/EA/STEOM-CCSD. UHF-CVS-IP/STEOM-CCSD
   Vijay G. Chilkuri      : MRCI spin determinant printing, contributions to CSF-ICE
   Pauline Colinet        : FMM embedding
   Dipayan Datta          : RHF DLPNO-CCSD density
   Achintya Kumar Dutta   : EOM-CC, STEOM-CC
   Nicolas Foglia         : Exact transition moments, OPA infrastructure, MCD improvements
   Dmitry Ganyushin       : Spin-Orbit,Spin-Spin,Magnetic field MRCI
   Miquel Garcia          : C-PCM and meta-GGA Hessian, CCSD/C-PCM, Gaussian charge scheme
   Tiago L. C. Gouveia    : GS-ROHF, GS-ROCIS
   Yang Guo               : DLPNO-NEVPT2, F12-NEVPT2, CIM, IAO-localization
   Andreas Hansen         : Spin unrestricted coupled pair/coupled cluster methods
   Ingolf Harden          : AUTO-CI MPn and infrastructure 
   Benjamin Helmich-Paris : MC-RPA, TRAH-(SCF,CASSCF), AVAS, COSX integrals, SCF dyn. polar.
   Lee Huntington         : MR-EOM, pCC
   Robert Izsak           : Overlap fitted RIJCOSX, COSX-SCS-MP3, EOM
   Riya Kayal             : Wick's Theorem for AUTO-CI, AUTO-CI UHF-CCSDT
   Emily Kempfer          : AUTO-CI, RHF CISDT and CCSDT
   Christian Kollmar      : KDIIS, OOCD, Brueckner-CCSD(T), CCSD density, CASPT2, CASPT2-K, improved NEVPT2
   Axel Koslowski         : Symmetry handling
   Simone Kossmann        : Meta GGA functionals, TD-DFT gradient, OOMP2, (MP2 Hessian; deprecated post 5.0)
   Lucas Lang             : DCDCAS
   Marvin Lechner         : AUTO-CI (C++ implementation), FIC-MRCC
   Spencer Leger          : CASSCF response
   Dagmar Lenk            : GEPOL surface, SMD, ORCA-2-JSON
   Dimitrios Liakos       : Extrapolation schemes; Compound Job, initial MDCI parallelization
   Dimitrios Manganas     : Further ROCIS development; embedding schemes. LFT, Crystal Embedding
   Dimitrios Pantazis     : SARC Basis sets
   Anastasios Papadopoulos: AUTO-CI, single reference methods and gradients
   Taras Petrenko         : pre 6.0 DFT Hessian and TD-DFT gradient, (ASA, deprecated), ECA, 1-Electron XAS/XES, NRVS
   Peter Pinski           : DLPNO-MP2, DLPNO-MP2 Gradient
   Christoph Reimann      : Effective Core Potentials
   Marius Retegan         : Local ZFS, SOC
   Christoph Riplinger    : Optimizer, TS searches, QM/MM, DLPNO-CCSD(T), (RO)-DLPNO pert. Triples
   Michael Roemelt        : Original ROCIS implementation
   Masaaki Saitow         : Open-shell DLPNO-CCSD energy and density
   Barbara Sandhoefer     : DKH picture change effects
   Kantharuban Sivalingam : CASSCF convergence/infrastructure, NEVPT2 and variants, FIC-MRCI
   Bernardo de Souza      : ESD, SOC TD-DFT
   Georgi Stoychev        : AutoAux, RI-MP2 NMR, DLPNO-MP2 response, X2C
   Van Anh Tran           : RI-MP2 g-tensors
   Willem Van den Heuvel  : Paramagnetic NMR
   Zikuan Wang            : NOTCH, Electric field optimization 
   Frank Wennmohs         : Technical directorship and infrastructure
   Hang Xu                : AUTO-CI-Response properties 


 We gratefully acknowledge several colleagues who have allowed us to
 interface, adapt or use parts of their codes:
   Stefan Grimme, W. Hujo, H. Kruse, P. Pracht,  : VdW corrections, initial TS optimization,
                  C. Bannwarth, S. Ehlert,         DFT functionals, gCP, sTDA/sTD-DF
                  L. Wittmann, M. Mueller
   Ed Valeev, F. Pavosevic, A. Kumar             : LibInt (2-el integral package), F12 methods
   Garnet Chan, S. Sharma, J. Yang, R. Olivares  : DMRG
   Ulf Ekstrom                                   : XCFun DFT Library
   Mihaly Kallay                                 : mrcc  (arbitrary order and MRCC methods)
   Frank Weinhold                                : gennbo (NPA and NBO analysis)
   Simon Mueller                                 : openCOSMO-RS
   Christopher J. Cramer and Donald G. Truhlar   : smd solvation model
   Lars Goerigk                                  : TD-DFT with DH, B97 family of functionals
   V. Asgeirsson, H. Jonsson                     : NEB implementation
   FAccTs GmbH                                   : IRC, NEB, NEB-TS, DLPNO-Multilevel, CI-OPT
                                                   MM, QMMM, 2- and 3-layer-ONIOM, Crystal-QMMM,
                                                   LR-CPCM, SF, NACMEs, symmetry and pop. for TD-DFT,
                                                   nearIR, NL-DFT gradient (VV10), updates on ESD,
                                                   ML-optimized integration grids, MBIS, APM,
                                                   GOAT, DOCKER, SOLVATOR, interface openCOSMO-RS
   S Lehtola, MJT Oliveira, MAL Marques          : LibXC Library
   Liviu Ungur et al                             : ANISO software


 Your calculation uses the libint2 library for the computation of 2-el integrals
 For citations please refer to: http://libint.valeyev.net

 Your ORCA version has been built with support for libXC version: 6.2.2
 For citations please refer to: https://libxc.gitlab.io

 This ORCA versions uses:
   CBLAS   interface :  Fast vector & matrix operations
   LAPACKE interface :  Fast linear algebra routines
   SCALAPACK package :  Parallel linear algebra routines
   Shared memory     :  Shared parallel matrices
   BLAS/LAPACK       :  OpenBLAS 0.3.27  USE64BITINT DYNAMIC_ARCH NO_AFFINITY SkylakeX SINGLE_THREADED
        Core in use  :  SkylakeX
   Copyright (c) 2011-2014, The OpenBLAS Project


Your calculation utilizes the geometrical counterpoise correction gCP
Please cite in your paper:
H.Kruse, S. Grimme J.Chem.Phys., 136, (2012), 154101 
   

Your calculation utilizes the atom-pairwise dispersion correction
based on EEQ partial charges (D4)


================================================================================

----- Orbital basis set information -----
Your calculation utilizes the basis: def2-mTZVPP
   Stefan Grimme, Andreas Hansen, Sebastian Ehlert, and Jan-Michael Mewes 
   J. Chem. Phys. 154, 064103 (2021). DOI: 10.1063/5.0040021

----- AuxJ basis set information -----
Your calculation utilizes the auxiliary basis: def2/J
   F. Weigend, Phys. Chem. Chem. Phys. 8, 1057 (2006).

================================================================================
                                        WARNINGS
                       Please study these warnings very carefully!
================================================================================

Using LibXC functional ID 497 : Re-regularized SCAN exchange by Furness et al
[ 1]  J. W. Furness, A. D. Kaplan, J. Ning, J. P. Perdew, and J. Sun.,  J. Phys. Chem. Lett. 11, 8208-8215 (2020)
[ 2]  J. W. Furness, A. D. Kaplan, J. Ning, J. P. Perdew, and J. Sun.,  J. Phys. Chem. Lett. 11, 9248-9248 (2020)
Using LibXC functional ID 498 : Re-regularized SCAN correlation by Furness et al
[ 1]  J. W. Furness, A. D. Kaplan, J. Ning, J. P. Perdew, and J. Sun.,  J. Phys. Chem. Lett. 11, 8208-8215 (2020)
[ 2]  J. W. Furness, A. D. Kaplan, J. Ning, J. P. Perdew, and J. Sun.,  J. Phys. Chem. Lett. 11, 9248-9248 (2020)
Using LibXC functional ID 497 : Re-regularized SCAN exchange by Furness et al
[ 1]  J. W. Furness, A. D. Kaplan, J. Ning, J. P. Perdew, and J. Sun.,  J. Phys. Chem. Lett. 11, 8208-8215 (2020)
[ 2]  J. W. Furness, A. D. Kaplan, J. Ning, J. P. Perdew, and J. Sun.,  J. Phys. Chem. Lett. 11, 9248-9248 (2020)
Using LibXC functional ID 498 : Re-regularized SCAN correlation by Furness et al
[ 1]  J. W. Furness, A. D. Kaplan, J. Ning, J. P. Perdew, and J. Sun.,  J. Phys. Chem. Lett. 11, 8208-8215 (2020)
[ 2]  J. W. Furness, A. D. Kaplan, J. Ning, J. P. Perdew, and J. Sun.,  J. Phys. Chem. Lett. 11, 9248-9248 (2020)

================================================================================
                                       INPUT FILE
================================================================================
NAME = sp_gas.inp
|  1> ! r2scan-3c def2/J RI DEFGRID2 scfconv6 printgap
|  2> %output
|  3>     printlevel normal
|  4> end
|  5> * xyz 0 1
|  6> C 0.2135749209 -3.3786471429 0.114503284
|  7> C 0.672516362 -1.95628177 0.0679534505
|  8> C 2.0131121849 -1.5886230439 -0.0837466841
|  9> N 2.4041209117 -0.3229591018 -0.1242227393
| 10> C 1.4710106641 0.6314731615 -0.0159550568
| 11> N 0.1548217128 0.3828274339 0.1308146807
| 12> C -0.2114664151 -0.8830862941 0.17149469
| 13> O -1.5502250087 -1.133461553 0.3010359994
| 14> C -2.3182543728 -0.0113152201 0.619148329
| 15> O -2.5786646083 0.2208892161 1.7855184128
| 16> N -2.7568079643 0.6776121889 -0.4256691997
| 17> C -3.5217580203 1.8898008681 -0.2175227227
| 18> C -2.4085204695 0.3801127895 -1.7981211233
| 19> N 1.8558630524 1.911740697 -0.0703665765
| 20> C 3.2379325088 2.2832112211 -0.2523008979
| 21> C 0.9152598504 2.9977596717 0.0586747875
| 22> C 3.0828612687 -2.6230027514 -0.2111435023
| 23> H 0.4034074476 -3.8736806133 -0.8370767236
| 24> H 0.7445795604 -3.9247638406 0.8923061237
| 25> H -0.852139684 -3.412390734 0.3241680898
| 26> H -2.9868077287 2.7357919577 -0.6485701456
| 27> H -3.6486119687 2.0410576974 0.8516018651
| 28> H -4.4978942608 1.7940899459 -0.6920189904
| 29> H -1.5484665559 0.9780987251 -2.1065968254
| 30> H -3.2623130091 0.6180409505 -2.4287894407
| 31> H -2.1653047763 -0.6740880493 -1.9050718441
| 32> H 3.5929696336 2.8380726565 0.6180925578
| 33> H 3.3347445592 2.9129202474 -1.1380258662
| 34> H 3.8276461493 1.3804157757 -0.3748481843
| 35> H 0.8441956074 3.5470618754 -0.8825079095
| 36> H 1.2495209947 3.6792582933 0.8420406486
| 37> H -0.0575066547 2.5923991882 0.3221972753
| 38> H 4.0427775064 -2.1361147067 -0.3466678434
| 39> H 3.1110904103 -3.2396761788 0.6847165769
| 40> H 2.8754044048 -3.2709294213 -1.0595839298
| 41> *
| 42> 
| 43>                          ****END OF INPUT****
================================================================================

                       ****************************
                       * Single Point Calculation *
                       ****************************

---------------------------------
CARTESIAN COORDINATES (ANGSTROEM)
---------------------------------
  C      0.213575   -3.378647    0.114503
  C      0.672516   -1.956282    0.067953
  C      2.013112   -1.588623   -0.083747
  N      2.404121   -0.322959   -0.124223
  C      1.471011    0.631473   -0.015955
  N      0.154822    0.382827    0.130815
  C     -0.211466   -0.883086    0.171495
  O     -1.550225   -1.133462    0.301036
  C     -2.318254   -0.011315    0.619148
  O     -2.578665    0.220889    1.785518
  N     -2.756808    0.677612   -0.425669
  C     -3.521758    1.889801   -0.217523
  C     -2.408520    0.380113   -1.798121
  N      1.855863    1.911741   -0.070367
  C      3.237933    2.283211   -0.252301
  C      0.915260    2.997760    0.058675
  C      3.082861   -2.623003   -0.211144
  H      0.403407   -3.873681   -0.837077
  H      0.744580   -3.924764    0.892306
  H     -0.852140   -3.412391    0.324168
  H     -2.986808    2.735792   -0.648570
  H     -3.648612    2.041058    0.851602
  H     -4.497894    1.794090   -0.692019
  H     -1.548467    0.978099   -2.106597
  H     -3.262313    0.618041   -2.428789
  H     -2.165305   -0.674088   -1.905072
  H      3.592970    2.838073    0.618093
  H      3.334745    2.912920   -1.138026
  H      3.827646    1.380416   -0.374848
  H      0.844196    3.547062   -0.882508
  H      1.249521    3.679258    0.842041
  H     -0.057507    2.592399    0.322197
  H      4.042778   -2.136115   -0.346668
  H      3.111090   -3.239676    0.684717
  H      2.875404   -3.270929   -1.059584

----------------------------
CARTESIAN COORDINATES (A.U.)
----------------------------
  NO LB      ZA    FRAG     MASS         X           Y           Z
   0 C     6.0000    0    12.011    0.403598   -6.384718    0.216380
   1 C     6.0000    0    12.011    1.270872   -3.696837    0.128413
   2 C     6.0000    0    12.011    3.804231   -3.002062   -0.158258
   3 N     7.0000    0    14.007    4.543130   -0.610304   -0.234747
   4 C     6.0000    0    12.011    2.779807    1.193311   -0.030151
   5 N     7.0000    0    14.007    0.292571    0.723439    0.247204
   6 C     6.0000    0    12.011   -0.399614   -1.668791    0.324078
   7 O     8.0000    0    15.999   -2.929501   -2.141932    0.568876
   8 C     6.0000    0    12.011   -4.380866   -0.021383    1.170021
   9 O     8.0000    0    15.999   -4.872970    0.417420    3.374141
  10 N     7.0000    0    14.007   -5.209612    1.280501   -0.804398
  11 C     6.0000    0    12.011   -6.655158    3.571206   -0.411058
  12 C     6.0000    0    12.011   -4.551444    0.718309   -3.397956
  13 N     7.0000    0    14.007    3.507073    3.612666   -0.132974
  14 C     6.0000    0    12.011    6.118806    4.314644   -0.476780
  15 C     6.0000    0    12.011    1.729590    5.664945    0.110879
  16 C     6.0000    0    12.011    5.825764   -4.956757   -0.399003
  17 H     1.0000    0     1.008    0.762330   -7.320195   -1.581846
  18 H     1.0000    0     1.008    1.407051   -7.416729    1.686214
  19 H     1.0000    0     1.008   -1.610311   -6.448484    0.612589
  20 H     1.0000    0     1.008   -5.644249    5.169898   -1.225620
  21 H     1.0000    0     1.008   -6.894877    3.857040    1.609294
  22 H     1.0000    0     1.008   -8.499788    3.390339   -1.307726
  23 H     1.0000    0     1.008   -2.926178    1.848339   -3.980891
  24 H     1.0000    0     1.008   -6.164878    1.167928   -4.589747
  25 H     1.0000    0     1.008   -4.091833   -1.273842   -3.600064
  26 H     1.0000    0     1.008    6.789729    5.363180    1.168026
  27 H     1.0000    0     1.008    6.301754    5.504622   -2.150557
  28 H     1.0000    0     1.008    7.233203    2.608608   -0.708360
  29 H     1.0000    0     1.008    1.595299    6.702976   -1.667698
  30 H     1.0000    0     1.008    2.361252    6.952791    1.591226
  31 H     1.0000    0     1.008   -0.108672    4.898924    0.608865
  32 H     1.0000    0     1.008    7.639742   -4.036672   -0.655107
  33 H     1.0000    0     1.008    5.879109   -6.122101    1.293927
  34 H     1.0000    0     1.008    5.433727   -6.181161   -2.002323

--------------------------------
INTERNAL COORDINATES (ANGSTROEM)
--------------------------------
 C      0   0   0     0.000000000000     0.00000000     0.00000000
 C      1   0   0     1.495298427533     0.00000000     0.00000000
 C      2   1   0     1.398350109984   123.21093564     0.00000000
 N      3   2   1     1.325304248016   122.49679288   179.94703195
 C      4   3   2     1.339163011167   118.20262456   359.93918346
 N      5   4   3     1.347486329884   123.91037198   359.93577416
 C      6   5   4     1.318468589894   116.86511519     0.20798682
 O      7   6   5     1.368116695698   116.77484960   180.92056889
 C      8   7   6     1.396523165151   114.37289695   348.74894906
 O      9   8   7     1.217436471988   119.28336049   265.43239971
 N      9   8   7     1.326119864781   114.82463608    88.66060798
 C     11   9   8     1.448404272999   119.74982316   182.30565707
 C     11   9   8     1.446870538186   124.11991729   355.62259964
 N      5   4   3     1.337967464743   118.57191036   180.71101961
 C     14   5   4     1.442638703866   121.80844237     0.51812152
 C     14   5   4     1.442505899691   121.95178086   180.95849603
 C      3   2   1     1.493497382276   120.92022310     0.03697240
 H      1   2   3     1.089311266752   110.58515359   295.31698856
 H      1   2   3     1.088662772452   110.46956404    54.98488348
 H      1   2   3     1.086667189083   109.66677752   175.09880645
 H     12  11   9     1.089804853611   109.48701517   118.22177409
 H     12  11   9     1.087197285166   108.62524978   358.36266920
 H     12  11   9     1.089563788269   109.69735064   238.54801040
 H     13  11   9     1.091987716167   110.17892753   266.08180324
 H     13  11   9     1.087802388785   108.42341427   146.20197582
 H     13  11   9     1.087166840289   110.27637443    26.55886304
 H     15  14   5     1.091561881070   109.99446360   242.61698373
 H     15  14   5     1.091061295426   109.63322958   122.80964953
 H     15  14   5     1.085273989106   108.69955544     2.67025464
 H     16  14   5     1.092065889384   110.12220572   246.66540978
 H     16  14   5     1.090794644362   109.56036081   126.85857324
 H     16  14   5     1.086294571746   108.94596839     7.12430092
 H     17   3   2     1.084834548907   109.48779726   178.44297174
 H     17   3   2     1.087956011060   109.93277664   298.81080900
 H     17   3   2     1.087519415442   110.03200139    57.68080684

---------------------------
INTERNAL COORDINATES (A.U.)
---------------------------
 C      0   0   0     0.000000000000     0.00000000     0.00000000
 C      1   0   0     2.825704516521     0.00000000     0.00000000
 C      2   1   0     2.642498747208   123.21093564     0.00000000
 N      3   2   1     2.504462072874   122.49679288   179.94703195
 C      4   3   2     2.530651339783   118.20262456   359.93918346
 N      5   4   3     2.546380132683   123.91037198   359.93577416
 C      6   5   4     2.491544551076   116.86511519     0.20798682
 O      7   6   5     2.585365874115   116.77484960   180.92056889
 C      8   7   6     2.639046321813   114.37289695   348.74894906
 O      9   8   7     2.300621517506   119.28336049   265.43239971
 N      9   8   7     2.506003365189   114.82463608    88.66060798
 C     11   9   8     2.737087407170   119.74982316   182.30565707
 C     11   9   8     2.734189068411   124.11991729   355.62259964
 N      5   4   3     2.528392084462   118.57191036   180.71101961
 C     14   5   4     2.726192060502   121.80844237     0.51812152
 C     14   5   4     2.725941096982   121.95178086   180.95849603
 C      3   2   1     2.822301034231   120.92022310     0.03697240
 H      1   2   3     2.058499968757   110.58515359   295.31698856
 H      1   2   3     2.057274492130   110.46956404    54.98488348
 H      1   2   3     2.053503386084   109.66677752   175.09880645
 H     12  11   9     2.059432712743   109.48701517   118.22177409
 H     12  11   9     2.054505122507   108.62524978   358.36266920
 H     12  11   9     2.058977165266   109.69735064   238.54801040
 H     13  11   9     2.063557725162   110.17892753   266.08180324
 H     13  11   9     2.055648602628   108.42341427   146.20197582
 H     13  11   9     2.054447590028   110.27637443    26.55886304
 H     15  14   5     2.062753013451   109.99446360   242.61698373
 H     15  14   5     2.061807043676   109.63322958   122.80964953
 H     15  14   5     2.050870619679   108.69955544     2.67025464
 H     16  14   5     2.063705451132   110.12220572   246.66540978
 H     16  14   5     2.061303146192   109.56036081   126.85857324
 H     16  14   5     2.052799241365   108.94596839     7.12430092
 H     17   3   2     2.050040198050   109.48779726   178.44297174
 H     17   3   2     2.055938906656   109.93277664   298.81080900
 H     17   3   2     2.055113860508   110.03200139    57.68080684

---------------------
BASIS SET INFORMATION
---------------------
There are 4 groups of distinct atoms

 Group   1 Type C   : 11s6p1d contracted to 5s3p1d pattern {62111/411/1}
 Group   2 Type N   : 11s6p2d contracted to 5s3p2d pattern {62111/411/11}
 Group   3 Type O   : 11s6p2d contracted to 5s3p2d pattern {62111/411/11}
 Group   4 Type H   : 4s1p contracted to 2s1p pattern {31/1}

Atom   0C    basis set group =>   1
Atom   1C    basis set group =>   1
Atom   2C    basis set group =>   1
Atom   3N    basis set group =>   2
Atom   4C    basis set group =>   1
Atom   5N    basis set group =>   2
Atom   6C    basis set group =>   1
Atom   7O    basis set group =>   3
Atom   8C    basis set group =>   1
Atom   9O    basis set group =>   3
Atom  10N    basis set group =>   2
Atom  11C    basis set group =>   1
Atom  12C    basis set group =>   1
Atom  13N    basis set group =>   2
Atom  14C    basis set group =>   1
Atom  15C    basis set group =>   1
Atom  16C    basis set group =>   1
Atom  17H    basis set group =>   4
Atom  18H    basis set group =>   4
Atom  19H    basis set group =>   4
Atom  20H    basis set group =>   4
Atom  21H    basis set group =>   4
Atom  22H    basis set group =>   4
Atom  23H    basis set group =>   4
Atom  24H    basis set group =>   4
Atom  25H    basis set group =>   4
Atom  26H    basis set group =>   4
Atom  27H    basis set group =>   4
Atom  28H    basis set group =>   4
Atom  29H    basis set group =>   4
Atom  30H    basis set group =>   4
Atom  31H    basis set group =>   4
Atom  32H    basis set group =>   4
Atom  33H    basis set group =>   4
Atom  34H    basis set group =>   4
---------------------------------
AUXILIARY/J BASIS SET INFORMATION
---------------------------------
There are 4 groups of distinct atoms

 Group   1 Type C   : 12s5p4d2f1g contracted to 6s4p3d1f1g pattern {711111/2111/211/2/1}
 Group   2 Type N   : 12s5p4d2f1g contracted to 6s4p3d1f1g pattern {711111/2111/211/2/1}
 Group   3 Type O   : 12s5p4d2f1g contracted to 6s4p3d1f1g pattern {711111/2111/211/2/1}
 Group   4 Type H   : 5s2p1d contracted to 3s1p1d pattern {311/2/1}

Atom   0C    basis set group =>   1
Atom   1C    basis set group =>   1
Atom   2C    basis set group =>   1
Atom   3N    basis set group =>   2
Atom   4C    basis set group =>   1
Atom   5N    basis set group =>   2
Atom   6C    basis set group =>   1
Atom   7O    basis set group =>   3
Atom   8C    basis set group =>   1
Atom   9O    basis set group =>   3
Atom  10N    basis set group =>   2
Atom  11C    basis set group =>   1
Atom  12C    basis set group =>   1
Atom  13N    basis set group =>   2
Atom  14C    basis set group =>   1
Atom  15C    basis set group =>   1
Atom  16C    basis set group =>   1
Atom  17H    basis set group =>   4
Atom  18H    basis set group =>   4
Atom  19H    basis set group =>   4
Atom  20H    basis set group =>   4
Atom  21H    basis set group =>   4
Atom  22H    basis set group =>   4
Atom  23H    basis set group =>   4
Atom  24H    basis set group =>   4
Atom  25H    basis set group =>   4
Atom  26H    basis set group =>   4
Atom  27H    basis set group =>   4
Atom  28H    basis set group =>   4
Atom  29H    basis set group =>   4
Atom  30H    basis set group =>   4
Atom  31H    basis set group =>   4
Atom  32H    basis set group =>   4
Atom  33H    basis set group =>   4
Atom  34H    basis set group =>   4

Checking for AutoStart:
The File: sp_gas.gbw exists
Trying to determine its content:
     ... Fine, the file contains calculation information
     ... Fine, the calculation information was read
     ... Fine, the file contains a basis set
     ... Fine, the basis set was read
     ... Fine, the file contains a geometry
     ... Fine, the geometry was read
     ... Fine, the file contains a set of orbitals
     ... Fine, the orbitals can be read
     => possible old guess file was deleted
     => GBW file was renamed to GES file
     => GES file is set as startup file
     => Guess is set to MORead
     ... now leaving AutoStart

------------------------------------------------------------------------------
                             ORCA STARTUP CALCULATIONS
                           -- RI-GTO INTEGRALS CHOSEN --
------------------------------------------------------------------------------
------------------------------------------------------------------------------
                   ___                                                        
                  /   \      - P O W E R E D   B Y -                         
                 /     \                                                     
                 |  |  |   _    _      __       _____    __    __             
                 |  |  |  | |  | |    /  \     |  _  \  |  |  /  |          
                  \  \/   | |  | |   /    \    | | | |  |  | /  /          
                 / \  \   | |__| |  /  /\  \   | |_| |  |  |/  /          
                |  |  |   |  __  | /  /__\  \  |    /   |      \           
                |  |  |   | |  | | |   __   |  |    \   |  |\   \          
                \     /   | |  | | |  |  |  |  | |\  \  |  | \   \       
                 \___/    |_|  |_| |__|  |__|  |_| \__\ |__|  \__/        
                                                                              
                      - O R C A' S   B I G   F R I E N D -                    
                                      &                                       
                       - I N T E G R A L  F E E D E R -                       
                                                                              
 v1 FN, 2020, v2 2021, v3 2022-2024                                           
------------------------------------------------------------------------------


----------------------
SHARK INTEGRAL PACKAGE
----------------------

Number of atoms                             ...     35
Number of basis functions                   ...    443
Number of shells                            ...    213
Maximum angular momentum                    ...      2
Integral batch strategy                     ... SHARK/LIBINT Hybrid
RI-J (if used) integral strategy            ... SPLIT-RIJ (Revised 2003 algorithm where possible)
Printlevel                                  ...      1
Contraction scheme used                     ... SEGMENTED contraction
Prescreening option                         ... SCHWARTZ
   Thresh                                   ... 1.000e-10
   Tcut                                     ... 1.000e-11
   Tpresel                                  ... 1.000e-11 
Coulomb Range Separation                    ... NOT USED
Exchange Range Separation                   ... NOT USED
Multipole approximations                    ... NOT USED
Finite Nucleus Model                        ... NOT USED
CABS basis                                  ... NOT available
Auxiliary Coulomb fitting basis             ... AVAILABLE
   # of basis functions in Aux-J            ...   1031
   # of shells in Aux-J                     ...    345
   Maximum angular momentum in Aux-J        ...      4
Auxiliary J/K fitting basis                 ... NOT available
Auxiliary Correlation fitting basis         ... NOT available
Auxiliary 'external' fitting basis          ... NOT available

Checking pre-screening integrals            ... done (  0.0 sec) Dimension = 213
Check shell pair data                       ... done (  0.0 sec)
Shell pair information
Shell pair cut-off parameter TPreSel        ...   1.0e-11
Total number of shell pairs                 ...     22791
Shell pairs after pre-screening             ...     17310
Total number of primitive shell pairs       ...     81431
Primitive shell pairs kept                  ...     39878
          la=0 lb=0:   5361 shell pairs
          la=1 lb=0:   6358 shell pairs
          la=1 lb=1:   1925 shell pairs
          la=2 lb=0:   2169 shell pairs
          la=2 lb=1:   1266 shell pairs
          la=2 lb=2:    231 shell pairs

Calculating one electron integrals          ... done (  0.1 sec)
Calculating RI/J V-Matrix + Cholesky decomp.... done (  0.1 sec)
Calculating Nuclear repulsion               ... done (  0.0 sec) ENN=   1304.654890581764 Eh

Diagonalization of the overlap matrix:
Smallest eigenvalue                        ... 2.125e-05
Time for diagonalization                   ...    0.026 sec
Threshold for overlap eigenvalues          ... 1.000e-07
Number of eigenvalues below threshold      ... 0
Time for construction of square roots      ...    0.029 sec
Total time needed                          ...    0.065 sec

-------------------
DFT GRID GENERATION
-------------------

General Integration Accuracy     IntAcc      ... 4.388
Radial Grid Type                 RadialGrid  ... OptM3 with GC (2021)
Angular Grid (max. ang.)         AngularGrid ... 4 (Lebedev-302)
Angular grid pruning method      GridPruning ... 4 (adaptive)
Weight generation scheme         WeightScheme... mBecke (2022)
Basis function cutoff            BFCut       ... 1.0000e-10
Integration weight cutoff        WCut        ... 1.0000e-14
Partially contracted basis set               ... off
Rotationally invariant grid construction     ... off
Angular grids for H and He will be reduced by one unit
Diffuse basis detected: some atoms will have their outermost
                        angular grid increased by 1.

Total number of grid points                  ...   159745
Total number of batches                      ...     2513
Average number of points per batch           ...       63
Average number of grid points per atom       ...     4564
Initializing property integral containers    ... done (  0.0 sec)

SHARK setup successfully completed in   3.0 seconds

Maximum memory used throughout the entire STARTUP-calculation: 82.6 MB
-------------------------------------------------------------------------------
                                 ORCA GUESS
                   Start orbitals & Density for SCF / CASSCF
-------------------------------------------------------------------------------

------------
SCF SETTINGS
------------
Hamiltonian:
 Density Functional     Method          .... DFT(GTOs)
  Functional kind                       .... Exchange
  Functional name                       .... Re-regularized SCAN exchange by Furness et al
  Functional family                     .... MGGA
  Functional refs                              
    [ 0] J. W. Furness, A. D. Kaplan, J. Ning, J. P. Perdew, and J. Sun.,  J. Phys. Chem. Lett. 11, 8208-8215 (2020), doi: 10.1021/acs.jpclett.0c02405
    [ 1] J. W. Furness, A. D. Kaplan, J. Ning, J. P. Perdew, and J. Sun.,  J. Phys. Chem. Lett. 11, 9248-9248 (2020), doi: 10.1021/acs.jpclett.0c03077
  Functional external parameters        .... 6
    Parameter  0 _c1        =  6.670000e-01 : c1 parameter        
    Parameter  1 _c2        =  8.000000e-01 : c2 parameter        
    Parameter  2 _d         =  1.240000e+00 : d parameter         
    Parameter  3 _k1        =  6.500000e-02 : k1 parameter        
    Parameter  4 _eta       =  1.000000e-03 : eta parameter       
    Parameter  5 _dp2       =  3.610000e-01 : dp2 parameter       
  Functional kind                       .... Correlation
  Functional name                       .... Re-regularized SCAN correlation by Furness et al
  Functional family                     .... MGGA
  Functional refs                              
    [ 0] J. W. Furness, A. D. Kaplan, J. Ning, J. P. Perdew, and J. Sun.,  J. Phys. Chem. Lett. 11, 8208-8215 (2020), doi: 10.1021/acs.jpclett.0c02405
    [ 1] J. W. Furness, A. D. Kaplan, J. Ning, J. P. Perdew, and J. Sun.,  J. Phys. Chem. Lett. 11, 9248-9248 (2020), doi: 10.1021/acs.jpclett.0c03077
  Functional external parameters        .... 1
    Parameter  0 _eta       =  1.000000e-03 : Regularization parameter
 Gradients option       PostSCFGGA      .... off
 RI-approximation to the Coulomb term is turned on
   Number of AuxJ basis functions       .... 1031


General Settings:
 Integral files         IntName         .... sp_gas
 Hartree-Fock type      HFTyp           .... RHF
 Total Charge           Charge          ....    0
 Multiplicity           Mult            ....    1
 Number of Electrons    NEL             ....  128
 Basis Dimension        Dim             ....  443
 Nuclear Repulsion      ENuc            ....   1304.6548905818 Eh

Convergence Acceleration:
 AO-DIIS                CNVDIIS         .... on
   Start iteration      DIISMaxIt       ....    12
   Startup error        DIISStart       ....  0.200000
   # of expansion vecs  DIISMaxEq       ....     5
   Bias factor          DIISBfac        ....   1.050
   Max. coefficient     DIISMaxC        ....  10.000
 MO-DIIS                CNVKDIIS        .... off
 Trust-Rad. Augm. Hess. CNVTRAH         .... auto
   Auto Start mean grad. ratio tolernc. ....  1.125000
   Auto Start start iteration           ....     1
   Auto Start num. interpolation iter.  ....    10
   Max. Number of Micro iterations      ....    24
   Max. Number of Macro iterations      .... Maxiter - #DIIS iter
   Number of Davidson start vectors     ....     2
   Converg. threshold    (grad. norm)   ....   3.330e-04
   Grad. Scal. Fac. for Micro threshold ....   0.100
   Minimum threshold for Micro iter.    ....   1.000e-02
   NR start threshold (gradient norm)   ....   1.000e-04
   Initial trust radius                 ....   0.400
   Minimum AH scaling param. (alpha)    ....   1.000
   Maximum AH scaling param. (alpha)    .... 1000.000
   Quad. conv. algorithm                .... NR
   White noise on init. David. guess    .... on
   Maximum white noise                  ....   0.010
   Pseudo random numbers                .... off
   Inactive MOs                         .... canonical
   Orbital update algorithm             .... Taylor
   Preconditioner                       .... Diag
   Full preconditioner red. dimension   ....   250
   COSX micro iterations for RIJONX calc.... off
 SOSCF                  CNVSOSCF        .... on
   Start iteration      SOSCFMaxIt      ....   150
   Startup grad/error   SOSCFStart      ....  0.003300
   Hessian update       SOSCFHessUp     .... L-BFGS
 Level Shifting         CNVShift        .... on
   Level shift para.    LevelShift      ....    0.2500
   Turn off err/grad.   ShiftErr        ....    0.0010
 Zerner damping         CNVZerner       .... off
 Static damping         CNVDamp         .... on
   Fraction old density DampFac         ....    0.7000
   Max. Damping (<1)    DampMax         ....    0.9800
   Min. Damping (>=0)   DampMin         ....    0.0000
   Turn off err/grad.   DampErr         ....    0.1000

SCF Procedure:
 Maximum # iterations   MaxIter         ....   125
 SCF integral mode      SCFMode         .... Direct
   Integral package                     .... SHARK and LIBINT hybrid scheme
 Reset frequency        DirectResetFreq ....    20
 Integral Threshold     Thresh          ....  1.000e-10 Eh
 Primitive CutOff       TCut            ....  1.000e-11 Eh

Convergence Tolerance:
 Convergence Check Mode ConvCheckMode   .... Total+1el-Energy
 Convergence forced     ConvForced      .... 0
 Energy Change          TolE            ....  1.000e-06 Eh
 1-El. energy change                    ....  1.000e-03 Eh
 Orbital Gradient       TolG            ....  3.330e-04
 Orbital Rotation angle TolX            ....  3.330e-04
 DIIS Error             TolErr          ....  1.000e-06

---------------------
INITIAL GUESS: MOREAD
---------------------
Guess MOs are being read from file: sp_gas.ges
Input Geometry matches current geometry (good)
Atom 0: N(Shells)= 9 and 6 - projection required
Input basis set needs projection
NBasis(read)= 274
NBasis(calc)= 443
Basis set overlap was calculated
Using GuessMode=FMatrix for the initial guess
C*T matrix was formed
Effective Fockian was calculated
Effective Fockian was diagonalized
Initial density was built
                      ------------------
                      INITIAL GUESS DONE (   0.2 sec)
                      ------------------
             **** ENERGY FILE WAS UPDATED (sp_gas.en.tmp) ****
Finished Guess after   0.6 sec
Maximum memory used throughout the entire GUESS-calculation: 44.4 MB

-------------------------------------------------------------------------------------------
                                      ORCA LEAN-SCF
                              memory conserving SCF solver
-------------------------------------------------------------------------------------------

----------------------------------------D-I-I-S--------------------------------------------
Iteration    Energy (Eh)           Delta-E    RMSDP     MaxDP     DIISErr   Damp  Time(sec)
-------------------------------------------------------------------------------------------
               ***  Starting incremental Fock matrix formation  ***
    1    -798.9231719753508969     0.00e+00  5.82e-03  7.81e-01  6.31e-01  0.700   9.5
    2    -799.0407217646918525    -1.18e-01  4.27e-03  5.25e-01  4.44e-01  0.700   8.0
    3    -799.1237496866795027    -8.30e-02  3.03e-03  3.58e-01  3.11e-01  0.700   8.2
    4    -799.1820091619922550    -5.83e-02  2.13e-03  2.47e-01  2.18e-01  0.700   8.4
                               ***Turning on AO-DIIS***
    5    -799.2228573882750879    -4.08e-02  1.50e-03  1.70e-01  1.53e-01  0.700   7.4
    6    -799.2514824336565198    -2.86e-02  1.05e-03  1.17e-01  1.07e-01  0.700   7.3
    7    -799.2715427731170621    -2.01e-02  7.37e-04  8.13e-02  7.47e-02  0.700   7.2
    8    -799.2855951348171857    -1.41e-02  1.72e-03  1.89e-01  5.23e-02  0.000   7.5
                              *** Initializing SOSCF ***
---------------------------------------S-O-S-C-F--------------------------------------
Iteration    Energy (Eh)           Delta-E    RMSDP     MaxDP     MaxGrad    Time(sec)
--------------------------------------------------------------------------------------
    9    -799.3184173484316943    -3.28e-02  8.78e-06  6.22e-04  1.44e-04     8.8
               *** Restarting incremental Fock matrix formation ***
   10    -799.3184172819908326     6.64e-08  7.60e-06  3.69e-04  7.68e-05    10.1
                  *** Gradient check signals convergence ***

               *****************************************************
               *                     SUCCESS                       *
               *           SCF CONVERGED AFTER  10 CYCLES          *
               *****************************************************

             **** ENERGY FILE WAS UPDATED (sp_gas.en.tmp) ****

----------------
TOTAL SCF ENERGY
----------------

Total Energy       :       -799.31841728199083 Eh          -21750.55991 eV

Components:
Nuclear Repulsion  :       1304.65489058176377 Eh           35501.46443 eV
Electronic Energy  :      -2103.97330786375460 Eh          -57252.02434 eV
One Electron Energy:      -3677.68589293194054 Eh         -100074.92086 eV
Two Electron Energy:       1573.71258506818617 Eh           42822.89651 eV

Virial components:
Potential Energy   :      -1595.48474334746606 Eh          -43415.34706 eV
Kinetic Energy     :        796.16632606547523 Eh           21664.78715 eV
Virial Ratio       :          2.00395908632822

DFT components:
N(Alpha)           :       63.999993015961 electrons
N(Beta)            :       63.999993015961 electrons
N(Total)           :      127.999986031922 electrons
E(X)               :     -106.961682995887 Eh       
E(C)               :       -4.179787449494 Eh       
E(XC)              :     -111.141470445381 Eh       

---------------
SCF CONVERGENCE
---------------

  Last Energy change         ...   -6.6441e-08  Tolerance :   1.0000e-06
  Last MAX-Density change    ...    3.6943e-04  Tolerance :   1.0000e-05
  Last RMS-Density change    ...    7.5977e-06  Tolerance :   1.0000e-06
  Last DIIS Error            ...    1.4445e-04  Tolerance :   1.0000e-06
  Last Orbital Gradient      ...    7.6788e-05  Tolerance :   3.3300e-04
  Last Orbital Rotation      ...    3.2983e-04  Tolerance :   3.3300e-04


----------------
ORBITAL ENERGIES
----------------

  NO   OCC          E(Eh)            E(eV) 
   0   2.0000     -18.996821      -516.9298 
   1   2.0000     -18.910947      -514.5930 
   2   2.0000     -14.202786      -386.4774 
   3   2.0000     -14.188963      -386.1013 
   4   2.0000     -14.144045      -384.8790 
   5   2.0000     -14.135548      -384.6478 
   6   2.0000     -10.168459      -276.6978 
   7   2.0000     -10.130376      -275.6615 
   8   2.0000     -10.124003      -275.4881 
   9   2.0000     -10.077335      -274.2182 
  10   2.0000     -10.069721      -274.0110 
  11   2.0000     -10.066054      -273.9113 
  12   2.0000     -10.057995      -273.6920 
  13   2.0000     -10.055454      -273.6228 
  14   2.0000     -10.031617      -272.9742 
  15   2.0000     -10.026163      -272.8258 
  16   2.0000     -10.025519      -272.8082 
  17   2.0000      -1.076879       -29.3034 
  18   2.0000      -0.985724       -26.8229 
  19   2.0000      -0.966201       -26.2917 
  20   2.0000      -0.917507       -24.9666 
  21   2.0000      -0.897373       -24.4188 
  22   2.0000      -0.847217       -23.0540 
  23   2.0000      -0.772969       -21.0335 
  24   2.0000      -0.710240       -19.3266 
  25   2.0000      -0.699579       -19.0365 
  26   2.0000      -0.692814       -18.8524 
  27   2.0000      -0.686739       -18.6871 
  28   2.0000      -0.677430       -18.4338 
  29   2.0000      -0.630875       -17.1670 
  30   2.0000      -0.604286       -16.4435 
  31   2.0000      -0.558301       -15.1921 
  32   2.0000      -0.541808       -14.7434 
  33   2.0000      -0.513580       -13.9752 
  34   2.0000      -0.500764       -13.6265 
  35   2.0000      -0.472491       -12.8571 
  36   2.0000      -0.456252       -12.4153 
  37   2.0000      -0.455574       -12.3968 
  38   2.0000      -0.448685       -12.2094 
  39   2.0000      -0.428618       -11.6633 
  40   2.0000      -0.419981       -11.4283 
  41   2.0000      -0.411367       -11.1939 
  42   2.0000      -0.395789       -10.7700 
  43   2.0000      -0.387140       -10.5346 
  44   2.0000      -0.383274       -10.4294 
  45   2.0000      -0.381625       -10.3845 
  46   2.0000      -0.378103       -10.2887 
  47   2.0000      -0.377189       -10.2638 
  48   2.0000      -0.372869       -10.1463 
  49   2.0000      -0.371495       -10.1089 
  50   2.0000      -0.360819        -9.8184 
  51   2.0000      -0.358767        -9.7626 
  52   2.0000      -0.354107        -9.6357 
  53   2.0000      -0.352905        -9.6030 
  54   2.0000      -0.344146        -9.3647 
  55   2.0000      -0.335810        -9.1379 
  56   2.0000      -0.321609        -8.7514 
  57   2.0000      -0.275067        -7.4849 
  58   2.0000      -0.266731        -7.2581 
  59   2.0000      -0.254135        -6.9154 
  60   2.0000      -0.228715        -6.2236 
  61   2.0000      -0.222001        -6.0410 
  62   2.0000      -0.209771        -5.7082 
  63   2.0000      -0.181006        -4.9254 
  64   0.0000      -0.038527        -1.0484 
  65   0.0000      -0.008205        -0.2233 
  66   0.0000       0.010958         0.2982 
  67   0.0000       0.055440         1.5086 
  68   0.0000       0.074861         2.0371 
  69   0.0000       0.081678         2.2226 
  70   0.0000       0.098256         2.6737 
  71   0.0000       0.101193         2.7536 
  72   0.0000       0.110217         2.9992 
  73   0.0000       0.114095         3.1047 
  74   0.0000       0.117948         3.2095 
*Only the first 10 virtual orbitals were printed.

                    ********************************
                    * MULLIKEN POPULATION ANALYSIS *
                    ********************************

-----------------------
MULLIKEN ATOMIC CHARGES
-----------------------
   0 C :   -0.614677
   1 C :   -0.224764
   2 C :    0.276511
   3 N :   -0.240739
   4 C :    0.008369
   5 N :   -0.281509
   6 C :    0.441916
   7 O :   -0.125896
   8 C :    0.135713
   9 O :   -0.415361
  10 N :    0.150172
  11 C :   -0.408683
  12 C :   -0.425055
  13 N :    0.167950
  14 C :   -0.383565
  15 C :   -0.387567
  16 C :   -0.628559
  17 H :    0.162149
  18 H :    0.153324
  19 H :    0.183735
  20 H :    0.145974
  21 H :    0.203268
  22 H :    0.150412
  23 H :    0.178046
  24 H :    0.143126
  25 H :    0.179034
  26 H :    0.144016
  27 H :    0.136663
  28 H :    0.198902
  29 H :    0.144684
  30 H :    0.139316
  31 H :    0.196813
  32 H :    0.176820
  33 H :    0.164242
  34 H :    0.155221
Sum of atomic charges:   -0.0000000

--------------------------------
MULLIKEN REDUCED ORBITAL CHARGES
--------------------------------
  0 C s       :     3.450237  s :     3.450237
      pz      :     1.077888  p :     3.136495
      px      :     1.114905
      py      :     0.943702
      dz2     :     0.004854  d :     0.027945
      dxz     :     0.002693
      dyz     :     0.008271
      dx2y2   :     0.007593
      dxy     :     0.004534

  1 C s       :     3.294161  s :     3.294161
      pz      :     1.131561  p :     2.886028
      px      :     0.910456
      py      :     0.844012
      dz2     :     0.003793  d :     0.044575
      dxz     :     0.004360
      dyz     :     0.007197
      dx2y2   :     0.012594
      dxy     :     0.016631

  2 C s       :     3.146561  s :     3.146561
      pz      :     0.859905  p :     2.509169
      px      :     0.733882
      py      :     0.915383
      dz2     :     0.004372  d :     0.067760
      dxz     :     0.008256
      dyz     :     0.011359
      dx2y2   :     0.020410
      dxy     :     0.023364

  3 N s       :     3.455185  s :     3.455185
      pz      :     1.301634  p :     3.719334
      px      :     1.501188
      py      :     0.916511
      dz2     :     0.005123  d :     0.066219
      dxz     :     0.014470
      dyz     :     0.008796
      dx2y2   :     0.003308
      dxy     :     0.034522

  4 C s       :     3.096238  s :     3.096238
      pz      :     0.844198  p :     2.792227
      px      :     0.930539
      py      :     1.017489
      dz2     :     0.005936  d :     0.103167
      dxz     :     0.013474
      dyz     :     0.019597
      dx2y2   :     0.034550
      dxy     :     0.029610

  5 N s       :     3.537980  s :     3.537980
      pz      :     1.324075  p :     3.663325
      px      :     1.191562
      py      :     1.147689
      dz2     :     0.007707  d :     0.080204
      dxz     :     0.011099
      dyz     :     0.017768
      dx2y2   :     0.029517
      dxy     :     0.014112

  6 C s       :     3.044400  s :     3.044400
      pz      :     0.851184  p :     2.420089
      px      :     0.740866
      py      :     0.828039
      dz2     :     0.005823  d :     0.093595
      dxz     :     0.015526
      dyz     :     0.014275
      dx2y2   :     0.030740
      dxy     :     0.027231

  7 O s       :     3.680573  s :     3.680573
      pz      :     1.754817  p :     4.388483
      px      :     1.133719
      py      :     1.499947
      dz2     :     0.006541  d :     0.056839
      dxz     :     0.014466
      dyz     :     0.009418
      dx2y2   :     0.013907
      dxy     :     0.012507

  8 C s       :     3.164494  s :     3.164494
      pz      :     0.873203  p :     2.559215
      px      :     0.830472
      py      :     0.855540
      dz2     :     0.034097  d :     0.140578
      dxz     :     0.036205
      dyz     :     0.043552
      dx2y2   :     0.012176
      dxy     :     0.014548

  9 O s       :     3.842184  s :     3.842184
      pz      :     1.318180  p :     4.544619
      px      :     1.564071
      py      :     1.662368
      dz2     :     0.012876  d :     0.028558
      dxz     :     0.006380
      dyz     :     0.006847
      dx2y2   :     0.001547
      dxy     :     0.000908

 10 N s       :     3.197848  s :     3.197848
      pz      :     0.929974  p :     3.491881
      px      :     1.405544
      py      :     1.156363
      dz2     :     0.054102  d :     0.160099
      dxz     :     0.034279
      dyz     :     0.022052
      dx2y2   :     0.029234
      dxy     :     0.020432

 11 C s       :     3.339879  s :     3.339879
      pz      :     1.147418  p :     3.031587
      px      :     0.993489
      py      :     0.890680
      dz2     :     0.007223  d :     0.037217
      dxz     :     0.004066
      dyz     :     0.004044
      dx2y2   :     0.011142
      dxy     :     0.010742

 12 C s       :     3.350204  s :     3.350204
      pz      :     0.840520  p :     3.037131
      px      :     1.080692
      py      :     1.115919
      dz2     :     0.011202  d :     0.037719
      dxz     :     0.011726
      dyz     :     0.005766
      dx2y2   :     0.004908
      dxy     :     0.004117

 13 N s       :     3.140956  s :     3.140956
      pz      :     1.607463  p :     3.536602
      px      :     0.961137
      py      :     0.968002
      dz2     :     0.011146  d :     0.154492
      dxz     :     0.014710
      dyz     :     0.033140
      dx2y2   :     0.043547
      dxy     :     0.051949

 14 C s       :     3.316894  s :     3.316894
      pz      :     1.070297  p :     3.028806
      px      :     0.839601
      py      :     1.118908
      dz2     :     0.005899  d :     0.037865
      dxz     :     0.008793
      dyz     :     0.007294
      dx2y2   :     0.008266
      dxy     :     0.007614

 15 C s       :     3.319840  s :     3.319840
      pz      :     1.078454  p :     3.029792
      px      :     1.004466
      py      :     0.946872
      dz2     :     0.005563  d :     0.037936
      dxz     :     0.004107
      dyz     :     0.012281
      dx2y2   :     0.005268
      dxy     :     0.010717

 16 C s       :     3.452416  s :     3.452416
      pz      :     1.074714  p :     3.150086
      px      :     1.011318
      py      :     1.064053
      dz2     :     0.004614  d :     0.026057
      dxz     :     0.002017
      dyz     :     0.007323
      dx2y2   :     0.004249
      dxy     :     0.007853

 17 H s       :     0.819517  s :     0.819517
      pz      :     0.009162  p :     0.018334
      px      :     0.003925
      py      :     0.005248

 18 H s       :     0.828285  s :     0.828285
      pz      :     0.007470  p :     0.018391
      px      :     0.005335
      py      :     0.005586

 19 H s       :     0.797826  s :     0.797826
      pz      :     0.003932  p :     0.018440
      px      :     0.011042
      py      :     0.003466

 20 H s       :     0.836014  s :     0.836014
      pz      :     0.004815  p :     0.018012
      px      :     0.005006
      py      :     0.008191

 21 H s       :     0.777861  s :     0.777861
      pz      :     0.012360  p :     0.018871
      px      :     0.003410
      py      :     0.003102

 22 H s       :     0.831574  s :     0.831574
      pz      :     0.005054  p :     0.018014
      px      :     0.010021
      py      :     0.002939

 23 H s       :     0.804020  s :     0.804020
      pz      :     0.003417  p :     0.017933
      px      :     0.008811
      py      :     0.005705

 24 H s       :     0.838760  s :     0.838760
      pz      :     0.005850  p :     0.018114
      px      :     0.008199
      py      :     0.004066

 25 H s       :     0.802438  s :     0.802438
      pz      :     0.002910  p :     0.018528
      px      :     0.004133
      py      :     0.011485

 26 H s       :     0.838018  s :     0.838018
      pz      :     0.008402  p :     0.017966
      px      :     0.003871
      py      :     0.005693

 27 H s       :     0.845333  s :     0.845333
      pz      :     0.008815  p :     0.018003
      px      :     0.002918
      py      :     0.006270

 28 H s       :     0.781446  s :     0.781446
      pz      :     0.003674  p :     0.019652
      px      :     0.005096
      py      :     0.010883

 29 H s       :     0.837403  s :     0.837403
      pz      :     0.009162  p :     0.017913
      px      :     0.003426
      py      :     0.005325

 30 H s       :     0.842645  s :     0.842645
      pz      :     0.007779  p :     0.018039
      px      :     0.003812
      py      :     0.006449

 31 H s       :     0.783557  s :     0.783557
      pz      :     0.004104  p :     0.019630
      px      :     0.010257
      py      :     0.005268

 32 H s       :     0.805039  s :     0.805039
      pz      :     0.003638  p :     0.018141
      px      :     0.009471
      py      :     0.005032

 33 H s       :     0.817262  s :     0.817262
      pz      :     0.008652  p :     0.018496
      px      :     0.003621
      py      :     0.006222

 34 H s       :     0.826283  s :     0.826283
      pz      :     0.008211  p :     0.018496
      px      :     0.003782
      py      :     0.006502


------------------------
MULLIKEN OVERLAP CHARGES
------------------------
B(  0-C ,  1-C ) :   0.2175 B(  0-C ,  2-C ) :  -0.1249 B(  0-C ,  6-C ) :  -0.2046 
B(  0-C ,  7-O ) :   0.0538 B(  0-C , 16-C ) :  -0.0817 B(  0-C , 17-H ) :   0.8883 
B(  0-C , 18-H ) :   0.8296 B(  0-C , 19-H ) :   0.8579 B(  1-C ,  2-C ) :   0.0659 
B(  1-C ,  3-N ) :  -0.0508 B(  1-C ,  5-N ) :  -0.1484 B(  1-C ,  6-C ) :  -0.1419 
B(  1-C ,  7-O ) :  -0.2840 B(  1-C , 16-C ) :  -0.0836 B(  1-C , 17-H ) :  -0.1333 
B(  1-C , 18-H ) :  -0.1087 B(  1-C , 19-H ) :  -0.1219 B(  2-C ,  3-N ) :   0.7569 
B(  2-C ,  4-C ) :  -0.4431 B(  2-C ,  5-N ) :  -0.0619 B(  2-C ,  6-C ) :   0.3204 
B(  2-C , 16-C ) :  -0.0554 B(  2-C , 32-H ) :  -0.1023 B(  2-C , 33-H ) :  -0.1107 
B(  2-C , 34-H ) :  -0.0998 B(  3-N ,  4-C ) :   0.9446 B(  3-N ,  5-N ) :  -0.0612 
B(  3-N ,  6-C ) :  -0.1403 B(  3-N , 13-N ) :  -0.2602 B(  4-C ,  5-N ) :   0.9248 
B(  4-C ,  6-C ) :  -0.3413 B(  4-C , 13-N ) :   0.9304 B(  4-C , 14-C ) :  -0.1487 
B(  4-C , 15-C ) :  -0.1688 B(  5-N ,  6-C ) :   0.4564 B(  5-N ,  7-O ) :  -0.2813 
B(  5-N ,  8-C ) :   0.0957 B(  5-N , 13-N ) :  -0.3323 B(  6-C ,  7-O ) :   0.7436 
B(  6-C ,  8-C ) :  -0.2807 B(  6-C , 16-C ) :   0.0534 B(  7-O ,  8-C ) :   0.4724 
B(  7-O ,  9-O ) :  -0.2017 B(  7-O , 10-N ) :  -0.2162 B(  8-C ,  9-O ) :   1.2842 
B(  8-C , 10-N ) :   0.5301 B(  8-C , 11-C ) :  -0.1696 B(  8-C , 12-C ) :  -0.1533 
B(  9-O , 10-N ) :  -0.2551 B( 10-N , 11-C ) :   0.5448 B( 10-N , 12-C ) :   0.5579 
B( 10-N , 20-H ) :  -0.0723 B( 10-N , 22-H ) :  -0.0980 B( 10-N , 23-H ) :  -0.1109 
B( 10-N , 24-H ) :  -0.0670 B( 10-N , 25-H ) :  -0.0665 B( 11-C , 12-C ) :  -0.1230 
B( 11-C , 20-H ) :   0.7777 B( 11-C , 21-H ) :   0.8143 B( 11-C , 22-H ) :   0.8306 
B( 12-C , 23-H ) :   0.8274 B( 12-C , 24-H ) :   0.7797 B( 12-C , 25-H ) :   0.8164 
B( 13-N , 14-C ) :   0.5658 B( 13-N , 15-C ) :   0.5576 B( 13-N , 26-H ) :  -0.0932 
B( 13-N , 27-H ) :  -0.0916 B( 13-N , 29-H ) :  -0.1016 B( 13-N , 30-H ) :  -0.0837 
B( 14-C , 15-C ) :  -0.1552 B( 14-C , 26-H ) :   0.8126 B( 14-C , 27-H ) :   0.7976 
B( 14-C , 28-H ) :   0.8218 B( 15-C , 29-H ) :   0.8220 B( 15-C , 30-H ) :   0.7848 
B( 15-C , 31-H ) :   0.8254 B( 16-C , 32-H ) :   0.8927 B( 16-C , 33-H ) :   0.8388 
B( 16-C , 34-H ) :   0.8071 B( 17-H , 18-H ) :  -0.0587 B( 20-H , 22-H ) :  -0.0650 
B( 23-H , 24-H ) :  -0.0550 B( 26-H , 27-H ) :  -0.0700 B( 29-H , 30-H ) :  -0.0678 
B( 33-H , 34-H ) :  -0.0539 


                     *******************************
                     * LOEWDIN POPULATION ANALYSIS *
                     *******************************

----------------------
LOEWDIN ATOMIC CHARGES
----------------------
   0 C :   -0.373056
   1 C :   -0.077009
   2 C :    0.176648
   3 N :   -0.577736
   4 C :    0.436928
   5 N :   -0.511139
   6 C :    0.401901
   7 O :   -0.457676
   8 C :    0.464478
   9 O :   -0.381934
  10 N :   -0.777698
  11 C :   -0.099933
  12 C :   -0.100460
  13 N :   -0.794153
  14 C :   -0.104482
  15 C :   -0.104799
  16 C :   -0.353797
  17 H :    0.160811
  18 H :    0.162491
  19 H :    0.179298
  20 H :    0.174435
  21 H :    0.209952
  22 H :    0.174399
  23 H :    0.178489
  24 H :    0.177434
  25 H :    0.198487
  26 H :    0.171077
  27 H :    0.170339
  28 H :    0.210977
  29 H :    0.168832
  30 H :    0.173615
  31 H :    0.210306
  32 H :    0.175353
  33 H :    0.169622
  34 H :    0.168001

-------------------------------
LOEWDIN REDUCED ORBITAL CHARGES
-------------------------------
  0 C s       :     2.946616  s :     2.946616
      pz      :     1.149745  p :     3.361114
      px      :     1.151822
      py      :     1.059547
      dz2     :     0.011557  d :     0.065326
      dxz     :     0.006513
      dyz     :     0.019336
      dx2y2   :     0.017969
      dxy     :     0.009951

  1 C s       :     2.840758  s :     2.840758
      pz      :     1.080418  p :     3.145357
      px      :     1.036439
      py      :     1.028500
      dz2     :     0.006772  d :     0.090893
      dxz     :     0.007722
      dyz     :     0.011200
      dx2y2   :     0.029717
      dxy     :     0.035482

  2 C s       :     2.785064  s :     2.785064
      pz      :     0.830702  p :     2.894252
      px      :     1.038345
      py      :     1.025206
      dz2     :     0.009116  d :     0.144036
      dxz     :     0.015111
      dyz     :     0.020325
      dx2y2   :     0.043651
      dxy     :     0.055833

  3 N s       :     3.197770  s :     3.197770
      pz      :     1.261677  p :     3.910144
      px      :     1.484969
      py      :     1.163499
      dz2     :     0.056904  d :     0.469822
      dxz     :     0.032458
      dyz     :     0.088573
      dx2y2   :     0.140865
      dxy     :     0.151022

  4 C s       :     2.656619  s :     2.656619
      pz      :     0.772577  p :     2.683028
      px      :     0.973437
      py      :     0.937013
      dz2     :     0.014418  d :     0.223424
      dxz     :     0.025895
      dyz     :     0.037004
      dx2y2   :     0.079136
      dxy     :     0.066972

  5 N s       :     3.180144  s :     3.180144
      pz      :     1.279669  p :     3.872090
      px      :     1.262335
      py      :     1.330086
      dz2     :     0.058683  d :     0.458904
      dxz     :     0.062027
      dyz     :     0.063690
      dx2y2   :     0.148894
      dxy     :     0.125611

  6 C s       :     2.707437  s :     2.707437
      pz      :     0.810075  p :     2.687072
      px      :     0.858314
      py      :     1.018683
      dz2     :     0.013758  d :     0.203590
      dxz     :     0.029745
      dyz     :     0.026287
      dx2y2   :     0.071850
      dxy     :     0.061950

  7 O s       :     3.440778  s :     3.440778
      pz      :     1.717020  p :     4.580136
      px      :     1.322210
      py      :     1.540907
      dz2     :     0.064371  d :     0.436761
      dxz     :     0.085393
      dyz     :     0.051271
      dx2y2   :     0.114311
      dxy     :     0.121415

  8 C s       :     2.667860  s :     2.667860
      pz      :     0.978806  p :     2.566066
      px      :     0.778925
      py      :     0.808335
      dz2     :     0.079726  d :     0.301596
      dxz     :     0.073325
      dyz     :     0.091320
      dx2y2   :     0.023505
      dxy     :     0.033720

  9 O s       :     3.543581  s :     3.543581
      pz      :     1.459918  p :     4.632651
      px      :     1.549946
      py      :     1.622787
      dz2     :     0.073030  d :     0.205702
      dxz     :     0.050834
      dyz     :     0.053155
      dx2y2   :     0.009487
      dxy     :     0.019196

 10 N s       :     3.079736  s :     3.079736
      pz      :     1.190348  p :     3.950774
      px      :     1.450784
      py      :     1.309642
      dz2     :     0.201408  d :     0.747188
      dxz     :     0.147752
      dyz     :     0.176292
      dx2y2   :     0.111985
      dxy     :     0.109751

 11 C s       :     2.878033  s :     2.878033
      pz      :     1.124744  p :     3.132503
      px      :     1.045116
      py      :     0.962643
      dz2     :     0.018299  d :     0.089397
      dxz     :     0.010028
      dyz     :     0.010197
      dx2y2   :     0.026457
      dxy     :     0.024417

 12 C s       :     2.877380  s :     2.877380
      pz      :     0.928684  p :     3.132359
      px      :     1.094200
      py      :     1.109474
      dz2     :     0.025799  d :     0.090721
      dxz     :     0.028564
      dyz     :     0.013413
      dx2y2   :     0.012444
      dxy     :     0.010502

 13 N s       :     3.072225  s :     3.072225
      pz      :     1.578798  p :     3.968403
      px      :     1.208325
      py      :     1.181281
      dz2     :     0.067880  d :     0.753526
      dxz     :     0.107840
      dyz     :     0.130631
      dx2y2   :     0.217145
      dxy     :     0.230030

 14 C s       :     2.874757  s :     2.874757
      pz      :     1.093469  p :     3.138492
      px      :     0.941329
      py      :     1.103694
      dz2     :     0.013865  d :     0.091233
      dxz     :     0.019669
      dyz     :     0.019243
      dx2y2   :     0.018911
      dxy     :     0.019545

 15 C s       :     2.874674  s :     2.874674
      pz      :     1.096837  p :     3.138762
      px      :     1.047687
      py      :     0.994238
      dz2     :     0.012947  d :     0.091363
      dxz     :     0.008675
      dyz     :     0.031087
      dx2y2   :     0.013748
      dxy     :     0.024905

 16 C s       :     2.951262  s :     2.951262
      pz      :     1.142967  p :     3.342534
      px      :     1.103320
      py      :     1.096247
      dz2     :     0.010907  d :     0.060002
      dxz     :     0.003687
      dyz     :     0.018398
      dx2y2   :     0.009495
      dxy     :     0.017514

 17 H s       :     0.795640  s :     0.795640
      pz      :     0.022922  p :     0.043549
      px      :     0.008927
      py      :     0.011700

 18 H s       :     0.793902  s :     0.793902
      pz      :     0.018324  p :     0.043607
      px      :     0.012769
      py      :     0.012515

 19 H s       :     0.775853  s :     0.775853
      pz      :     0.008762  p :     0.044849
      px      :     0.028605
      py      :     0.007482

 20 H s       :     0.784796  s :     0.784796
      pz      :     0.011217  p :     0.040769
      px      :     0.012088
      py      :     0.017464

 21 H s       :     0.745746  s :     0.745746
      pz      :     0.030868  p :     0.044303
      px      :     0.007078
      py      :     0.006356

 22 H s       :     0.784975  s :     0.784975
      pz      :     0.011763  p :     0.040626
      px      :     0.022631
      py      :     0.006232

 23 H s       :     0.780147  s :     0.780147
      pz      :     0.006907  p :     0.041364
      px      :     0.020663
      py      :     0.013794

 24 H s       :     0.781966  s :     0.781966
      pz      :     0.011549  p :     0.040601
      px      :     0.020008
      py      :     0.009044

 25 H s       :     0.759045  s :     0.759045
      pz      :     0.005843  p :     0.042468
      px      :     0.008861
      py      :     0.027765

 26 H s       :     0.788363  s :     0.788363
      pz      :     0.020174  p :     0.040560
      px      :     0.007749
      py      :     0.012636

 27 H s       :     0.789161  s :     0.789161
      pz      :     0.020556  p :     0.040500
      px      :     0.005934
      py      :     0.014010

 28 H s       :     0.742886  s :     0.742886
      pz      :     0.007810  p :     0.046137
      px      :     0.010504
      py      :     0.027824

 29 H s       :     0.790649  s :     0.790649
      pz      :     0.022030  p :     0.040520
      px      :     0.007583
      py      :     0.010907

 30 H s       :     0.785840  s :     0.785840
      pz      :     0.018074  p :     0.040545
      px      :     0.009161
      py      :     0.013310

 31 H s       :     0.744023  s :     0.744023
      pz      :     0.008928  p :     0.045671
      px      :     0.023779
      py      :     0.012964

 32 H s       :     0.781297  s :     0.781297
      pz      :     0.007973  p :     0.043350
      px      :     0.023430
      py      :     0.011947

 33 H s       :     0.786178  s :     0.786178
      pz      :     0.021573  p :     0.044200
      px      :     0.008003
      py      :     0.014624

 34 H s       :     0.787856  s :     0.787856
      pz      :     0.020176  p :     0.044143
      px      :     0.008668
      py      :     0.015300


---------------------------------
LOEWDIN BOND ORDERS (THRESH 0.050000)
---------------------------------
B(  0-C ,  1-C ) :   1.0932 B(  0-C ,  2-C ) :   0.0782 B(  0-C ,  6-C ) :   0.0791 
B(  0-C , 17-H ) :   0.9098 B(  0-C , 18-H ) :   0.9084 B(  0-C , 19-H ) :   0.8978 
B(  1-C ,  2-C ) :   1.2686 B(  1-C ,  3-N ) :   0.2042 B(  1-C ,  4-C ) :   0.0807 
B(  1-C ,  5-N ) :   0.1774 B(  1-C ,  6-C ) :   1.1620 B(  1-C ,  7-O ) :   0.1902 
B(  1-C , 16-C ) :   0.0805 B(  2-C ,  3-N ) :   1.7039 B(  2-C ,  4-C ) :   0.1048 
B(  2-C ,  5-N ) :   0.1056 B(  2-C ,  6-C ) :   0.1020 B(  2-C , 16-C ) :   1.0385 
B(  3-N ,  4-C ) :   1.4318 B(  3-N ,  5-N ) :   0.2769 B(  3-N ,  6-C ) :   0.1005 
B(  3-N , 13-N ) :   0.3449 B(  3-N , 14-C ) :   0.0785 B(  3-N , 16-C ) :   0.1937 
B(  4-C ,  5-N ) :   1.3842 B(  4-C ,  6-C ) :   0.1056 B(  4-C , 13-N ) :   1.3329 
B(  4-C , 14-C ) :   0.0787 B(  4-C , 15-C ) :   0.0786 B(  5-N ,  6-C ) :   1.5653 
B(  5-N ,  7-O ) :   0.3410 B(  5-N ,  8-C ) :   0.0710 B(  5-N , 13-N ) :   0.3471 
B(  5-N , 15-C ) :   0.0784 B(  6-C ,  7-O ) :   1.3028 B(  6-C ,  8-C ) :   0.0759 
B(  7-O ,  8-C ) :   1.1179 B(  7-O ,  9-O ) :   0.3431 B(  7-O , 10-N ) :   0.2827 
B(  7-O , 12-C ) :   0.0505 B(  8-C ,  9-O ) :   2.0305 B(  8-C , 10-N ) :   1.3477 
B(  8-C , 11-C ) :   0.0846 B(  8-C , 12-C ) :   0.0804 B(  9-O , 10-N ) :   0.4469 
B(  9-O , 11-C ) :   0.0595 B( 10-N , 11-C ) :   1.3228 B( 10-N , 12-C ) :   1.3209 
B( 10-N , 20-H ) :   0.1045 B( 10-N , 21-H ) :   0.0913 B( 10-N , 22-H ) :   0.1036 
B( 10-N , 23-H ) :   0.1022 B( 10-N , 24-H ) :   0.1029 B( 10-N , 25-H ) :   0.0901 
B( 11-C , 12-C ) :   0.0778 B( 11-C , 20-H ) :   0.8512 B( 11-C , 21-H ) :   0.8318 
B( 11-C , 22-H ) :   0.8544 B( 12-C , 23-H ) :   0.8490 B( 12-C , 24-H ) :   0.8485 
B( 12-C , 25-H ) :   0.8367 B( 13-N , 14-C ) :   1.3282 B( 13-N , 15-C ) :   1.3274 
B( 13-N , 26-H ) :   0.1048 B( 13-N , 27-H ) :   0.1050 B( 13-N , 28-H ) :   0.0907 
B( 13-N , 29-H ) :   0.1048 B( 13-N , 30-H ) :   0.1044 B( 13-N , 31-H ) :   0.0900 
B( 14-C , 15-C ) :   0.0773 B( 14-C , 26-H ) :   0.8528 B( 14-C , 27-H ) :   0.8523 
B( 14-C , 28-H ) :   0.8245 B( 15-C , 29-H ) :   0.8541 B( 15-C , 30-H ) :   0.8505 
B( 15-C , 31-H ) :   0.8239 B( 16-C , 32-H ) :   0.9060 B( 16-C , 33-H ) :   0.9034 
B( 16-C , 34-H ) :   0.9041 

------------------------------------------
LOEWDIN REDUCED ORBITAL POPULATIONS PER MO
-------------------------------------------
THRESHOLD FOR PRINTING IS 0.1%%
                      0         1         2         3         4         5   
                 -18.99682 -18.91095 -14.20279 -14.18896 -14.14405 -14.13555
                   2.00000   2.00000   2.00000   2.00000   2.00000   2.00000
                  --------  --------  --------  --------  --------  --------
 3 N  s               0.0       0.0       0.0       0.0       0.0      99.8
 5 N  s               0.0       0.0       0.0       0.0      99.8       0.0
 7 O  s              99.9       0.0       0.0       0.0       0.0       0.0
 9 O  s               0.0      99.9       0.0       0.0       0.0       0.0
10 N  s               0.0       0.0      99.8       0.0       0.0       0.0
13 N  s               0.0       0.0       0.0      99.8       0.0       0.0

                      6         7         8         9        10        11   
                 -10.16846 -10.13038 -10.12400 -10.07733 -10.06972 -10.06605
                   2.00000   2.00000   2.00000   2.00000   2.00000   2.00000
                  --------  --------  --------  --------  --------  --------
 1 C  px              0.0       0.0       0.0       0.1       0.0       0.0
 2 C  s               0.0       0.0       0.0      99.2       0.0       0.0
 3 N  py              0.0       0.0       0.1       0.1       0.0       0.0
 3 N  dx2y2           0.0       0.0       0.0       0.2       0.0       0.0
 3 N  dxy             0.0       0.0       0.2       0.1       0.0       0.0
 4 C  s               0.0       0.0      98.7       0.0       0.0       0.0
 5 N  px              0.0       0.0       0.1       0.0       0.0       0.0
 5 N  py              0.0       0.1       0.0       0.0       0.0       0.0
 5 N  dx2y2           0.0       0.2       0.2       0.0       0.0       0.0
 6 C  s               0.0      98.9       0.0       0.0       0.0       0.0
 7 O  px              0.0       0.1       0.0       0.0       0.0       0.0
 7 O  dx2y2           0.0       0.2       0.0       0.0       0.0       0.0
 7 O  dxy             0.2       0.0       0.0       0.0       0.0       0.0
 8 C  s              98.6       0.0       0.0       0.0       0.0       0.0
 9 O  pz              0.2       0.0       0.0       0.0       0.0       0.0
 9 O  dz2             0.2       0.0       0.0       0.0       0.0       0.0
10 N  dz2             0.1       0.0       0.0       0.0       0.2       0.1
10 N  dyz             0.1       0.0       0.0       0.0       0.0       0.0
10 N  dxy             0.0       0.0       0.0       0.0       0.0       0.2
11 C  s               0.0       0.0       0.0       0.0       0.0      99.4
12 C  s               0.0       0.0       0.0       0.0      99.4       0.0
13 N  py              0.0       0.0       0.1       0.0       0.0       0.0
13 N  dx2y2           0.0       0.0       0.2       0.0       0.0       0.0

                     12        13        14        15        16        17   
                 -10.05799 -10.05545 -10.03162 -10.02616 -10.02552  -1.07688
                   2.00000   2.00000   2.00000   2.00000   2.00000   2.00000
                  --------  --------  --------  --------  --------  --------
 0 C  s               0.0       0.0       0.0       0.0      99.7       0.1
 0 C  py              0.0       0.0       0.1       0.0       0.0       0.1
 1 C  s               0.0       0.0      99.5       0.0       0.0       0.5
 1 C  px              0.0       0.0       0.0       0.0       0.0       0.6
 1 C  py              0.0       0.0       0.0       0.0       0.1       0.4
 2 C  px              0.0       0.0       0.1       0.1       0.0       0.1
 4 C  s               0.0       0.0       0.0       0.0       0.0       0.2
 4 C  px              0.0       0.0       0.0       0.0       0.0       0.2
 5 N  s               0.0       0.0       0.0       0.0       0.0       1.4
 5 N  px              0.0       0.0       0.0       0.0       0.0       0.3
 5 N  py              0.0       0.0       0.0       0.0       0.0       0.8
 5 N  dz2             0.0       0.0       0.0       0.0       0.0       0.4
 5 N  dxy             0.0       0.0       0.0       0.0       0.0       0.7
 6 C  s               0.0       0.0       0.0       0.0       0.0       6.8
 6 C  px              0.0       0.0       0.1       0.0       0.0       5.9
 6 C  dz2             0.0       0.0       0.0       0.0       0.0       0.2
 6 C  dx2y2           0.0       0.0       0.0       0.0       0.0       0.3
 7 O  s               0.0       0.0       0.0       0.0       0.0      40.8
 7 O  px              0.0       0.0       0.0       0.0       0.0       0.2
 7 O  py              0.0       0.0       0.0       0.0       0.0       2.3
 7 O  dz2             0.0       0.0       0.0       0.0       0.0       0.3
 7 O  dxy             0.0       0.0       0.0       0.0       0.0       0.2
 8 C  s               0.0       0.0       0.0       0.0       0.0      13.6
 8 C  px              0.0       0.0       0.0       0.0       0.0       1.2
 8 C  py              0.0       0.0       0.0       0.0       0.0       1.6
 8 C  dxy             0.0       0.0       0.0       0.0       0.0       0.5
 9 O  s               0.0       0.0       0.0       0.0       0.0       7.1
 9 O  pz              0.0       0.0       0.0       0.0       0.0       1.9
 9 O  px              0.0       0.0       0.0       0.0       0.0       0.2
 9 O  py              0.0       0.0       0.0       0.0       0.0       0.2
 9 O  dz2             0.0       0.0       0.0       0.0       0.0       0.4
 9 O  dxz             0.0       0.0       0.0       0.0       0.0       0.3
 9 O  dyz             0.0       0.0       0.0       0.0       0.0       0.3
 9 O  dxy             0.0       0.0       0.0       0.0       0.0       0.1
10 N  s               0.0       0.0       0.0       0.0       0.0       3.3
10 N  pz              0.0       0.0       0.0       0.0       0.0       0.8
10 N  px              0.0       0.0       0.0       0.0       0.0       0.3
10 N  py              0.0       0.0       0.0       0.0       0.0       0.7
10 N  dxz             0.0       0.0       0.0       0.0       0.0       0.2
10 N  dyz             0.0       0.0       0.0       0.0       0.0       0.4
10 N  dxy             0.0       0.0       0.0       0.0       0.0       0.5
11 C  s               0.0       0.0       0.0       0.0       0.0       0.3
11 C  px              0.0       0.0       0.0       0.0       0.0       0.2
11 C  py              0.0       0.0       0.0       0.0       0.0       0.4
12 C  s               0.0       0.0       0.0       0.0       0.0       0.4
12 C  pz              0.0       0.0       0.0       0.0       0.0       0.8
13 N  dx2y2           0.0       0.2       0.0       0.0       0.0       0.0
13 N  dxy             0.2       0.1       0.0       0.0       0.0       0.0
14 C  s               0.0      99.4       0.0       0.0       0.0       0.0
15 C  s              99.4       0.0       0.0       0.0       0.0       0.0
16 C  s               0.0       0.0       0.0      99.7       0.0       0.0

                     18        19        20        21        22        23   
                  -0.98572  -0.96620  -0.91751  -0.89737  -0.84722  -0.77297
                   2.00000   2.00000   2.00000   2.00000   2.00000   2.00000
                  --------  --------  --------  --------  --------  --------
 0 C  s               0.1       0.0       0.0       0.2       0.1      10.4
 0 C  px              0.0       0.0       0.0       0.1       0.0       0.3
 0 C  py              0.2       0.0       0.0       0.2       0.0       2.1
 1 C  s               0.9       0.5       0.0       2.6       0.2      20.1
 1 C  px              0.1       0.5       0.0       0.4       2.1       0.0
 1 C  py              0.6       0.5       0.0       0.7       0.2       0.6
 1 C  dz2             0.0       0.0       0.0       0.0       0.0       0.2
 2 C  s               0.7       2.4       0.0       5.8       8.5       5.1
 2 C  px              0.1       0.0       0.0       0.1       1.1       2.2
 2 C  py              0.4       1.9       0.0       1.3       2.2       5.1
 2 C  dz2             0.0       0.0       0.0       0.1       0.2       0.0
 2 C  dx2y2           0.0       0.1       0.0       0.0       0.2       0.2
 3 N  s               1.7       9.2       0.0       7.8      17.9       3.5
 3 N  px              0.5       1.8       0.0       1.0       0.6       0.4
 3 N  py              0.0       0.4       0.0       1.5       1.4       2.8
 3 N  dz2             0.2       0.7       0.0       0.1       0.0       0.1
 3 N  dx2y2           0.0       0.1       0.0       0.2       1.2       0.2
 3 N  dxy             0.1       0.4       0.0       0.1       0.2       0.8
 4 C  s               3.2      15.5       0.0       0.1       0.0       3.3
 4 C  pz              0.0       0.0       0.0       0.0       0.2       0.0
 4 C  px              0.1       0.1       0.0       0.9      14.3       0.3
 4 C  py              0.0       0.2       0.1      14.7       0.9       0.8
 4 C  dz2             0.1       0.4       0.0       0.0       0.0       0.1
 4 C  dx2y2           0.0       0.0       0.0       0.3       0.3       0.0
 4 C  dxy             0.0       0.0       0.0       0.2       0.5       0.1
 5 N  s               4.2       6.7       0.0       5.1      22.3       0.3
 5 N  px              0.2       2.8       0.0       0.1       0.3       0.9
 5 N  py              0.5       0.1       0.0       1.6       1.3       1.0
 5 N  dz2             0.4       0.4       0.0       0.0       0.0       0.0
 5 N  dx2y2           0.0       0.4       0.0       0.0       0.4       1.5
 5 N  dxy             0.3       0.0       0.0       0.7       0.2       0.0
 6 C  s               4.6       0.3       0.1       2.2       3.9       4.2
[...]
15 C  py              0.0       0.2       0.0       0.1       0.0       0.0
15 C  dx2y2           0.0       0.3       0.0       0.1       0.0       0.0
15 C  dxy             0.0       0.3       0.0       0.1       0.0       0.0
16 C  dxy             0.0       0.0       0.0       0.2       0.0       0.0
19 H  px              0.0       0.0       0.0       0.1       0.0       0.0
21 H  s               0.2       0.0       0.0       0.0       0.0       0.0
21 H  pz              0.3       0.0       0.1       0.0       0.0       0.0
28 H  py              0.0       0.4       0.0       0.0       0.1       0.0
31 H  py              0.0       0.2       0.0       0.0       0.0       0.0

                    426       427       428       429       430       431   
                  21.84541  22.02138  22.03792  22.06182  22.08453  22.10750
                   0.00000   0.00000   0.00000   0.00000   0.00000   0.00000
                  --------  --------  --------  --------  --------  --------
 0 C  s               5.7      11.7       2.6       0.0      59.2      10.7
 1 C  s              63.3       0.9       0.7       0.1       6.2       0.1
 2 C  s              23.7       2.8       0.0       0.2       1.9       0.2
 3 N  s               0.1       0.0       0.0       0.0       0.0       0.0
 4 C  s               0.5       1.5       0.7       1.0       0.1       0.1
 6 C  s               3.7       1.2       0.0       0.7       2.7       0.0
 6 C  py              0.1       0.0       0.0       0.0       0.0       0.0
 8 C  s               0.1       0.1       0.0       0.2       0.1       0.4
10 N  s               0.0       0.0       0.1       0.1       0.0       0.0
11 C  s               0.0       5.3      26.3      23.8       1.2      28.1
12 C  s               0.0       6.8      15.9      19.7       3.9      38.5
13 N  s               0.0       0.0       0.1       0.1       0.0       0.0
14 C  s               0.0       4.3      18.8      35.0       4.4       7.5
15 C  s               0.1       0.0      24.7      16.9      13.5       6.1
16 C  s               1.7      64.7       9.6       1.8       6.4       7.7

                    432       433       434       435       436       437   
                  22.13706  22.24862  22.36672  22.44323  22.53138  31.97430
                   0.00000   0.00000   0.00000   0.00000   0.00000   0.00000
                  --------  --------  --------  --------  --------  --------
 0 C  s               4.2       4.2       0.0       0.6       0.0       0.0
 1 C  s               0.2      14.8       9.6       2.0       1.6       0.0
 2 C  s               0.1      66.1       0.6       2.2       1.3       0.0
 3 N  s               0.0       0.1       0.1       0.0       0.0      29.2
 3 N  py              0.0       0.1       0.0       0.0       0.1       0.0
 4 C  s               0.5       0.1      35.3      26.1      32.7       0.1
 5 N  s               0.0       0.0       0.1       0.1       0.1      17.0
 5 N  px              0.0       0.0       0.0       0.1       0.1       0.0
 6 C  s               0.3       9.4      49.3      18.6      12.8       0.0
 6 C  px              0.0       0.1       0.0       0.0       0.0       0.0
 7 O  s               0.0       0.0       0.1       0.1       0.0       0.0
 8 C  s               0.0       0.0       0.6      47.8      49.5       0.0
 9 O  s               0.0       0.0       0.0       0.1       0.1       0.0
10 N  s               0.0       0.0       0.0       0.1       0.1      11.8
11 C  s              14.1       0.2       0.2       0.1       0.0       0.0
12 C  s              12.6       0.7       0.8       0.5       0.1       0.0
13 N  s               0.0       0.0       0.2       0.1       0.1      41.7
14 C  s              26.9       1.5       0.0       0.4       0.6       0.0
15 C  s              36.0       0.2       1.1       0.4       0.1       0.0
16 C  s               4.4       1.6       1.4       0.1       0.1       0.0

                    438       439       440       441       442   
                  32.03011  32.12811  32.22761  43.82376  44.03608
                   0.00000   0.00000   0.00000   0.00000   0.00000
                  --------  --------  --------  --------  --------
 3 N  s               8.5      43.9      18.2       0.0       0.0
 5 N  s               0.0       5.6      77.0       0.0       0.0
 7 O  s               0.0       0.0       0.0       0.0      99.8
 9 O  s               0.0       0.0       0.0      99.8       0.0
10 N  s              84.6       0.0       3.4       0.0       0.0
13 N  s               6.7      50.2       1.1       0.0       0.0


                      *****************************
                      * MAYER POPULATION ANALYSIS *
                      *****************************

  NA   - Mulliken gross atomic population
  ZA   - Total nuclear charge
  QA   - Mulliken gross atomic charge
  VA   - Mayer's total valence
  BVA  - Mayer's bonded valence
  FA   - Mayer's free valence

  ATOM       NA         ZA         QA         VA         BVA        FA
  0 C      6.6147     6.0000    -0.6147     3.7395     3.7395    -0.0000
  1 C      6.2248     6.0000    -0.2248     3.3709     3.3709    -0.0000
  2 C      5.7235     6.0000     0.2765     3.5276     3.5276    -0.0000
  3 N      7.2407     7.0000    -0.2407     3.0248     3.0248    -0.0000
  4 C      5.9916     6.0000     0.0084     4.2272     4.2272    -0.0000
  5 N      7.2815     7.0000    -0.2815     2.8862     2.8862    -0.0000
  6 C      5.5581     6.0000     0.4419     3.9395     3.9395     0.0000
  7 O      8.1259     8.0000    -0.1259     2.0331     2.0331     0.0000
  8 C      5.8643     6.0000     0.1357     4.2351     4.2351     0.0000
  9 O      8.4154     8.0000    -0.4154     2.0566     2.0566    -0.0000
 10 N      6.8498     7.0000     0.1502     3.1233     3.1233     0.0000
 11 C      6.4087     6.0000    -0.4087     3.8007     3.8007    -0.0000
 12 C      6.4251     6.0000    -0.4251     3.8017     3.8017     0.0000
 13 N      6.8321     7.0000     0.1679     3.2473     3.2473     0.0000
 14 C      6.3836     6.0000    -0.3836     3.7908     3.7908     0.0000
 15 C      6.3876     6.0000    -0.3876     3.7831     3.7831    -0.0000
 16 C      6.6286     6.0000    -0.6286     3.8212     3.8212    -0.0000
 17 H      0.8379     1.0000     0.1621     0.9551     0.9551     0.0000
 18 H      0.8467     1.0000     0.1533     0.9586     0.9586    -0.0000
 19 H      0.8163     1.0000     0.1837     0.9556     0.9556    -0.0000
 20 H      0.8540     1.0000     0.1460     0.9576     0.9576    -0.0000
 21 H      0.7967     1.0000     0.2033     0.9535     0.9535    -0.0000
 22 H      0.8496     1.0000     0.1504     0.9580     0.9580     0.0000
 23 H      0.8220     1.0000     0.1780     0.9494     0.9494     0.0000
 24 H      0.8569     1.0000     0.1431     0.9608     0.9608     0.0000
 25 H      0.8210     1.0000     0.1790     0.9540     0.9540     0.0000
 26 H      0.8560     1.0000     0.1440     0.9597     0.9597     0.0000
 27 H      0.8633     1.0000     0.1367     0.9606     0.9606     0.0000
 28 H      0.8011     1.0000     0.1989     0.9566     0.9566     0.0000
 29 H      0.8553     1.0000     0.1447     0.9578     0.9578    -0.0000
 30 H      0.8607     1.0000     0.1393     0.9616     0.9616    -0.0000
 31 H      0.8032     1.0000     0.1968     0.9561     0.9561     0.0000
 32 H      0.8232     1.0000     0.1768     0.9588     0.9588    -0.0000
 33 H      0.8358     1.0000     0.1642     0.9579     0.9579    -0.0000
 34 H      0.8448     1.0000     0.1552     0.9598     0.9598     0.0000

  Mayer bond orders larger than 0.100000
B(  0-C ,  1-C ) :   0.7147 B(  0-C , 17-H ) :   0.9908 B(  0-C , 18-H ) :   0.9752 
B(  0-C , 19-H ) :   0.9919 B(  1-C ,  2-C ) :   1.3457 B(  1-C ,  6-C ) :   1.3820 
B(  2-C ,  3-N ) :   1.3502 B(  2-C , 16-C ) :   0.7752 B(  3-N ,  4-C ) :   1.3458 
B(  4-C ,  5-N ) :   1.3761 B(  4-C , 13-N ) :   1.3290 B(  5-N ,  6-C ) :   1.2523 
B(  6-C ,  7-O ) :   1.0684 B(  7-O ,  8-C ) :   0.9215 B(  8-C ,  9-O ) :   1.9525 
B(  8-C , 10-N ) :   1.2776 B( 10-N , 11-C ) :   0.9150 B( 10-N , 12-C ) :   0.8997 
B( 11-C , 20-H ) :   0.9476 B( 11-C , 21-H ) :   0.9537 B( 11-C , 22-H ) :   0.9632 
B( 12-C , 23-H ) :   0.9513 B( 12-C , 24-H ) :   0.9544 B( 12-C , 25-H ) :   0.9613 
B( 13-N , 14-C ) :   0.9129 B( 13-N , 15-C ) :   0.9060 B( 14-C , 26-H ) :   0.9578 
B( 14-C , 27-H ) :   0.9555 B( 14-C , 28-H ) :   0.9533 B( 15-C , 29-H ) :   0.9595 
B( 15-C , 30-H ) :   0.9531 B( 15-C , 31-H ) :   0.9559 B( 16-C , 32-H ) :   1.0132 
B( 16-C , 33-H ) :   0.9750 B( 16-C , 34-H ) :   0.9675 

-------
TIMINGS
-------

Total SCF time: 0 days 0 hours 1 min 23 sec 

Total time                  ....      83.692 sec
Sum of individual times     ....      81.351 sec  ( 97.2%)

SCF preparation             ....       0.301 sec  (  0.4%)
Fock matrix formation       ....      77.884 sec  ( 93.1%)
  Startup                   ....       0.104 sec  (  0.1% of F)
  Split-RI-J                ....      24.298 sec  ( 31.2% of F)
  XC integration            ....      52.649 sec  ( 67.6% of F)
    XC Preparation          ....       0.000 sec  (  0.0% of XC)
    Basis function eval.    ....       8.920 sec  ( 16.9% of XC)
    Density eval.           ....      18.542 sec  ( 35.2% of XC)
    XC-Functional eval.     ....       3.771 sec  (  7.2% of XC)
    XC-Potential eval.      ....      18.834 sec  ( 35.8% of XC)
Diagonalization             ....       0.000 sec  (  0.0%)
Density matrix formation    ....       0.378 sec  (  0.5%)
Total Energy calculation    ....       0.058 sec  (  0.1%)
Population analysis         ....       0.367 sec  (  0.4%)
Orbital Transformation      ....       0.203 sec  (  0.2%)
Orbital Orthonormalization  ....       0.000 sec  (  0.0%)
DIIS solution               ....       1.997 sec  (  2.4%)
  MO trafo                  ....       0.000 sec  (  0.0 % of DIIS)
  Orb grad                  ....       0.000 sec  (  0.0 % of DIIS)
  Energy W gradient         ....       0.000 sec  (  0.0 % of DIIS)
  DIIS error                ....       0.100 sec  (  5.0 % of DIIS)
  DIIS work                 ....       1.772 sec  ( 88.7 % of DIIS)
  Form Q                    ....       0.000 sec  (  0.0 % of DIIS)
  Form QpQm                 ....       0.000 sec  (  0.0 % of DIIS)
  Exp/Cayley                ....       0.000 sec  (  0.0 % of DIIS)
  Orb update                ....       0.000 sec  (  0.0 % of DIIS)
  Wake-sleep                ....       0.033 sec  (  1.6 % of DIIS)
SOSCF solution              ....       0.162 sec  (  0.2%)
  MO trafo                  ....       0.114 sec  ( 70.2 % of SOSCF)
  Orb grad                  ....       0.001 sec  (  0.6 % of SOSCF)
  Rot update                ....       0.000 sec  (  0.1 % of SOSCF)
  Step                      ....       0.047 sec  ( 29.0 % of SOSCF)
Finished LeanSCF after  83.8 sec

Maximum memory used throughout the entire LEANSCF-calculation: 58.5 MB


-------------------------------------------------------------------------------
                          DFT DISPERSION CORRECTION                            
                                                                               
                                DFTD4 V3.4.0                                   
-------------------------------------------------------------------------------
The R2SCAN3C composite method is recognized
Using three-body term ABC
Active option DFTDOPT                   ...         5   

-------------------------   ----------------
Dispersion correction           -0.014342928
-------------------------   ----------------

------------------   -----------------
gCP correction             0.037696322
------------------   -----------------

-------------------------   --------------------
FINAL SINGLE POINT ENERGY      -799.295063887741
-------------------------   --------------------


------------------------------------------------------------------------------
                              ORCA PROPERTY CALCULATIONS
------------------------------------------------------------------------------

GBWName                                 ... sp_gas.gbw
Number of atoms                         ...     35
Number of basis functions               ...    443
Max core memory                         ...   1024 MB

Electric properties:
Dipole moment                           ... YES
Quadrupole moment                       ...  NO
Static polarizability (Dipole/Dipole)   ...  NO
Static polarizability (Dipole/Quad.)    ...  NO
Static polarizability (Quad./Quad.)     ...  NO
Static polarizability (Velocity)        ...  NO

Atomic electric properties:
Dipole moment                           ...  NO
Quadrupole moment                       ...  NO
Static polarizability                   ...  NO

Choice of electric origin               ... Center of mass
Position of electric origin             ...     0.000021     0.000013    -0.000014

General magnetic properties:
Magnetizability                         ...  NO

EPR properties:
g-Tensor (aka g-matrix)                 ...  NO
Zero-Field splitting spin-orbit         ...  NO
Zero-field splitting spin-spin          ...  NO
Hyperfine couplings                     ...  NO (   0 nuclei)
Quadrupole couplings                    ...  NO (   0 nuclei)
Contact density                         ...  NO (   0 nuclei)

NMR properties:
Chemical shifts                         ...  NO (   0 nuclei)
Spin-rotation constants                 ...  NO (   0 nuclei)
Spin-spin couplings                     ...  NO (   0 nuclei,    0 pairs)

Choice of magnetic origin               ... GIAO
Position of magnetic origin             ...     0.000000     0.000000     0.000000

Properties with geometric perturbations:
SCF Hessian                             ...  NO
IR spectrum                             ...  NO
VCD spectrum                            ...  NO
X-ray spectroscopy properties:
SCF XES/XAS/RIXS spectra                ...  NO


-------------
DIPOLE MOMENT
-------------

Method             : SCF
Type of density    : Electron Density
Multiplicity       :   1
Irrep              :   0
Energy             :  -799.3184172819908326 Eh
Relativity type    : 
Basis              : AO
                                X                 Y                 Z
Electronic contribution:     -4.335777913      -3.698644285       5.851905789
Nuclear contribution   :      4.645601211       4.303044783      -7.368888910
                        -----------------------------------------
Total Dipole Moment    :      0.309823299       0.604400498      -1.516983121
                        -----------------------------------------
Magnitude (a.u.)       :      1.662085505
Magnitude (Debye)      :      4.224685614



--------------------
Rotational spectrum 
--------------------
 
Rotational constants in cm-1:             0.020044             0.013144             0.008964 
Rotational constants in MHz :           600.899318           394.057730           268.747439 

Dipole components along the rotational axes: 
x,y,z [a.u.] :     0.189463     0.745330    -1.473470 
x,y,z [Debye]:     0.481576     1.894479    -3.745264 

 

Dipole moment calculation done in   0.0 sec 

Maximum memory used throughout the entire PROP-calculation: 39.5 MB

--------------------------------
SUGGESTED CITATIONS FOR THIS RUN
--------------------------------

Below you find a list of papers that are relevant to this ORCA run
We neither can nor want to force you to cite these papers, but we appreciate if you do
You receive ORCA, which is the product of decades of hard work by many enthusiastic individuals, for free
The only thing we kindly ask in return is that you cite our papers,
We deeply appreciate it, if you show your appreciation for ORCA by not just citing the generic ORCA reference.

Please note that relegating all ORCA citations to the supporting information does *not* help us.
SI sections are not indexed - citations you put there will not count into any citation statistics
But we need these citations in order to attract the funding resources that allow us to do what we are doing

Therefore, if you are a happy ORCA user, please consider citing a few of the papers listed below in the main body of your paper

In addition to the list printed below, the program has created the file sp_gas.bibtex that contains the list in bibtex format
You can import this file easily into all common literature databanks and citation aid programs


List of essential papers. We consider these as the minimum necessary citations

  1. Neese,F.
     Software update: the ORCA program system, version 5.0
     WIRES Comput. Molec. Sci., 2022 12(1)e1606
     doi.org/10.1002/wcms.1606
  2. Grimme,S.; Hansen,A.; Ehlert,S.; Mewes,J.
     r2SCAN-3c: A 'Swiss army knife' composite electronic-structure method
     J. Chem. Phys., 2021 154 064103
     doi.org/10.1063/5.0040021

List of papers to cite with high priority. The work reported in these papers was absolutely
necessary for this run to complete.
Our perspective: the developers of density functionals and basis sets usually get cited in chemistry papers
Good! But without the algorithms to do something with them, the functionals or basis sets would not do anything.
Hence, in our opinion, the algorithm design and method developments papers are equally worthy of getting cited

  1. Neese,F.
     An improvement of the resolution of the identity approximation for the formation of the Coulomb matrix
     J. Comp. Chem., 2003 24(14)1740-1747
     doi.org/10.1002/jcc.10318
  2. Neese,F.
     The SHARK Integral Generation and Digestion System
     J. Comp. Chem., 2022  1-16
     doi.org/10.1002/jcc.26942
  3. Lehtola,S.; Steigemann,C.; Oliveira,M.; Marques,M.
     Recent developments in Libxc - A comprehensive library of functionals for density functional theory
     Software X, 2018 7 
     doi.org/10.1016/j.softx.2017.11.002
  4. Caldeweyher,E.; Bannwarth,C.; Grimme,S.
     Extension of the D3 dispersion coefficient model
     J. Chem. Phys., 2017 147 034112-XXXX
     doi.org/10.1063/1.4993215
  5. Caldeweyher,E.; Ehlert,S.; Hansen,A.; Neugebauer,H.; Spicher,S.; Bannwarth,C.; Grimme,S.
     A generally applicable atomic-charge dependent London dispersion correction
     J. Chem. Phys., 2019 150 154122-XXXX
     doi.org/10.1063/1.5090222
  6. Caldeweyher,E.; Mewes,J.; Ehlert,S.; Grimme,S.
     Extension and evaluation of the D4 London-dispersion model for periodic systems
     Phys. Chem. Chem. Phys., 2020 22(16)8499-8512
     doi.org/10.1039/D0CP00502A

List of suggested additional citations. These are papers that are important in the 'surrounding' of 
of this run, or papers that preceded the highly important papers. If you like your results we are grateful for a citation.

  1. Neese,F.
     The ORCA program system
     WIRES Comput. Molec. Sci., 2012 2(1)73-78
     doi.org/10.1002/wcms.81
  2. Neese,F.
     Software update: the ORCA program system, version 4.0
     WIRES Comput. Molec. Sci., 2018 8(1)1-6
     doi.org/10.1002/wcms.1327
  3. Neese,F.; Wennmohs,F.; Becker,U.; Riplinger,C.
     The ORCA quantum chemistry program package
     J. Chem. Phys., 2020 152 Art. No. L224108
     doi.org/10.1063/5.0004608

List of optional additional citations

  1. Neese,F.
     Approximate second-order SCF convergence for spin unrestricted wavefunctions
     Chem. Phys. Lett., 2000 325(1-3)93-98
     doi.org/10.1016/s0009-2614(00)00662-x

Timings for individual modules:

Sum of individual times          ...       87.772 sec (=   1.463 min)
Startup calculation              ...        3.033 sec (=   0.051 min)   3.5 %
SCF iterations                   ...       84.554 sec (=   1.409 min)  96.3 %
Property calculations            ...        0.185 sec (=   0.003 min)   0.2 %
                             ****ORCA TERMINATED NORMALLY****
TOTAL RUN TIME: 0 days 0 hours 1 minutes 28 seconds 810 msec
