
                                 *****************
                                 * O   R   C   A *
                                 *****************

                                            #,                                       
                                            ###                                      
                                            ####                                     
                                            #####                                    
                                            ######                                   
                                           ########,                                 
                                     ,,################,,,,,                         
                               ,,#################################,,                 
                          ,,##########################################,,             
                       ,#########################################, ''#####,          
                    ,#############################################,,   '####,        
                  ,##################################################,,,,####,       
                ,###########''''           ''''###############################       
              ,#####''   ,,,,##########,,,,          '''####'''          '####       
            ,##' ,,,,###########################,,,                        '##       
           ' ,,###''''                  '''############,,,                           
         ,,##''                                '''############,,,,        ,,,,,,###''
      ,#''                                            '''#######################'''  
     '                                                          ''''####''''         
             ,#######,   #######,   ,#######,      ##                                
            ,#'     '#,  ##    ##  ,#'     '#,    #''#        ,####,   ,####,        
            ##       ##  ##   ,#'  ##            #'  '#       #'       #'  '#        
            ##       ##  #######   ##           ,######,      #####,   #    #        
            '#,     ,#'  ##    ##  '#,     ,#' ,#      #,     #,   #   #,  ,#        
             '#######'   ##     ##  '#######'  #'      '#     '####' # '####'        



                #########################################################
                #                        -***-                          #
                #          Department of theory and spectroscopy        #
                #                                                       #
                #                      Frank Neese                      #
                #                                                       #
                #     Directorship, Architecture, Infrastructure        #
                #                    SHARK, DRIVERS                     #
                #        Core code/Algorithms in most modules           #
                #                                                       #
                #        Max Planck Institute fuer Kohlenforschung      #
                #                Kaiser Wilhelm Platz 1                 #
                #                 D-45470 Muelheim/Ruhr                 #
                #                      Germany                          #
                #                                                       #
                #                  All rights reserved                  #
                #                        -***-                          #
                #########################################################


                         Program Version 6.0.0  -   RELEASE  -


 With contributions from (in alphabetic order):
   Daniel Aravena         : Magnetic Suceptibility
   Michael Atanasov       : Ab Initio Ligand Field Theory (pilot matlab implementation)
   Alexander A. Auer      : GIAO ZORA, VPT2 properties, NMR spectrum
   Ute Becker             : All parallelization in ORCA, NUMFREQ, NUMCALC
   Giovanni Bistoni       : ED, misc. LED, open-shell LED, HFLD
   Martin Brehm           : Molecular dynamics
   Dmytro Bykov           : pre 5.0 version of the SCF Hessian
   Marcos Casanova-Páez   : Triplet and SCS-CIS(D). UHF-(DLPNO)-IP/EA/STEOM-CCSD. UHF-CVS-IP/STEOM-CCSD
   Vijay G. Chilkuri      : MRCI spin determinant printing, contributions to CSF-ICE
   Pauline Colinet        : FMM embedding
   Dipayan Datta          : RHF DLPNO-CCSD density
   Achintya Kumar Dutta   : EOM-CC, STEOM-CC
   Nicolas Foglia         : Exact transition moments, OPA infrastructure, MCD improvements
   Dmitry Ganyushin       : Spin-Orbit,Spin-Spin,Magnetic field MRCI
   Miquel Garcia          : C-PCM and meta-GGA Hessian, CCSD/C-PCM, Gaussian charge scheme
   Tiago L. C. Gouveia    : GS-ROHF, GS-ROCIS
   Yang Guo               : DLPNO-NEVPT2, F12-NEVPT2, CIM, IAO-localization
   Andreas Hansen         : Spin unrestricted coupled pair/coupled cluster methods
   Ingolf Harden          : AUTO-CI MPn and infrastructure 
   Benjamin Helmich-Paris : MC-RPA, TRAH-(SCF,CASSCF), AVAS, COSX integrals, SCF dyn. polar.
   Lee Huntington         : MR-EOM, pCC
   Robert Izsak           : Overlap fitted RIJCOSX, COSX-SCS-MP3, EOM
   Riya Kayal             : Wick's Theorem for AUTO-CI, AUTO-CI UHF-CCSDT
   Emily Kempfer          : AUTO-CI, RHF CISDT and CCSDT
   Christian Kollmar      : KDIIS, OOCD, Brueckner-CCSD(T), CCSD density, CASPT2, CASPT2-K, improved NEVPT2
   Axel Koslowski         : Symmetry handling
   Simone Kossmann        : Meta GGA functionals, TD-DFT gradient, OOMP2, (MP2 Hessian; deprecated post 5.0)
   Lucas Lang             : DCDCAS
   Marvin Lechner         : AUTO-CI (C++ implementation), FIC-MRCC
   Spencer Leger          : CASSCF response
   Dagmar Lenk            : GEPOL surface, SMD, ORCA-2-JSON
   Dimitrios Liakos       : Extrapolation schemes; Compound Job, initial MDCI parallelization
   Dimitrios Manganas     : Further ROCIS development; embedding schemes. LFT, Crystal Embedding
   Dimitrios Pantazis     : SARC Basis sets
   Anastasios Papadopoulos: AUTO-CI, single reference methods and gradients
   Taras Petrenko         : pre 6.0 DFT Hessian and TD-DFT gradient, (ASA, deprecated), ECA, 1-Electron XAS/XES, NRVS
   Peter Pinski           : DLPNO-MP2, DLPNO-MP2 Gradient
   Christoph Reimann      : Effective Core Potentials
   Marius Retegan         : Local ZFS, SOC
   Christoph Riplinger    : Optimizer, TS searches, QM/MM, DLPNO-CCSD(T), (RO)-DLPNO pert. Triples
   Michael Roemelt        : Original ROCIS implementation
   Masaaki Saitow         : Open-shell DLPNO-CCSD energy and density
   Barbara Sandhoefer     : DKH picture change effects
   Kantharuban Sivalingam : CASSCF convergence/infrastructure, NEVPT2 and variants, FIC-MRCI
   Bernardo de Souza      : ESD, SOC TD-DFT
   Georgi Stoychev        : AutoAux, RI-MP2 NMR, DLPNO-MP2 response, X2C
   Van Anh Tran           : RI-MP2 g-tensors
   Willem Van den Heuvel  : Paramagnetic NMR
   Zikuan Wang            : NOTCH, Electric field optimization 
   Frank Wennmohs         : Technical directorship and infrastructure
   Hang Xu                : AUTO-CI-Response properties 


 We gratefully acknowledge several colleagues who have allowed us to
 interface, adapt or use parts of their codes:
   Stefan Grimme, W. Hujo, H. Kruse, P. Pracht,  : VdW corrections, initial TS optimization,
                  C. Bannwarth, S. Ehlert,         DFT functionals, gCP, sTDA/sTD-DF
                  L. Wittmann, M. Mueller
   Ed Valeev, F. Pavosevic, A. Kumar             : LibInt (2-el integral package), F12 methods
   Garnet Chan, S. Sharma, J. Yang, R. Olivares  : DMRG
   Ulf Ekstrom                                   : XCFun DFT Library
   Mihaly Kallay                                 : mrcc  (arbitrary order and MRCC methods)
   Frank Weinhold                                : gennbo (NPA and NBO analysis)
   Simon Mueller                                 : openCOSMO-RS
   Christopher J. Cramer and Donald G. Truhlar   : smd solvation model
   Lars Goerigk                                  : TD-DFT with DH, B97 family of functionals
   V. Asgeirsson, H. Jonsson                     : NEB implementation
   FAccTs GmbH                                   : IRC, NEB, NEB-TS, DLPNO-Multilevel, CI-OPT
                                                   MM, QMMM, 2- and 3-layer-ONIOM, Crystal-QMMM,
                                                   LR-CPCM, SF, NACMEs, symmetry and pop. for TD-DFT,
                                                   nearIR, NL-DFT gradient (VV10), updates on ESD,
                                                   ML-optimized integration grids, MBIS, APM,
                                                   GOAT, DOCKER, SOLVATOR, interface openCOSMO-RS
   S Lehtola, MJT Oliveira, MAL Marques          : LibXC Library
   Liviu Ungur et al                             : ANISO software


 Your calculation uses the libint2 library for the computation of 2-el integrals
 For citations please refer to: http://libint.valeyev.net

 Your ORCA version has been built with support for libXC version: 6.2.2
 For citations please refer to: https://libxc.gitlab.io

 This ORCA versions uses:
   CBLAS   interface :  Fast vector & matrix operations
   LAPACKE interface :  Fast linear algebra routines
   SCALAPACK package :  Parallel linear algebra routines
   Shared memory     :  Shared parallel matrices
   BLAS/LAPACK       :  OpenBLAS 0.3.27  USE64BITINT DYNAMIC_ARCH NO_AFFINITY SkylakeX SINGLE_THREADED
        Core in use  :  SkylakeX
   Copyright (c) 2011-2014, The OpenBLAS Project


Your calculation utilizes the geometrical counterpoise correction gCP
Please cite in your paper:
H.Kruse, S. Grimme J.Chem.Phys., 136, (2012), 154101 
   

Your calculation utilizes the atom-pairwise dispersion correction
based on EEQ partial charges (D4)


================================================================================

----- Orbital basis set information -----
Your calculation utilizes the basis: def2-mTZVPP
   Stefan Grimme, Andreas Hansen, Sebastian Ehlert, and Jan-Michael Mewes 
   J. Chem. Phys. 154, 064103 (2021). DOI: 10.1063/5.0040021

----- AuxJ basis set information -----
Your calculation utilizes the auxiliary basis: def2/J
   F. Weigend, Phys. Chem. Chem. Phys. 8, 1057 (2006).

================================================================================
                                        WARNINGS
                       Please study these warnings very carefully!
================================================================================

Using LibXC functional ID 497 : Re-regularized SCAN exchange by Furness et al
[ 1]  J. W. Furness, A. D. Kaplan, J. Ning, J. P. Perdew, and J. Sun.,  J. Phys. Chem. Lett. 11, 8208-8215 (2020)
[ 2]  J. W. Furness, A. D. Kaplan, J. Ning, J. P. Perdew, and J. Sun.,  J. Phys. Chem. Lett. 11, 9248-9248 (2020)
Using LibXC functional ID 498 : Re-regularized SCAN correlation by Furness et al
[ 1]  J. W. Furness, A. D. Kaplan, J. Ning, J. P. Perdew, and J. Sun.,  J. Phys. Chem. Lett. 11, 8208-8215 (2020)
[ 2]  J. W. Furness, A. D. Kaplan, J. Ning, J. P. Perdew, and J. Sun.,  J. Phys. Chem. Lett. 11, 9248-9248 (2020)
Using LibXC functional ID 497 : Re-regularized SCAN exchange by Furness et al
[ 1]  J. W. Furness, A. D. Kaplan, J. Ning, J. P. Perdew, and J. Sun.,  J. Phys. Chem. Lett. 11, 8208-8215 (2020)
[ 2]  J. W. Furness, A. D. Kaplan, J. Ning, J. P. Perdew, and J. Sun.,  J. Phys. Chem. Lett. 11, 9248-9248 (2020)
Using LibXC functional ID 498 : Re-regularized SCAN correlation by Furness et al
[ 1]  J. W. Furness, A. D. Kaplan, J. Ning, J. P. Perdew, and J. Sun.,  J. Phys. Chem. Lett. 11, 8208-8215 (2020)
[ 2]  J. W. Furness, A. D. Kaplan, J. Ning, J. P. Perdew, and J. Sun.,  J. Phys. Chem. Lett. 11, 9248-9248 (2020)

================================================================================
                                       INPUT FILE
================================================================================
NAME = sp_gas.inp
|  1> ! r2scan-3c def2/J RI DEFGRID2 scfconv6 printgap
|  2> %output
|  3>     printlevel normal
|  4> end
|  5> * xyz 0 1
|  6> C 2.5278158265 0.7446428299 0.3221119991
|  7> C 1.2626050439 -0.1051428587 0.24506965
|  8> C 1.402023439 -1.1816595175 -0.8289610914
|  9> C 0.0485186786 0.7825988988 -0.0465347692
| 10> C -1.2601435627 0.0635619904 0.1285353244
| 11> O -1.4513806109 -0.8867376787 0.857221424
| 12> O -2.2280498506 0.6026239317 -0.6003592752
| 13> H 2.4479681023 1.4865331721 1.1125632594
| 14> H 2.6946714679 1.258896888 -0.6213513616
| 15> H 3.3901336684 0.1162620003 0.5280423011
| 16> H 1.0962075783 -0.59632804 1.2097386574
| 17> H 2.2568816812 -1.8186970237 -0.6176637361
| 18> H 0.5113718118 -1.8056828898 -0.8576147782
| 19> H 1.5426597616 -0.7277094907 -1.8074744677
| 20> H 0.0865737664 1.1878881234 -1.0582470597
| 21> H 0.0315077644 1.6256351682 0.6493241134
| 22> H -3.0895684099 0.1604819354 -0.4723462471
| 23> *
| 24> 
| 25>                          ****END OF INPUT****
================================================================================

                       ****************************
                       * Single Point Calculation *
                       ****************************

---------------------------------
CARTESIAN COORDINATES (ANGSTROEM)
---------------------------------
  C      2.527816    0.744643    0.322112
  C      1.262605   -0.105143    0.245070
  C      1.402023   -1.181660   -0.828961
  C      0.048519    0.782599   -0.046535
  C     -1.260144    0.063562    0.128535
  O     -1.451381   -0.886738    0.857221
  O     -2.228050    0.602624   -0.600359
  H      2.447968    1.486533    1.112563
  H      2.694671    1.258897   -0.621351
  H      3.390134    0.116262    0.528042
  H      1.096208   -0.596328    1.209739
  H      2.256882   -1.818697   -0.617664
  H      0.511372   -1.805683   -0.857615
  H      1.542660   -0.727709   -1.807474
  H      0.086574    1.187888   -1.058247
  H      0.031508    1.625635    0.649324
  H     -3.089568    0.160482   -0.472346

----------------------------
CARTESIAN COORDINATES (A.U.)
----------------------------
  NO LB      ZA    FRAG     MASS         X           Y           Z
   0 C     6.0000    0    12.011    4.776880    1.407171    0.608703
   1 C     6.0000    0    12.011    2.385978   -0.198691    0.463115
   2 C     6.0000    0    12.011    2.649440   -2.233013   -1.566509
   3 C     6.0000    0    12.011    0.091687    1.478898   -0.087938
   4 C     6.0000    0    12.011   -2.381326    0.120115    0.242897
   5 O     8.0000    0    15.999   -2.742712   -1.675691    1.619914
   6 O     8.0000    0    15.999   -4.210404    1.138794   -1.134515
   7 H     1.0000    0     1.008    4.625989    2.809141    2.102440
   8 H     1.0000    0     1.008    5.092191    2.378970   -1.174184
   9 H     1.0000    0     1.008    6.406424    0.219703    0.997855
  10 H     1.0000    0     1.008    2.071532   -1.126897    2.286075
  11 H     1.0000    0     1.008    4.264888   -3.436839   -1.167215
  12 H     1.0000    0     1.008    0.966353   -3.412246   -1.620657
  13 H     1.0000    0     1.008    2.915204   -1.375172   -3.415632
  14 H     1.0000    0     1.008    0.163601    2.244783   -1.999797
  15 H     1.0000    0     1.008    0.059541    3.072005    1.227045
  16 H     1.0000    0     1.008   -5.838438    0.303267   -0.892605

--------------------------------
INTERNAL COORDINATES (ANGSTROEM)
--------------------------------
 C      0   0   0     0.000000000000     0.00000000     0.00000000
 C      1   0   0     1.526050315197     0.00000000     0.00000000
 C      2   1   0     1.527045395212   110.63276085     0.00000000
 C      2   1   3     1.532032724100   110.11796891   237.80714517
 C      4   2   1     1.503416268077   112.98633595   191.25500537
 O      5   4   2     1.212693078007   125.59304220    26.36015179
 O      5   4   2     1.326166541593   112.14159216   205.23155682
 H      1   2   3     1.087009721125   110.84653163   182.27388113
 H      1   2   3     1.087391904661   110.28956429    61.92959267
 H      1   2   3     1.086674660029   110.21013063   302.24306556
 H      2   1   3     1.095233898638   109.34336736   119.43265254
 H      3   2   1     1.086851402410   110.38193581    58.50872876
 H      3   2   1     1.087881668187   110.37460489   178.11328202
 H      3   2   1     1.087813232896   110.50487614   298.44971602
 H      4   2   1     1.090536246089   111.36304472    68.93275436
 H      4   2   1     1.093260768170   109.75564006   309.73387806
 H      7   5   4     0.976775874126   112.81171793   181.82476689

---------------------------
INTERNAL COORDINATES (A.U.)
---------------------------
 C      0   0   0     0.000000000000     0.00000000     0.00000000
 C      1   0   0     2.883817162306     0.00000000     0.00000000
 C      2   1   0     2.885697591016   110.63276085     0.00000000
 C      2   1   3     2.895122276754   110.11796891   237.80714517
 C      4   2   1     2.841045011948   112.98633595   191.25500537
 O      5   4   2     2.291657801935   125.59304220    26.36015179
 O      5   4   2     2.506091571580   112.14159216   205.23155682
 H      1   2   3     2.054150677836   110.84653163   182.27388113
 H      1   2   3     2.054872900053   110.28956429    61.92959267
 H      1   2   3     2.053517504127   110.21013063   302.24306556
 H      2   1   3     2.069692121012   109.34336736   119.43265254
 H      3   2   1     2.053851498822   110.38193581    58.50872876
 H      3   2   1     2.055798418987   110.37460489   178.11328202
 H      3   2   1     2.055669095029   110.50487614   298.44971602
 H      4   2   1     2.060814844222   111.36304472    68.93275436
 H      4   2   1     2.065963444801   109.75564006   309.73387806
 H      7   5   4     1.845838896319   112.81171793   181.82476689

---------------------
BASIS SET INFORMATION
---------------------
There are 3 groups of distinct atoms

 Group   1 Type C   : 11s6p1d contracted to 5s3p1d pattern {62111/411/1}
 Group   2 Type O   : 11s6p2d contracted to 5s3p2d pattern {62111/411/11}
 Group   3 Type H   : 4s1p contracted to 2s1p pattern {31/1}

Atom   0C    basis set group =>   1
Atom   1C    basis set group =>   1
Atom   2C    basis set group =>   1
Atom   3C    basis set group =>   1
Atom   4C    basis set group =>   1
Atom   5O    basis set group =>   2
Atom   6O    basis set group =>   2
Atom   7H    basis set group =>   3
Atom   8H    basis set group =>   3
Atom   9H    basis set group =>   3
Atom  10H    basis set group =>   3
Atom  11H    basis set group =>   3
Atom  12H    basis set group =>   3
Atom  13H    basis set group =>   3
Atom  14H    basis set group =>   3
Atom  15H    basis set group =>   3
Atom  16H    basis set group =>   3
---------------------------------
AUXILIARY/J BASIS SET INFORMATION
---------------------------------
There are 3 groups of distinct atoms

 Group   1 Type C   : 12s5p4d2f1g contracted to 6s4p3d1f1g pattern {711111/2111/211/2/1}
 Group   2 Type O   : 12s5p4d2f1g contracted to 6s4p3d1f1g pattern {711111/2111/211/2/1}
 Group   3 Type H   : 5s2p1d contracted to 3s1p1d pattern {311/2/1}

Atom   0C    basis set group =>   1
Atom   1C    basis set group =>   1
Atom   2C    basis set group =>   1
Atom   3C    basis set group =>   1
Atom   4C    basis set group =>   1
Atom   5O    basis set group =>   2
Atom   6O    basis set group =>   2
Atom   7H    basis set group =>   3
Atom   8H    basis set group =>   3
Atom   9H    basis set group =>   3
Atom  10H    basis set group =>   3
Atom  11H    basis set group =>   3
Atom  12H    basis set group =>   3
Atom  13H    basis set group =>   3
Atom  14H    basis set group =>   3
Atom  15H    basis set group =>   3
Atom  16H    basis set group =>   3

Checking for AutoStart:
The File: sp_gas.gbw exists
Trying to determine its content:
     ... Fine, the file contains calculation information
     ... Fine, the calculation information was read
     ... Fine, the file contains a basis set
     ... Fine, the basis set was read
     ... Fine, the file contains a geometry
     ... Fine, the geometry was read
     ... Fine, the file contains a set of orbitals
     ... Fine, the orbitals can be read
     => possible old guess file was deleted
     => GBW file was renamed to GES file
     => GES file is set as startup file
     => Guess is set to MORead
     ... now leaving AutoStart

------------------------------------------------------------------------------
                             ORCA STARTUP CALCULATIONS
                           -- RI-GTO INTEGRALS CHOSEN --
------------------------------------------------------------------------------
------------------------------------------------------------------------------
                   ___                                                        
                  /   \      - P O W E R E D   B Y -                         
                 /     \                                                     
                 |  |  |   _    _      __       _____    __    __             
                 |  |  |  | |  | |    /  \     |  _  \  |  |  /  |          
                  \  \/   | |  | |   /    \    | | | |  |  | /  /          
                 / \  \   | |__| |  /  /\  \   | |_| |  |  |/  /          
                |  |  |   |  __  | /  /__\  \  |    /   |      \           
                |  |  |   | |  | | |   __   |  |    \   |  |\   \          
                \     /   | |  | | |  |  |  |  | |\  \  |  | \   \       
                 \___/    |_|  |_| |__|  |__|  |_| \__\ |__|  \__/        
                                                                              
                      - O R C A' S   B I G   F R I E N D -                    
                                      &                                       
                       - I N T E G R A L  F E E D E R -                       
                                                                              
 v1 FN, 2020, v2 2021, v3 2022-2024                                           
------------------------------------------------------------------------------


----------------------
SHARK INTEGRAL PACKAGE
----------------------

Number of atoms                             ...     17
Number of basis functions                   ...    193
Number of shells                            ...     95
Maximum angular momentum                    ...      2
Integral batch strategy                     ... SHARK/LIBINT Hybrid
RI-J (if used) integral strategy            ... SPLIT-RIJ (Revised 2003 algorithm where possible)
Printlevel                                  ...      1
Contraction scheme used                     ... SEGMENTED contraction
Prescreening option                         ... SCHWARTZ
   Thresh                                   ... 1.000e-10
   Tcut                                     ... 1.000e-11
   Tpresel                                  ... 1.000e-11 
Coulomb Range Separation                    ... NOT USED
Exchange Range Separation                   ... NOT USED
Multipole approximations                    ... NOT USED
Finite Nucleus Model                        ... NOT USED
CABS basis                                  ... NOT available
Auxiliary Coulomb fitting basis             ... AVAILABLE
   # of basis functions in Aux-J            ...    453
   # of shells in Aux-J                     ...    155
   Maximum angular momentum in Aux-J        ...      4
Auxiliary J/K fitting basis                 ... NOT available
Auxiliary Correlation fitting basis         ... NOT available
Auxiliary 'external' fitting basis          ... NOT available

Checking pre-screening integrals            ... done (  0.0 sec) Dimension = 95
Check shell pair data                       ... done (  0.0 sec)
Shell pair information
Shell pair cut-off parameter TPreSel        ...   1.0e-11
Total number of shell pairs                 ...      4560
Shell pairs after pre-screening             ...      4171
Total number of primitive shell pairs       ...     16115
Primitive shell pairs kept                  ...     10732
          la=0 lb=0:   1385 shell pairs
          la=1 lb=0:   1562 shell pairs
          la=1 lb=1:    462 shell pairs
          la=2 lb=0:    460 shell pairs
          la=2 lb=1:    259 shell pairs
          la=2 lb=2:     43 shell pairs

Calculating one electron integrals          ... done (  0.0 sec)
Calculating RI/J V-Matrix + Cholesky decomp.... done (  0.1 sec)
Calculating Nuclear repulsion               ... done (  0.0 sec) ENN=    317.042530269103 Eh

Diagonalization of the overlap matrix:
Smallest eigenvalue                        ... 1.440e-04
Time for diagonalization                   ...    0.004 sec
Threshold for overlap eigenvalues          ... 1.000e-07
Number of eigenvalues below threshold      ... 0
Time for construction of square roots      ...    0.015 sec
Total time needed                          ...    0.028 sec

-------------------
DFT GRID GENERATION
-------------------

General Integration Accuracy     IntAcc      ... 4.388
Radial Grid Type                 RadialGrid  ... OptM3 with GC (2021)
Angular Grid (max. ang.)         AngularGrid ... 4 (Lebedev-302)
Angular grid pruning method      GridPruning ... 4 (adaptive)
Weight generation scheme         WeightScheme... mBecke (2022)
Basis function cutoff            BFCut       ... 1.0000e-10
Integration weight cutoff        WCut        ... 1.0000e-14
Partially contracted basis set               ... off
Rotationally invariant grid construction     ... off
Angular grids for H and He will be reduced by one unit
Diffuse basis detected: some atoms will have their outermost
                        angular grid increased by 1.

Total number of grid points                  ...    74901
Total number of batches                      ...     1177
Average number of points per batch           ...       63
Average number of grid points per atom       ...     4406
Initializing property integral containers    ... done (  0.0 sec)

SHARK setup successfully completed in   1.0 seconds

Maximum memory used throughout the entire STARTUP-calculation: 33.8 MB
-------------------------------------------------------------------------------
                                 ORCA GUESS
                   Start orbitals & Density for SCF / CASSCF
-------------------------------------------------------------------------------

------------
SCF SETTINGS
------------
Hamiltonian:
 Density Functional     Method          .... DFT(GTOs)
  Functional kind                       .... Exchange
  Functional name                       .... Re-regularized SCAN exchange by Furness et al
  Functional family                     .... MGGA
  Functional refs                              
    [ 0] J. W. Furness, A. D. Kaplan, J. Ning, J. P. Perdew, and J. Sun.,  J. Phys. Chem. Lett. 11, 8208-8215 (2020), doi: 10.1021/acs.jpclett.0c02405
    [ 1] J. W. Furness, A. D. Kaplan, J. Ning, J. P. Perdew, and J. Sun.,  J. Phys. Chem. Lett. 11, 9248-9248 (2020), doi: 10.1021/acs.jpclett.0c03077
  Functional external parameters        .... 6
    Parameter  0 _c1        =  6.670000e-01 : c1 parameter        
    Parameter  1 _c2        =  8.000000e-01 : c2 parameter        
    Parameter  2 _d         =  1.240000e+00 : d parameter         
    Parameter  3 _k1        =  6.500000e-02 : k1 parameter        
    Parameter  4 _eta       =  1.000000e-03 : eta parameter       
    Parameter  5 _dp2       =  3.610000e-01 : dp2 parameter       
  Functional kind                       .... Correlation
  Functional name                       .... Re-regularized SCAN correlation by Furness et al
  Functional family                     .... MGGA
  Functional refs                              
    [ 0] J. W. Furness, A. D. Kaplan, J. Ning, J. P. Perdew, and J. Sun.,  J. Phys. Chem. Lett. 11, 8208-8215 (2020), doi: 10.1021/acs.jpclett.0c02405
    [ 1] J. W. Furness, A. D. Kaplan, J. Ning, J. P. Perdew, and J. Sun.,  J. Phys. Chem. Lett. 11, 9248-9248 (2020), doi: 10.1021/acs.jpclett.0c03077
  Functional external parameters        .... 1
    Parameter  0 _eta       =  1.000000e-03 : Regularization parameter
 Gradients option       PostSCFGGA      .... off
 RI-approximation to the Coulomb term is turned on
   Number of AuxJ basis functions       .... 453


General Settings:
 Integral files         IntName         .... sp_gas
 Hartree-Fock type      HFTyp           .... RHF
 Total Charge           Charge          ....    0
 Multiplicity           Mult            ....    1
 Number of Electrons    NEL             ....   56
 Basis Dimension        Dim             ....  193
 Nuclear Repulsion      ENuc            ....    317.0425302691 Eh

Convergence Acceleration:
 AO-DIIS                CNVDIIS         .... on
   Start iteration      DIISMaxIt       ....    12
   Startup error        DIISStart       ....  0.200000
   # of expansion vecs  DIISMaxEq       ....     5
   Bias factor          DIISBfac        ....   1.050
   Max. coefficient     DIISMaxC        ....  10.000
 MO-DIIS                CNVKDIIS        .... off
 Trust-Rad. Augm. Hess. CNVTRAH         .... auto
   Auto Start mean grad. ratio tolernc. ....  1.125000
   Auto Start start iteration           ....     1
   Auto Start num. interpolation iter.  ....    10
   Max. Number of Micro iterations      ....    24
   Max. Number of Macro iterations      .... Maxiter - #DIIS iter
   Number of Davidson start vectors     ....     2
   Converg. threshold    (grad. norm)   ....   3.330e-04
   Grad. Scal. Fac. for Micro threshold ....   0.100
   Minimum threshold for Micro iter.    ....   1.000e-02
   NR start threshold (gradient norm)   ....   1.000e-04
   Initial trust radius                 ....   0.400
   Minimum AH scaling param. (alpha)    ....   1.000
   Maximum AH scaling param. (alpha)    .... 1000.000
   Quad. conv. algorithm                .... NR
   White noise on init. David. guess    .... on
   Maximum white noise                  ....   0.010
   Pseudo random numbers                .... off
   Inactive MOs                         .... canonical
   Orbital update algorithm             .... Taylor
   Preconditioner                       .... Diag
   Full preconditioner red. dimension   ....   250
   COSX micro iterations for RIJONX calc.... off
 SOSCF                  CNVSOSCF        .... on
   Start iteration      SOSCFMaxIt      ....   150
   Startup grad/error   SOSCFStart      ....  0.003300
   Hessian update       SOSCFHessUp     .... L-BFGS
 Level Shifting         CNVShift        .... on
   Level shift para.    LevelShift      ....    0.2500
   Turn off err/grad.   ShiftErr        ....    0.0010
 Zerner damping         CNVZerner       .... off
 Static damping         CNVDamp         .... on
   Fraction old density DampFac         ....    0.7000
   Max. Damping (<1)    DampMax         ....    0.9800
   Min. Damping (>=0)   DampMin         ....    0.0000
   Turn off err/grad.   DampErr         ....    0.1000

SCF Procedure:
 Maximum # iterations   MaxIter         ....   125
 SCF integral mode      SCFMode         .... Direct
   Integral package                     .... SHARK and LIBINT hybrid scheme
 Reset frequency        DirectResetFreq ....    20
 Integral Threshold     Thresh          ....  1.000e-10 Eh
 Primitive CutOff       TCut            ....  1.000e-11 Eh

Convergence Tolerance:
 Convergence Check Mode ConvCheckMode   .... Total+1el-Energy
 Convergence forced     ConvForced      .... 0
 Energy Change          TolE            ....  1.000e-06 Eh
 1-El. energy change                    ....  1.000e-03 Eh
 Orbital Gradient       TolG            ....  3.330e-04
 Orbital Rotation angle TolX            ....  3.330e-04
 DIIS Error             TolErr          ....  1.000e-06

---------------------
INITIAL GUESS: MOREAD
---------------------
Guess MOs are being read from file: sp_gas.ges
Input Geometry matches current geometry (good)
Atom 0: N(Shells)= 9 and 6 - projection required
Input basis set needs projection
NBasis(read)= 118
NBasis(calc)= 193
Basis set overlap was calculated
Using GuessMode=FMatrix for the initial guess
C*T matrix was formed
Effective Fockian was calculated
Effective Fockian was diagonalized
Initial density was built
                      ------------------
                      INITIAL GUESS DONE (   0.0 sec)
                      ------------------
             **** ENERGY FILE WAS UPDATED (sp_gas.en.tmp) ****
Finished Guess after   0.3 sec
Maximum memory used throughout the entire GUESS-calculation: 13.1 MB

-------------------------------------------------------------------------------------------
                                      ORCA LEAN-SCF
                              memory conserving SCF solver
-------------------------------------------------------------------------------------------

----------------------------------------D-I-I-S--------------------------------------------
Iteration    Energy (Eh)           Delta-E    RMSDP     MaxDP     DIISErr   Damp  Time(sec)
-------------------------------------------------------------------------------------------
               ***  Starting incremental Fock matrix formation  ***
    1    -346.7721311772707509     0.00e+00  4.23e-03  1.31e-01  6.25e-01  0.700   2.4
    2    -346.8265012008008057    -5.44e-02  3.39e-03  9.07e-02  4.39e-01  0.700   2.1
    3    -346.8649640943221470    -3.85e-02  2.47e-03  6.48e-02  3.08e-01  0.700   2.0
    4    -346.8919791006251785    -2.70e-02  1.76e-03  4.63e-02  2.16e-01  0.700   2.0
                               ***Turning on AO-DIIS***
    5    -346.9109357109564939    -1.90e-02  1.27e-03  3.32e-02  1.51e-01  0.700   2.0
    6    -346.9242272405795688    -1.33e-02  8.98e-04  2.34e-02  1.06e-01  0.700   2.0
    7    -346.9335479178708397    -9.32e-03  6.33e-04  1.64e-02  7.39e-02  0.700   1.9
    8    -346.9400795903406447    -6.53e-03  1.48e-03  3.84e-02  5.18e-02  0.000   2.0
                              *** Initializing SOSCF ***
---------------------------------------S-O-S-C-F--------------------------------------
Iteration    Energy (Eh)           Delta-E    RMSDP     MaxDP     MaxGrad    Time(sec)
--------------------------------------------------------------------------------------
    9    -346.9553445031645538    -1.53e-02  9.08e-06  2.55e-04  1.48e-04     2.0
               *** Restarting incremental Fock matrix formation ***
   10    -346.9553445655525934    -6.24e-08  1.16e-05  5.53e-04  9.07e-05     2.3
   11    -346.9553442350890577     3.30e-07  7.06e-06  2.92e-04  2.56e-04     1.7
                 **** Energy Check signals convergence ****

               *****************************************************
               *                     SUCCESS                       *
               *           SCF CONVERGED AFTER  11 CYCLES          *
               *****************************************************

             **** ENERGY FILE WAS UPDATED (sp_gas.en.tmp) ****

----------------
TOTAL SCF ENERGY
----------------

Total Energy       :       -346.95534423508906 Eh           -9441.13489 eV

Components:
Nuclear Repulsion  :        317.04253026910277 Eh            8627.16585 eV
Electronic Energy  :       -663.99787450419171 Eh          -18068.30074 eV
One Electron Energy:      -1099.48307027002397 Eh          -29918.45537 eV
Two Electron Energy:        435.48519576583220 Eh           11850.15463 eV

Virial components:
Potential Energy   :       -692.50565514743107 Eh          -18844.03689 eV
Kinetic Energy     :        345.55031091234207 Eh            9402.90199 eV
Virial Ratio       :          2.00406607454364

DFT components:
N(Alpha)           :       28.000001758330 electrons
N(Beta)            :       28.000001758330 electrons
N(Total)           :       56.000003516660 electrons
E(X)               :      -46.164037403520 Eh       
E(C)               :       -1.793751004188 Eh       
E(XC)              :      -47.957788407708 Eh       

---------------
SCF CONVERGENCE
---------------

  Last Energy change         ...   -3.3046e-07  Tolerance :   1.0000e-06
  Last MAX-Density change    ...    2.9176e-04  Tolerance :   1.0000e-05
  Last RMS-Density change    ...    7.0562e-06  Tolerance :   1.0000e-06
  Last DIIS Error            ...    1.4837e-04  Tolerance :   1.0000e-06
  Last Orbital Gradient      ...    2.5578e-04  Tolerance :   3.3300e-04
  Last Orbital Rotation      ...    2.7158e-04  Tolerance :   3.3300e-04


----------------
ORBITAL ENERGIES
----------------

  NO   OCC          E(Eh)            E(eV) 
   0   2.0000     -19.003440      -517.1099 
   1   2.0000     -18.935344      -515.2569 
   2   2.0000     -10.162503      -276.5358 
   3   2.0000     -10.046146      -273.3695 
   4   2.0000     -10.041426      -273.2411 
   5   2.0000     -10.020778      -272.6792 
   6   2.0000     -10.016567      -272.5646 
   7   2.0000      -1.078113       -29.3369 
   8   2.0000      -0.979634       -26.6572 
   9   2.0000      -0.786743       -21.4084 
  10   2.0000      -0.701425       -19.0867 
  11   2.0000      -0.654216       -17.8021 
  12   2.0000      -0.599038       -16.3007 
  13   2.0000      -0.529253       -14.4017 
  14   2.0000      -0.470284       -12.7971 
  15   2.0000      -0.451583       -12.2882 
  16   2.0000      -0.446656       -12.1541 
  17   2.0000      -0.414604       -11.2819 
  18   2.0000      -0.402084       -10.9413 
  19   2.0000      -0.379003       -10.3132 
  20   2.0000      -0.360857        -9.8194 
  21   2.0000      -0.356353        -9.6969 
  22   2.0000      -0.340972        -9.2783 
  23   2.0000      -0.309173        -8.4130 
  24   2.0000      -0.305097        -8.3021 
  25   2.0000      -0.300007        -8.1636 
  26   2.0000      -0.292284        -7.9535 
  27   2.0000      -0.242254        -6.5921 
  28   0.0000      -0.020852        -0.5674 
  29   0.0000       0.057185         1.5561 
  30   0.0000       0.083272         2.2660 
  31   0.0000       0.119982         3.2649 
  32   0.0000       0.129844         3.5332 
  33   0.0000       0.136273         3.7082 
  34   0.0000       0.140927         3.8348 
  35   0.0000       0.143653         3.9090 
  36   0.0000       0.155014         4.2182 
  37   0.0000       0.162355         4.4179 
  38   0.0000       0.167993         4.5713 
*Only the first 10 virtual orbitals were printed.

                    ********************************
                    * MULLIKEN POPULATION ANALYSIS *
                    ********************************

-----------------------
MULLIKEN ATOMIC CHARGES
-----------------------
   0 C :   -0.460798
   1 C :   -0.006602
   2 C :   -0.526601
   3 C :   -0.306285
   4 C :    0.317064
   5 O :   -0.402846
   6 O :   -0.344265
   7 H :    0.145006
   8 H :    0.144575
   9 H :    0.150801
  10 H :    0.165053
  11 H :    0.146857
  12 H :    0.164572
  13 H :    0.147176
  14 H :    0.168533
  15 H :    0.169567
  16 H :    0.328192
Sum of atomic charges:   -0.0000000

--------------------------------
MULLIKEN REDUCED ORBITAL CHARGES
--------------------------------
  0 C s       :     3.324307  s :     3.324307
      pz      :     1.077683  p :     3.109407
      px      :     0.985467
      py      :     1.046256
      dz2     :     0.004715  d :     0.027084
      dxz     :     0.002539
      dyz     :     0.007824
      dx2y2   :     0.004437
      dxy     :     0.007569

  1 C s       :     3.080809  s :     3.080809
      pz      :     1.054259  p :     2.879849
      px      :     0.900510
      py      :     0.925080
      dz2     :     0.009351  d :     0.045944
      dxz     :     0.005525
      dyz     :     0.010633
      dx2y2   :     0.007810
      dxy     :     0.012624

  2 C s       :     3.354807  s :     3.354807
      pz      :     0.994129  p :     3.144851
      px      :     1.116944
      py      :     1.033778
      dz2     :     0.007774  d :     0.026943
      dxz     :     0.001697
      dyz     :     0.006681
      dx2y2   :     0.002337
      dxy     :     0.008454

  3 C s       :     3.190525  s :     3.190525
      pz      :     1.099305  p :     3.080606
      px      :     0.961793
      py      :     1.019508
      dz2     :     0.006903  d :     0.035153
      dxz     :     0.003661
      dyz     :     0.007704
      dx2y2   :     0.007661
      dxy     :     0.009225

  4 C s       :     3.113385  s :     3.113385
      pz      :     0.751991  p :     2.443702
      px      :     0.912883
      py      :     0.778827
      dz2     :     0.024572  d :     0.125849
      dxz     :     0.026367
      dyz     :     0.017153
      dx2y2   :     0.022295
      dxy     :     0.035463

  5 O s       :     3.833232  s :     3.833232
      pz      :     1.421922  p :     4.545695
      px      :     1.772564
      py      :     1.351210
      dz2     :     0.005568  d :     0.023918
      dxz     :     0.002615
      dyz     :     0.009140
      dx2y2   :     0.006058
      dxy     :     0.000537

  6 O s       :     3.723822  s :     3.723822
      pz      :     1.679238  p :     4.597281
      px      :     1.232206
      py      :     1.685837
      dz2     :     0.005686  d :     0.023163
      dxz     :     0.002496
      dyz     :     0.005280
      dx2y2   :     0.002669
      dxy     :     0.007032

  7 H s       :     0.836693  s :     0.836693
      pz      :     0.007502  p :     0.018302
      px      :     0.003603
      py      :     0.007197

  8 H s       :     0.837181  s :     0.837181
      pz      :     0.009064  p :     0.018244
      px      :     0.003832
      py      :     0.005348

  9 H s       :     0.830888  s :     0.830888
      pz      :     0.003966  p :     0.018311
      px      :     0.008410
      py      :     0.005935

 10 H s       :     0.817314  s :     0.817314
      pz      :     0.009285  p :     0.017633
      px      :     0.003431
      py      :     0.004917

 11 H s       :     0.834819  s :     0.834819
      pz      :     0.003846  p :     0.018323
      px      :     0.008215
      py      :     0.006262

 12 H s       :     0.817104  s :     0.817104
      pz      :     0.003622  p :     0.018324
      px      :     0.008618
      py      :     0.006084

 13 H s       :     0.834621  s :     0.834621
      pz      :     0.009660  p :     0.018203
      px      :     0.003845
      py      :     0.004698

 14 H s       :     0.813546  s :     0.813546
      pz      :     0.010132  p :     0.017920
      px      :     0.003203
      py      :     0.004586

 15 H s       :     0.812160  s :     0.812160
      pz      :     0.006500  p :     0.018273
      px      :     0.003519
      py      :     0.008254

 16 H s       :     0.631014  s :     0.631014
      pz      :     0.009517  p :     0.040793
      px      :     0.019233
      py      :     0.012044


------------------------
MULLIKEN OVERLAP CHARGES
------------------------
B(  0-C ,  1-C ) :   0.5135 B(  0-C ,  2-C ) :  -0.2181 B(  0-C ,  3-C ) :  -0.2041 
B(  0-C ,  7-H ) :   0.8274 B(  0-C ,  8-H ) :   0.8381 B(  0-C ,  9-H ) :   0.8232 
B(  0-C , 10-H ) :  -0.0850 B(  1-C ,  2-C ) :   0.5164 B(  1-C ,  3-C ) :   0.3280 
B(  1-C ,  5-O ) :   0.0717 B(  1-C ,  7-H ) :  -0.0933 B(  1-C ,  8-H ) :  -0.0761 
B(  1-C ,  9-H ) :  -0.0931 B(  1-C , 10-H ) :   0.8506 B(  1-C , 11-H ) :  -0.0802 
B(  1-C , 12-H ) :  -0.0607 B(  1-C , 13-H ) :  -0.1127 B(  1-C , 14-H ) :  -0.0895 
B(  1-C , 15-H ) :  -0.0649 B(  2-C ,  3-C ) :  -0.2016 B(  2-C , 11-H ) :   0.7933 
B(  2-C , 12-H ) :   0.7956 B(  2-C , 13-H ) :   0.8788 B(  3-C ,  4-C ) :   0.3540 
B(  3-C ,  5-O ) :  -0.2871 B(  3-C ,  6-O ) :  -0.2224 B(  3-C , 10-H ) :  -0.0799 
B(  3-C , 14-H ) :   0.8289 B(  3-C , 15-H ) :   0.7261 B(  4-C ,  5-O ) :   1.1380 
B(  4-C ,  6-O ) :   0.4534 B(  4-C , 14-H ) :  -0.0608 B(  5-O ,  6-O ) :  -0.2333 
B(  6-O , 16-H ) :   0.5728 


                     *******************************
                     * LOEWDIN POPULATION ANALYSIS *
                     *******************************

----------------------
LOEWDIN ATOMIC CHARGES
----------------------
   0 C :   -0.412241
   1 C :   -0.231968
   2 C :   -0.407812
   3 C :   -0.231976
   4 C :    0.340705
   5 O :   -0.430525
   6 O :   -0.402538
   7 H :    0.152934
   8 H :    0.153897
   9 H :    0.155738
  10 H :    0.172341
  11 H :    0.155501
  12 H :    0.163549
  13 H :    0.152035
  14 H :    0.183648
  15 H :    0.187742
  16 H :    0.298972

-------------------------------
LOEWDIN REDUCED ORBITAL CHARGES
-------------------------------
  0 C s       :     2.969152  s :     2.969152
      pz      :     1.151838  p :     3.379359
      px      :     1.096575
      py      :     1.130946
      dz2     :     0.011806  d :     0.063730
      dxz     :     0.005074
      dyz     :     0.019280
      dx2y2   :     0.009318
      dxy     :     0.018252

  1 C s       :     2.904201  s :     2.904201
      pz      :     1.118955  p :     3.233106
      px      :     1.041224
      py      :     1.072927
      dz2     :     0.019812  d :     0.094661
      dxz     :     0.009680
      dyz     :     0.023193
      dx2y2   :     0.014694
      dxy     :     0.027282

  2 C s       :     2.967071  s :     2.967071
      pz      :     1.110547  p :     3.377557
      px      :     1.154332
      py      :     1.112679
      dz2     :     0.018080  d :     0.063184
      dxz     :     0.003384
      dyz     :     0.016307
      dx2y2   :     0.005234
      dxy     :     0.020179

  3 C s       :     2.920258  s :     2.920258
      pz      :     1.130550  p :     3.237112
      px      :     1.016299
      py      :     1.090263
      dz2     :     0.015811  d :     0.074606
      dxz     :     0.006505
      dyz     :     0.017368
      dx2y2   :     0.015225
      dxy     :     0.019697

  4 C s       :     2.747787  s :     2.747787
      pz      :     0.815036  p :     2.639186
      px      :     0.930062
      py      :     0.894089
      dz2     :     0.047032  d :     0.272322
      dxz     :     0.057168
      dyz     :     0.046135
      dx2y2   :     0.046002
      dxy     :     0.075985

  5 O s       :     3.552085  s :     3.552085
      pz      :     1.469649  p :     4.664777
      px      :     1.733951
      py      :     1.461176
      dz2     :     0.035683  d :     0.213663
      dxz     :     0.032024
      dyz     :     0.060011
      dx2y2   :     0.037384
      dxy     :     0.048560

  6 O s       :     3.477579  s :     3.477579
      pz      :     1.674893  p :     4.684825
      px      :     1.335496
      py      :     1.674436
      dz2     :     0.046128  d :     0.240134
      dxz     :     0.045273
      dyz     :     0.036611
      dx2y2   :     0.063806
      dxy     :     0.048316

  7 H s       :     0.803563  s :     0.803563
      pz      :     0.018201  p :     0.043504
      px      :     0.008131
      py      :     0.017171

  8 H s       :     0.802475  s :     0.802475
      pz      :     0.022527  p :     0.043628
      px      :     0.008667
      py      :     0.012434

  9 H s       :     0.800687  s :     0.800687
      pz      :     0.008714  p :     0.043575
      px      :     0.020452
      py      :     0.014408

 10 H s       :     0.783727  s :     0.783727
      pz      :     0.023381  p :     0.043932
      px      :     0.008231
      py      :     0.012321

 11 H s       :     0.800916  s :     0.800916
      pz      :     0.008665  p :     0.043583
      px      :     0.019998
      py      :     0.014920

 12 H s       :     0.792027  s :     0.792027
      pz      :     0.008022  p :     0.044424
      px      :     0.021632
      py      :     0.014770

 13 H s       :     0.804413  s :     0.804413
      pz      :     0.023810  p :     0.043552
      px      :     0.008601
      py      :     0.011141

 14 H s       :     0.772009  s :     0.772009
      pz      :     0.025695  p :     0.044344
      px      :     0.007434
      py      :     0.011214

 15 H s       :     0.767586  s :     0.767586
      pz      :     0.016065  p :     0.044672
      px      :     0.008400
      py      :     0.020208

 16 H s       :     0.584953  s :     0.584953
      pz      :     0.024979  p :     0.116075
      px      :     0.056766
      py      :     0.034330


---------------------------------
LOEWDIN BOND ORDERS (THRESH 0.050000)
---------------------------------
B(  0-C ,  1-C ) :   1.1134 B(  0-C ,  2-C ) :   0.0709 B(  0-C ,  3-C ) :   0.0768 
B(  0-C ,  7-H ) :   0.9252 B(  0-C ,  8-H ) :   0.9211 B(  0-C ,  9-H ) :   0.9220 
B(  1-C ,  2-C ) :   1.1094 B(  1-C ,  3-C ) :   1.0502 B(  1-C ,  4-C ) :   0.0695 
B(  1-C , 10-H ) :   0.8513 B(  2-C ,  3-C ) :   0.0674 B(  2-C , 11-H ) :   0.9233 
B(  2-C , 12-H ) :   0.9133 B(  2-C , 13-H ) :   0.9234 B(  3-C ,  4-C ) :   0.9367 
B(  3-C ,  5-O ) :   0.1789 B(  3-C ,  6-O ) :   0.1857 B(  3-C , 14-H ) :   0.8575 
B(  3-C , 15-H ) :   0.8512 B(  4-C ,  5-O ) :   2.1976 B(  4-C ,  6-O ) :   1.4911 
B(  4-C , 16-H ) :   0.0557 B(  5-O ,  6-O ) :   0.4710 B(  6-O , 16-H ) :   0.9151 


------------------------------------------
LOEWDIN REDUCED ORBITAL POPULATIONS PER MO
-------------------------------------------
THRESHOLD FOR PRINTING IS 0.1%%
                      0         1         2         3         4         5   
                 -19.00344 -18.93534 -10.16250 -10.04615 -10.04143 -10.02078
                   2.00000   2.00000   2.00000   2.00000   2.00000   2.00000
                  --------  --------  --------  --------  --------  --------
 0 C  s               0.0       0.0       0.0       0.0       0.0      99.7
 1 C  s               0.0       0.0       0.0       0.0      99.6       0.0
 3 C  s               0.0       0.0       0.0      99.6       0.0       0.0
 4 C  s               0.0       0.0      98.9       0.0       0.0       0.0
 5 O  s               0.0      99.9       0.0       0.0       0.0       0.0
 5 O  py              0.0       0.0       0.1       0.0       0.0       0.0
 5 O  dyz             0.0       0.0       0.2       0.0       0.0       0.0
 6 O  s              99.9       0.0       0.0       0.0       0.0       0.0
 6 O  dxz             0.0       0.0       0.1       0.0       0.0       0.0

                      6         7         8         9        10        11   
                 -10.01657  -1.07811  -0.97963  -0.78674  -0.70142  -0.65422
                   2.00000   2.00000   2.00000   2.00000   2.00000   2.00000
                  --------  --------  --------  --------  --------  --------
 0 C  s               0.0       0.0       0.0       9.8       9.5      20.6
 0 C  pz              0.0       0.0       0.0       0.1       0.0       0.2
 0 C  px              0.0       0.0       0.0       2.4       0.1       0.2
 0 C  py              0.0       0.0       0.0       0.8       0.4       0.7
 1 C  s               0.0       0.1       0.1      25.4       3.2       0.0
 1 C  pz              0.0       0.0       0.0       0.6       0.1       3.4
 1 C  px              0.0       0.3       0.2       0.1       7.4       2.5
 1 C  py              0.0       0.0       0.0       0.4       1.1      10.3
 1 C  dyz             0.0       0.0       0.0       0.0       0.0       0.1
 1 C  dxy             0.0       0.0       0.0       0.0       0.2       0.1
 2 C  s              99.7       0.0       0.0       9.3       6.7      24.5
 2 C  pz              0.0       0.0       0.0       1.3       0.2       0.2
 2 C  px              0.0       0.0       0.0       0.0       0.3       0.1
 2 C  py              0.0       0.0       0.0       1.9       0.1       0.5
 3 C  s               0.0       1.1       0.2      17.7      15.1       0.1
 3 C  pz              0.0       0.0       0.1       0.1       0.0       0.2
 3 C  px              0.0       1.9       0.0       1.6       4.6       0.1
 3 C  py              0.0       0.3       0.3       0.9       0.3       0.8
 4 C  s               0.0      17.4       3.5       1.3       5.0       0.0
 4 C  pz              0.0       0.3      10.4       0.3       0.8       0.0
 4 C  px              0.0       5.0       1.1       4.5       5.2       0.0
 4 C  py              0.0       0.1      12.6       1.6       4.8       0.1
 4 C  dxz             0.0       0.3       0.4       0.0       0.0       0.0
 4 C  dyz             0.0       0.7       0.6       0.0       0.0       0.0
 4 C  dx2y2           0.0       0.0       0.7       0.0       0.0       0.0
 4 C  dxy             0.0       0.1       0.3       0.0       0.1       0.0
 5 O  s               0.0      12.9      41.7       0.9       1.4       0.0
 5 O  pz              0.0       1.4       1.2       0.1       0.2       0.0
 5 O  px              0.0       0.0       0.2       0.1       0.3       0.0
 5 O  py              0.0       2.0       2.2       0.1       0.5       0.0
 5 O  dxz             0.0       0.1       0.1       0.1       0.2       0.0
 5 O  dyz             0.0       1.1       0.1       0.1       0.3       0.0
 5 O  dx2y2           0.0       0.3       0.0       0.0       0.2       0.0
 5 O  dxy             0.0       0.1       0.1       0.2       0.4       0.0
 6 O  s               0.0      42.6      18.1       0.2       0.9       0.0
 6 O  pz              0.0       1.4       0.3       0.0       0.3       0.0
 6 O  px              0.0       0.4       0.4       0.8       8.5       0.0
 6 O  py              0.0       1.4       0.2       0.0       0.2       0.0
 6 O  dxz             0.0       0.3       0.2       0.1       0.3       0.0
 6 O  dyz             0.0       0.3       0.5       0.0       0.0       0.0
 6 O  dx2y2           0.0       0.0       0.1       0.2       0.5       0.0
 6 O  dxy             0.0       0.1       0.3       0.0       0.1       0.0
 7 H  s               0.0       0.0       0.0       1.2       1.6       5.5
 7 H  pz              0.0       0.0       0.0       0.1       0.1       0.3
 7 H  py              0.0       0.0       0.0       0.0       0.1       0.2
 8 H  s               0.0       0.0       0.0       1.2       1.7       4.7
 8 H  pz              0.0       0.0       0.0       0.1       0.1       0.3
 9 H  s               0.0       0.0       0.0       1.2       2.0       4.6
 9 H  px              0.0       0.0       0.0       0.1       0.1       0.2
 9 H  py              0.0       0.0       0.0       0.0       0.1       0.1
10 H  s               0.0       0.0       0.0       3.0       0.5       0.0
10 H  pz              0.0       0.0       0.0       0.2       0.0       0.0
11 H  s               0.0       0.0       0.0       1.1       1.4       5.5
11 H  px              0.0       0.0       0.0       0.1       0.1       0.3
11 H  py              0.0       0.0       0.0       0.0       0.0       0.1
12 H  s               0.0       0.0       0.0       1.1       1.0       6.2
12 H  px              0.0       0.0       0.0       0.1       0.1       0.4
12 H  py              0.0       0.0       0.0       0.0       0.0       0.2
13 H  s               0.0       0.0       0.0       1.2       1.2       5.5
13 H  pz              0.0       0.0       0.0       0.1       0.1       0.4
14 H  s               0.0       0.1       0.0       2.4       3.3       0.0
14 H  pz              0.0       0.0       0.0       0.2       0.3       0.0
15 H  s               0.0       0.0       0.0       2.4       3.4       0.2
15 H  pz              0.0       0.0       0.0       0.1       0.1       0.0
15 H  py              0.0       0.0       0.0       0.1       0.2       0.0
16 H  s               0.0       6.4       2.7       0.2       2.4       0.0
16 H  px              0.0       1.2       0.6       0.0       0.2       0.0
16 H  py              0.0       0.2       0.1       0.0       0.1       0.0

                     12        13        14        15        16        17   
                  -0.59904  -0.52925  -0.47028  -0.45158  -0.44666  -0.41460
                   2.00000   2.00000   2.00000   2.00000   2.00000   2.00000
                  --------  --------  --------  --------  --------  --------
 0 C  s               3.9       2.7       0.5       0.2       0.0       0.1
 0 C  pz              0.0       0.6       2.2       1.4       0.3      12.5
 0 C  px              1.7       4.4       3.6       0.9       0.4       0.1
 0 C  py              0.0       3.3       0.1       0.2       0.4       7.8
 0 C  dxy             0.0       0.1       0.0       0.0       0.0       0.0
 1 C  s               1.8      13.5       0.3       0.0       0.0       0.4
 1 C  pz              0.3       5.6       5.1       4.3       0.8       7.4
 1 C  px              4.6       0.1       0.1       1.1       0.1       4.2
 1 C  py              0.9       1.4       4.2       0.0       1.6       0.2
 1 C  dxy             0.1       0.0       0.0       0.0       0.0       0.0
 2 C  s               2.4       3.5       0.1       0.5       0.0       0.3
 2 C  pz              0.4       6.8       0.6       0.0       0.9       0.3
 2 C  px              0.4       0.2       0.0       2.8       0.0       5.9
 2 C  py              0.4       1.8       2.7       2.8       0.1      11.2
 2 C  dyz             0.0       0.2       0.0       0.0       0.0       0.0
 3 C  s               4.9       3.1       0.5       0.2       0.1       0.1
 3 C  pz              0.4       1.4       8.1      11.1       0.8       0.7
 3 C  px              4.1       1.8      10.9       0.0       1.7       1.4
 3 C  py              0.0       5.3       5.2      13.6       0.0       0.3
 3 C  dxz             0.0       0.1       0.0       0.0       0.0       0.1
 3 C  dxy             0.1       0.1       0.2       0.0       0.0       0.0
 4 C  s               4.1       0.3       2.5       0.4       2.2       0.2
 4 C  pz              2.5       0.6       2.2       7.7       1.3       4.4
 4 C  px              2.0       2.1      11.3       4.7       3.1       0.7
 4 C  py              1.7       0.2       0.5       6.5       1.7       2.9
 4 C  dyz             0.0       0.0       0.1       0.0       0.2       0.0
 4 C  dx2y2           0.0       0.0       0.0       0.0       0.2       0.0
 4 C  dxy             0.1       0.1       0.0       0.0       0.1       0.0
 5 O  s               0.7       0.3       3.6       0.7      11.9       0.1
 5 O  pz              0.5       0.2       0.4       6.7      11.2       1.8
 5 O  px              0.2       0.1       7.5       2.9       0.8       0.3
 5 O  py              0.4       0.1       5.6       0.3      19.0       4.5
 5 O  dz2             0.1       0.0       0.2       0.5       0.0       0.3
 5 O  dxz             0.0       0.0       0.2       0.3       0.1       0.0
 5 O  dyz             0.2       0.0       0.0       0.1       0.3       0.0
 5 O  dx2y2           0.3       0.0       0.0       0.2       0.1       0.2
 5 O  dxy             0.0       0.0       0.6       0.1       0.1       0.0
 6 O  s               0.9       0.1       0.1       0.0       4.8       0.1
 6 O  pz              2.8       0.9       0.4       8.7      12.1       1.2
 6 O  px             34.6       5.8       4.6       0.1       2.7       1.0
 6 O  py              0.0       0.3       0.9       3.2      16.2       7.5
 6 O  dz2             0.1       0.1       0.0       0.5       0.0       0.1
 6 O  dxz             0.3       0.0       0.4       0.1       0.1       0.1
 6 O  dyz             0.0       0.0       0.1       0.0       0.2       0.0
 6 O  dx2y2           0.0       0.2       0.4       0.1       0.0       0.1
 6 O  dxy             0.5       0.2       0.0       0.3       0.0       0.0
 7 H  s               1.0       1.6       0.7       0.0       0.0       8.7
 7 H  py              0.0       0.0       0.0       0.0       0.0       0.1
 8 H  s               1.3       3.1       0.0       1.1       0.1       0.9
 8 H  pz              0.1       0.1       0.0       0.0       0.0       0.0
 8 H  py              0.0       0.0       0.0       0.0       0.0       0.1
 9 H  s               1.8       1.5       1.9       0.1       0.4       0.2
10 H  s               0.7       9.4       1.4       0.7       0.7       1.2
10 H  pz              0.0       0.5       0.0       0.0       0.0       0.0
10 H  py              0.0       0.1       0.0       0.0       0.0       0.0
11 H  s               1.1       1.9       0.5       2.7       0.0       0.1
12 H  s               0.6       1.7       0.5       0.0       0.0       7.3
12 H  px              0.0       0.1       0.0       0.0       0.0       0.2
13 H  s               0.8       3.5       0.4       0.0       0.4       0.2
13 H  pz              0.0       0.1       0.0       0.0       0.0       0.0
14 H  s               0.9       3.5       6.0       0.6       0.2       0.0
14 H  pz              0.1       0.2       0.2       0.0       0.0       0.0
14 H  py              0.0       0.0       0.0       0.1       0.0       0.0
15 H  s               1.8       2.6       0.1      10.0       0.3       0.9
15 H  pz              0.1       0.1       0.1       0.1       0.0       0.0
15 H  py              0.1       0.0       0.0       0.2       0.0       0.0
16 H  s               9.3       1.4       1.1       0.1       1.4       0.0
16 H  pz              0.1       0.0       0.0       0.1       0.1       0.0
16 H  px              0.4       0.0       0.0       0.0       0.1       0.0
16 H  py              0.4       0.1       0.1       0.0       0.1       0.1

                     18        19        20        21        22        23   
                  -0.40208  -0.37900  -0.36086  -0.35635  -0.34097  -0.30917
                   2.00000   2.00000   2.00000   2.00000   2.00000   2.00000
                  --------  --------  --------  --------  --------  --------
 0 C  s               0.0       0.1       0.0       0.0       0.0       0.6
 0 C  pz              1.0       0.0      27.4       2.2       1.0       0.1
 0 C  px              2.4      10.4       0.4       1.3       7.1      16.7
 0 C  py             13.4       0.0       1.5       4.5       8.7       0.6
 0 C  dz2             0.1       0.0       0.1       0.0       0.1       0.0
 0 C  dyz             0.0       0.0       0.2       0.0       0.1       0.0
 0 C  dxy             0.0       0.1       0.0       0.0       0.1       0.3
 1 C  pz              1.2       0.5       0.2       0.1       0.0       0.2
 1 C  px              5.2       3.0       0.7       0.1       0.2      21.4
 1 C  py              3.4       5.9       0.2       0.7       0.1       0.3
 1 C  dxz             0.0       0.1       0.2       0.0       0.0       0.0
 1 C  dyz             0.0       0.0       0.0       0.0       0.0       0.1
 1 C  dx2y2           0.0       0.0       0.0       0.2       0.0       0.0
 1 C  dxy             0.0       0.0       0.0       0.0       0.0       0.8
 2 C  pz              5.2       4.7       4.3      14.8       0.8       0.3
 2 C  px              7.7      13.1       0.4       0.2      13.0      12.4
 2 C  py              1.2       0.0       1.7       8.2       0.7       0.6
 2 C  dz2             0.0       0.0       0.0       0.2       0.0       0.0
 2 C  dxy             0.0       0.0       0.0       0.0       0.2       0.6
 3 C  s               0.8       0.2       0.1       0.1       0.1       0.9
 3 C  pz              3.6       4.5      11.0       4.7       4.8       0.0
 3 C  px              1.7       0.2       0.1       1.0       2.0      11.6
 3 C  py              5.6       0.5       0.0       2.5       5.2       4.8
 3 C  dz2             0.1       0.0       0.1       0.1       0.0       0.0
 3 C  dyz             0.0       0.0       0.1       0.1       0.1       0.1
 3 C  dx2y2           0.1       0.0       0.0       0.0       0.1       0.0
 3 C  dxy             0.1       0.0       0.0       0.0       0.1       0.2
 4 C  s               0.0       0.1       0.1       0.1       0.4       0.5
 4 C  pz              2.3       1.0       1.8       2.1       0.4       0.1
 4 C  px              0.0       0.9       0.2       0.7       1.5       1.3
 4 C  py              1.5       2.9       0.8       2.2       2.2       0.5
 4 C  dxz             0.0       0.1       0.2       0.1       0.1       0.0
 4 C  dyz             0.0       0.0       0.1       0.2       0.0       0.0
 4 C  dx2y2           0.0       0.2       0.0       0.3       0.2       0.0
 4 C  dxy             0.3       0.0       0.0       0.0       0.0       0.1
 5 O  s               0.0       0.5       0.6       1.5       0.6       0.0
 5 O  pz              3.2       4.9       0.2       3.1       4.2       0.1
 5 O  px              0.5       3.2       0.0       0.3       0.0       0.5
 5 O  py              0.5       0.4       6.5       8.8       1.4       0.6
 5 O  dz2             0.2       0.2       0.0       0.0       0.0       0.0
 5 O  dyz             0.0       0.0       0.0       0.1       0.2       0.0
 5 O  dxy             0.0       0.2       0.0       0.1       0.0       0.0
 6 O  s               1.1       1.5       0.2       1.1       1.2       0.6
 6 O  pz              0.9      19.6       0.1       1.1       5.5       0.0
 6 O  px              0.4       1.9       0.2       0.1       1.6       0.8
 6 O  py             10.1       0.2       8.0      11.4       2.2       1.5
 6 O  dz2             0.4       0.0       0.1       0.1       0.1       0.2
 6 O  dx2y2           0.1       0.1       0.0       0.1       0.7       0.3
 6 O  dxy             0.0       0.3       0.0       0.0       0.1       0.1
 7 H  s               1.7       0.0       4.5       0.1       5.0       0.0
 7 H  pz              0.1       0.0       0.0       0.0       0.1       0.0
 7 H  px              0.0       0.1       0.0       0.0       0.0       0.2
 7 H  py              0.0       0.0       0.2       0.0       0.0       0.0
 8 H  s               2.6       0.2      13.4       2.3       0.0       0.1
 8 H  pz              0.1       0.0       0.1       0.0       0.0       0.0
 8 H  px              0.0       0.1       0.0       0.0       0.1       0.2
 8 H  py              0.0       0.0       0.1       0.0       0.1       0.0
 9 H  s               5.0       3.5       0.7       2.8       7.6       4.8
 9 H  pz              0.0       0.0       0.2       0.0       0.0       0.0
 9 H  px              0.1       0.0       0.1       0.1       0.1       0.0
 9 H  py              0.0       0.1       0.0       0.0       0.0       0.1
10 H  s               0.5       0.2       0.0       0.0       0.0       0.3
10 H  px              0.1       0.0       0.0       0.0       0.0       0.2
11 H  s               4.1       2.7       1.2       2.1       6.9       6.8
11 H  px              0.0       0.0       0.0       0.1       0.0       0.0
12 H  s               1.3       3.2       0.0       1.8       3.6       4.9
12 H  pz              0.0       0.0       0.0       0.1       0.0       0.0
12 H  py              0.1       0.1       0.0       0.0       0.1       0.1
13 H  s               2.2       3.0       2.9      10.9       0.3       0.1
13 H  pz              0.0       0.1       0.0       0.2       0.0       0.0
13 H  px              0.1       0.1       0.0       0.0       0.1       0.1
14 H  s               5.1       2.0       5.1       3.3       0.7       0.0
14 H  pz              0.2       0.0       0.0       0.0       0.0       0.0
14 H  px              0.0       0.0       0.0       0.0       0.0       0.1
15 H  s               0.9       1.0       2.7       0.1       6.3       0.8
15 H  pz              0.1       0.0       0.0       0.0       0.0       0.0
15 H  px              0.0       0.0       0.0       0.0       0.0       0.1
15 H  py              0.0       0.0       0.1       0.0       0.0       0.0
16 H  s               0.6       0.6       0.1       0.8       1.1       0.6
16 H  pz              0.0       0.3       0.0       0.0       0.1       0.0

                     24        25        26        27        28        29   
                  -0.30510  -0.30001  -0.29228  -0.24225  -0.02085   0.05718
                   2.00000   2.00000   2.00000   2.00000   0.00000   0.00000
                  --------  --------  --------  --------  --------  --------
 0 C  s               0.5       0.1       0.1       0.0       0.1       1.1
 0 C  pz              1.5       7.0       0.0       0.1       0.1       0.0
 0 C  px              2.3       0.1       0.1       0.2       0.2       0.0
 0 C  py             12.6       0.7       0.6       0.0       0.1       0.0
 0 C  dz2             0.1       0.1       0.0       0.0       0.0       0.0
 0 C  dxz             0.0       0.2       0.0       0.0       0.0       0.0
 0 C  dyz             0.1       0.4       0.0       0.0       0.0       0.0
 0 C  dx2y2           0.3       0.0       0.0       0.0       0.0       0.0
 1 C  s               0.0       0.3       0.0       0.1       0.5       0.3
 1 C  pz              1.9      23.5       0.2       0.3       0.3       0.2
 1 C  px              0.5       0.0       0.0       0.1       0.4       0.5
 1 C  py             19.7       1.7       1.3       0.0       0.3       0.5
 1 C  dz2             0.3       0.4       0.0       0.0       0.0       0.0
 1 C  dyz             0.2       0.6       0.0       0.0       0.0       0.0
 1 C  dx2y2           0.2       0.0       0.0       0.0       0.0       0.0
 2 C  s               0.6       0.5       0.0       0.0       0.1       1.8
 2 C  pz              3.1      11.4       0.1       0.1       0.1       0.1
 2 C  px              0.5       0.0       0.6       0.0       0.1       0.4
 2 C  py             19.5       0.3       1.5       0.1       0.2       0.4
 2 C  dz2             0.3       0.3       0.1       0.0       0.0       0.1
 2 C  dyz             0.0       0.2       0.0       0.0       0.0       0.0
 3 C  s               0.2       0.3       0.0       0.4       0.2       6.5
 3 C  pz              0.5       4.1       0.1       0.3       0.0       0.0
 3 C  px              1.1       1.1       0.2       3.6       0.1       2.4
 3 C  py              3.8       1.2       0.8       2.9       0.0       0.3
 3 C  dz2             0.0       0.2       0.0       0.0       0.0       0.0
 3 C  dxz             0.0       0.0       0.0       0.0       0.4       0.0
 3 C  dyz             0.1       0.2       0.0       0.0       0.8       0.0
 3 C  dx2y2           0.2       0.0       0.1       0.0       0.6       0.0
 3 C  dxy             0.0       0.0       0.0       0.0       0.4       0.0
 4 C  s               0.1       0.0       0.0       0.4       0.1      10.2
 4 C  pz              0.1       0.1       1.7       0.4      23.1       0.1
 4 C  px              0.3       0.1       0.1       1.5       2.1       9.2
 4 C  py              0.2       0.0       1.3       0.3      15.6       0.5
 4 C  dz2             0.1       0.1       1.7       0.2       0.3       0.3
 4 C  dxz             0.0       0.0       0.0       1.4       0.4       0.1
 4 C  dyz             0.0       0.0       0.0       0.1       0.0       0.4
 4 C  dx2y2           0.0       0.0       0.4       0.0       0.3       0.5
 4 C  dxy             0.1       0.0       0.2       2.2       0.1       0.2
 5 O  s               0.0       0.0       0.0       0.0       0.0       1.2
 5 O  pz              0.1       0.4      28.9       5.0      13.7       0.0
 5 O  px              0.6       0.0       2.0      67.2       1.2       1.4
 5 O  py              1.1       1.2      17.7       0.0       8.8       0.0
 5 O  dz2             0.0       0.0       0.1       0.0       3.8       0.0
 5 O  dxz             0.0       0.1       0.0       0.2       1.0       0.1
 5 O  dyz             0.0       0.0       0.0       0.0       0.4       1.0
 5 O  dx2y2           0.0       0.1       0.0       0.0       1.8       0.1
 5 O  dxy             0.0       0.0       0.0       0.4       0.0       0.2
 6 O  s               0.0       0.1       0.0       0.4       0.0       8.0
 6 O  pz              5.1       0.1      19.2       3.9       4.9       0.6
 6 O  px              0.3       0.0       1.7       0.8       0.4       5.9
 6 O  py              1.3       0.3      14.5       4.3       3.7       1.7
 6 O  dz2             0.0       0.0       0.5       0.0       1.7       0.2
 6 O  dxz             0.0       0.0       0.0       0.1       2.0       0.7
 6 O  dyz             0.0       0.0       0.0       0.4       0.0       0.4
 6 O  dx2y2           0.0       0.1       0.1       0.0       0.0       0.4
 6 O  dxy             0.0       0.1       0.1       0.0       2.9       1.3
 7 H  s               6.4       1.9       0.1       0.0       0.1       0.2
 8 H  s               0.2       6.9       0.2       0.1       0.0       0.1
 9 H  s               1.0       0.8       0.1       0.1       0.0       0.5
10 H  s               0.7      19.2       0.5       0.0       0.0       0.2
10 H  py              0.1       0.1       0.0       0.0       0.0       0.0
11 H  s               1.2       0.7       0.0       0.0       0.1       0.7
11 H  px              0.0       0.0       0.0       0.0       0.0       0.1
11 H  py              0.1       0.0       0.0       0.0       0.0       0.0
12 H  s               5.4       0.0       0.8       0.0       0.0       0.5
12 H  pz              0.0       0.1       0.0       0.0       0.0       0.0
12 H  px              0.1       0.0       0.0       0.0       0.0       0.2
13 H  s               0.7       6.3       0.6       0.0       0.0       0.1
13 H  py              0.1       0.1       0.0       0.0       0.0       0.1
14 H  s               0.0       4.6       0.0       0.7       1.3       0.6
14 H  pz              0.0       0.0       0.0       0.0       0.0       0.3
15 H  s               3.1       0.7       0.7       0.2       4.3       1.1
15 H  pz              0.0       0.0       0.0       0.0       0.0       0.2
15 H  px              0.0       0.0       0.0       0.1       0.1       0.0
15 H  py              0.0       0.0       0.0       0.0       0.2       0.2
16 H  s               0.0       0.0       0.0       0.3       0.0      28.1
16 H  pz              0.1       0.0       0.3       0.0       0.2       0.1
16 H  px              0.0       0.0       0.0       0.1       0.0       5.5
16 H  py              0.0       0.0       0.2       0.0       0.1       1.2

                     30        31        32        33        34        35   
                   0.08327   0.11998   0.12984   0.13627   0.14093   0.14365
                   0.00000   0.00000   0.00000   0.00000   0.00000   0.00000
                  --------  --------  --------  --------  --------  --------
 0 C  s               8.2      19.3       0.1       0.1       8.2       0.8
 0 C  pz              0.1       0.4       3.6       8.3       0.2       2.9
 0 C  px              1.9       5.2       2.3       0.3      18.4       2.5
 0 C  py              1.1       1.7       0.4       2.0      10.6       1.9
 0 C  dz2             0.2       0.0       0.0       0.1       0.1       0.1
 0 C  dxz             0.0       0.0       0.2       0.0       0.1       0.2
 0 C  dyz             0.0       0.1       0.6       0.0       0.1       0.2
 0 C  dx2y2           0.1       0.0       0.0       0.1       0.0       0.1
 0 C  dxy             0.4       0.0       0.2       0.0       1.6       0.4
 1 C  s               8.1       0.5       1.9       5.9       7.1       1.8
 1 C  pz              1.2       0.5       5.8       5.7       0.8       1.6
 1 C  px              0.3       4.5       0.6       0.4       1.8       2.5
 1 C  py              0.1       0.6       2.0       4.9       4.5       0.6
 1 C  dz2             0.0       0.1       0.2       1.3       0.1       0.0
 1 C  dxz             0.0       0.0       0.0       0.1       0.1       0.2
 1 C  dyz             0.0       0.1       1.9       0.0       0.3       0.2
 1 C  dx2y2           0.0       0.5       0.0       0.1       0.1       0.0
 1 C  dxy             0.0       0.5       0.0       0.0       0.4       1.1
 2 C  s               9.1       0.2      11.4       9.9       2.2       0.7
 2 C  pz              1.1       2.7       4.0      12.9       4.4       2.6
 2 C  px              0.2       2.8       0.8       1.0       2.6       5.2
 2 C  py              1.9       0.0      16.6       5.7       2.0       1.7
 2 C  dz2             0.1       0.0       0.1       0.9       0.2       0.0
 2 C  dyz             0.3       0.1       0.6       0.1       0.7       0.3
 2 C  dx2y2           0.2       0.0       0.2       0.0       0.0       0.1
 2 C  dxy             0.0       0.3       0.0       0.0       0.3       1.0
 3 C  s               5.7       3.6       1.6       0.2       0.9       5.5
 3 C  pz              0.3       0.2       7.0       9.3       1.2       4.0
 3 C  px              1.3      11.4       0.7       0.3       2.2       0.8
 3 C  py              3.1       2.3       2.1       2.8       1.1      21.5
 3 C  dz2             0.4       0.6       0.4       0.1       0.2       1.0
 3 C  dxz             0.3       0.0       0.1       0.0       0.1       0.0
 3 C  dyz             0.0       0.0       0.5       0.2       0.1       0.2
 3 C  dx2y2           0.1       0.8       0.0       0.1       0.0       0.0
 3 C  dxy             0.3       0.8       0.1       0.0       0.2       0.2
 4 C  s               2.5       4.1       1.1       0.3       0.4       0.4
 4 C  pz              1.9       0.2       0.0       2.8       0.7       0.7
 4 C  px              1.9       1.4       0.3       0.2       0.1       0.3
 4 C  py              0.5       1.9       0.7       0.5       0.6       6.3
 4 C  dxz             0.0       0.0       0.2       0.1       0.0       0.1
 4 C  dyz             0.7       0.3       0.1       0.1       0.0       0.1
 4 C  dx2y2           0.3       0.1       0.0       0.0       0.0       0.0
 5 O  s               0.7       0.3       0.2       0.2       0.0       0.5
 5 O  pz              0.1       0.1       0.0       0.6       0.1       0.1
 5 O  px              1.0       0.0       0.0       0.1       0.2       0.2
 5 O  py              0.8       0.1       0.4       0.1       0.1       0.4
 5 O  dz2             0.0       0.1       0.1       0.2       0.3       0.1
 5 O  dxz             0.1       0.0       0.0       0.5       0.0       0.0
 5 O  dyz             0.5       0.7       0.2       0.2       0.2       0.8
 5 O  dx2y2           0.7       0.0       0.2       0.1       0.4       0.1
 5 O  dxy             0.0       0.0       0.7       0.0       0.2       0.0
 6 O  s               1.1       0.0       0.0       0.0       0.0       0.1
 6 O  pz              0.0       0.2       0.3       0.2       0.2       0.3
 6 O  px              2.0       0.6       0.8       0.2       0.6       0.2
 6 O  py              0.5       0.5       0.0       0.0       0.2       1.5
 6 O  dz2             2.4       0.9       0.1       0.0       0.1       0.1
 6 O  dxz             0.0       1.0       0.8       0.0       0.2       0.5
 6 O  dyz             0.1       0.3       0.5       0.0       0.1       0.0
 6 O  dx2y2           1.1       2.1       0.1       0.0       0.4       0.0
 6 O  dxy             2.2       0.1       0.4       0.3       0.0       0.1
 7 H  s               2.0       0.6       1.2       0.1       2.6       0.6
 7 H  pz              0.6       0.3       0.0       0.1       0.7       0.0
 7 H  px              0.4       0.0       0.2       0.0       0.3       0.1
 7 H  py              0.2       0.4       0.3       0.0       0.7       0.1
 8 H  s               1.8       2.5       2.0       0.4       0.7       0.0
 8 H  pz              1.0       0.9       0.5       0.1       0.3       0.0
 8 H  px              0.1       0.0       0.0       0.0       0.9       0.4
 8 H  py              0.0       0.6       0.2       0.2       0.1       0.1
 9 H  s               1.2       3.8       0.2       0.0       1.0       4.2
 9 H  pz              0.0       0.2       0.0       0.0       0.0       0.2
 9 H  px              0.1       1.3       0.0       0.0       0.2       0.3
[...]
 2 C  py              1.1       0.1       0.1       0.0       0.0       0.0
 2 C  dz2             3.9       0.4       0.5       0.0       0.0       0.0
 2 C  dxz             0.0       0.0       0.1       0.0       0.0       0.0
 2 C  dyz             2.7       1.2       0.1       0.0       0.0       0.0
 2 C  dx2y2           0.4       0.0       0.0       0.0       0.0       0.0
 2 C  dxy            14.5       0.4       0.0       0.0       0.0       0.0
 3 C  s               0.2       0.5       0.3       0.0       0.2       0.0
 3 C  pz              0.6       3.2       0.2       0.1       0.0       0.0
 3 C  px              0.6       0.1       1.7       0.1       0.0       0.0
 3 C  py              0.9       0.7       0.1       0.0       0.0       0.0
 3 C  dz2             2.4       6.1       0.0       0.0       0.0       0.0
 3 C  dxz             0.0       0.0       0.4       0.0       0.0       0.0
 3 C  dyz             0.4       2.9       0.0       0.1       0.2       0.0
 3 C  dx2y2           0.6       0.3       0.1       0.0       0.0       0.1
 3 C  dxy             0.6       0.0       2.5       0.1       0.1       0.0
 4 C  s               0.1       0.2       0.9       1.0       7.4       0.3
 4 C  pz              0.0       0.1       0.1       2.9       0.9       1.8
 4 C  px              0.0       0.0       0.7       2.9       1.2       0.4
 4 C  py              0.0       0.1       0.0       2.1       2.2       2.0
 4 C  dz2             0.1       1.7       2.2       0.0       0.0       0.0
 4 C  dxz             0.0       0.2       0.6       4.7       0.4       1.5
 4 C  dyz             0.0       0.6       1.5       0.3       4.8       0.4
 4 C  dx2y2           0.0       1.3       4.5       1.4       0.5       0.7
 4 C  dxy             0.0       1.2       6.0       3.3       0.2       1.7
 5 O  s               0.0       0.7       0.6       1.1      16.2       2.9
 5 O  pz              0.0       0.6       1.0       0.5       6.4       1.4
 5 O  px              0.0       0.9       5.7       0.0       0.9       0.0
 5 O  py              0.1       0.1       0.6       0.8      10.9       2.2
 5 O  dz2             0.0       0.7       1.1       0.4       0.0       0.1
 5 O  dxz             0.0       1.4       9.1       0.0       1.1       0.0
 5 O  dyz             0.0       0.1       1.1       1.7      18.4       3.7
 5 O  dx2y2           0.0       0.2       0.1       2.3       5.9       2.0
 5 O  dxy             0.4       3.2      12.0       0.1       2.4       0.0
 6 O  s               0.0       0.3       0.7      27.8       0.9       3.7
 6 O  pz              0.0       0.7       2.4       6.0       0.8       0.1
 6 O  px              0.0       0.0       0.0       2.4       6.7      17.5
 6 O  py              0.0       0.7       3.8       6.0       0.1       1.4
 6 O  dz2             0.0       0.4       0.9       3.0       0.2       5.2
 6 O  dxz             0.0       0.0       0.3       7.1       3.2       5.0
 6 O  dyz             0.0       1.9       6.4       5.7       0.5       0.0
 6 O  dx2y2           0.0       1.5       7.3       9.1       0.0       3.1
 6 O  dxy             0.0       0.0       0.1       0.1       3.8      19.5
 8 H  s               0.0       0.7       0.2       0.0       0.0       0.0
 8 H  pz              0.2       1.6       0.5       0.0       0.0       0.0
 8 H  py              0.0       0.4       0.1       0.0       0.0       0.0
 9 H  s               0.4       0.1       0.0       0.0       0.0       0.0
 9 H  px              0.5       0.3       0.1       0.0       0.0       0.0
 9 H  py              0.6       0.0       0.0       0.0       0.0       0.0
10 H  s               0.2       4.8       2.1       0.0       0.0       0.0
10 H  pz              0.3      10.6       5.0       0.0       0.0       0.0
10 H  px              0.1       0.2       0.2       0.1       0.0       0.0
10 H  py              0.0       2.6       0.5       0.0       0.0       0.0
11 H  s               2.1       0.1       0.1       0.0       0.0       0.0
11 H  pz              0.6       0.0       0.0       0.0       0.0       0.0
11 H  px              1.4       0.2       0.1       0.0       0.0       0.0
11 H  py              2.8       0.1       0.1       0.0       0.0       0.0
12 H  s               8.5       0.4       0.0       0.0       0.0       0.0
12 H  px             14.1       0.4       0.0       0.0       0.0       0.0
12 H  py              7.3       0.8       0.0       0.0       0.0       0.0
13 H  s               2.1       0.4       0.2       0.0       0.0       0.0
13 H  pz              4.0       1.0       0.5       0.0       0.0       0.0
13 H  py              0.8       0.1       0.0       0.0       0.0       0.0
14 H  s               1.0       3.7       0.0       0.1       0.0       0.0
14 H  pz              2.5       7.8       0.1       0.0       0.0       0.0
14 H  py              0.1       1.6       0.0       0.0       0.0       0.0
15 H  s               0.1       0.3       0.0       0.0       0.0       0.0
15 H  pz              0.2       0.0       0.0       0.0       0.0       0.0
15 H  py              0.0       0.5       0.1       0.1       0.0       0.0
16 H  s               0.0       0.0       0.0       2.0       1.2      10.6
16 H  pz              0.0       0.1       1.0       0.0       0.0       0.2
16 H  px              0.0       0.0       0.0       3.2       1.5       9.4
16 H  py              0.0       0.2       1.2       0.7       0.3       2.5

                    186       187       188       189       190       191   
                  21.93843  22.00402  22.05445  22.08703  22.22392  43.60270
                   0.00000   0.00000   0.00000   0.00000   0.00000   0.00000
                  --------  --------  --------  --------  --------  --------
 0 C  s              49.1      47.4       2.1       0.8       0.2       0.0
 1 C  s               3.5       0.6       1.6      92.3       1.7       0.0
 2 C  s              35.5      49.5      10.1       4.4       0.1       0.0
 3 C  s              11.5       2.0      85.1       0.1       0.9       0.0
 4 C  s               0.0       0.2       0.7       2.0      96.2       0.1
 5 O  s               0.0       0.0       0.0       0.0       0.2      15.6
 6 O  s               0.0       0.0       0.0       0.0       0.1      84.2

                    192   
                  43.67992
                   0.00000
                  --------
 5 O  s              84.3
 6 O  s              15.7


                      *****************************
                      * MAYER POPULATION ANALYSIS *
                      *****************************

  NA   - Mulliken gross atomic population
  ZA   - Total nuclear charge
  QA   - Mulliken gross atomic charge
  VA   - Mayer's total valence
  BVA  - Mayer's bonded valence
  FA   - Mayer's free valence

  ATOM       NA         ZA         QA         VA         BVA        FA
  0 C      6.4608     6.0000    -0.4608     3.7168     3.7168    -0.0000
  1 C      6.0066     6.0000    -0.0066     3.5639     3.5639     0.0000
  2 C      6.5266     6.0000    -0.5266     3.8001     3.8001    -0.0000
  3 C      6.3063     6.0000    -0.3063     3.6625     3.6625    -0.0000
  4 C      5.6829     6.0000     0.3171     4.0404     4.0404     0.0000
  5 O      8.4028     8.0000    -0.4028     1.9673     1.9673    -0.0000
  6 O      8.3443     8.0000    -0.3443     1.9374     1.9374     0.0000
  7 H      0.8550     1.0000     0.1450     0.9653     0.9653    -0.0000
  8 H      0.8554     1.0000     0.1446     0.9664     0.9664    -0.0000
  9 H      0.8492     1.0000     0.1508     0.9635     0.9635    -0.0000
 10 H      0.8349     1.0000     0.1651     0.9551     0.9551    -0.0000
 11 H      0.8531     1.0000     0.1469     0.9642     0.9642    -0.0000
 12 H      0.8354     1.0000     0.1646     0.9611     0.9611     0.0000
 13 H      0.8528     1.0000     0.1472     0.9652     0.9652    -0.0000
 14 H      0.8315     1.0000     0.1685     0.9639     0.9639    -0.0000
 15 H      0.8304     1.0000     0.1696     0.9584     0.9584     0.0000
 16 H      0.6718     1.0000     0.3282     0.8988     0.8988    -0.0000

  Mayer bond orders larger than 0.100000
B(  0-C ,  1-C ) :   0.8839 B(  0-C ,  7-H ) :   0.9812 B(  0-C ,  8-H ) :   0.9795 
B(  0-C ,  9-H ) :   0.9769 B(  1-C ,  2-C ) :   0.9177 B(  1-C ,  3-C ) :   0.9077 
B(  1-C , 10-H ) :   0.9471 B(  2-C , 11-H ) :   0.9705 B(  2-C , 12-H ) :   0.9646 
B(  2-C , 13-H ) :   0.9878 B(  3-C ,  4-C ) :   0.9931 B(  3-C , 14-H ) :   0.9734 
B(  3-C , 15-H ) :   0.9201 B(  4-C ,  5-O ) :   1.9320 B(  4-C ,  6-O ) :   1.0469 
B(  6-O , 16-H ) :   0.8595 

-------
TIMINGS
-------

Total SCF time: 0 days 0 hours 0 min 22 sec 

Total time                  ....      22.697 sec
Sum of individual times     ....      22.102 sec  ( 97.4%)

SCF preparation             ....       0.175 sec  (  0.8%)
Fock matrix formation       ....      20.866 sec  ( 91.9%)
  Startup                   ....       0.067 sec  (  0.3% of F)
  Split-RI-J                ....       3.722 sec  ( 17.8% of F)
  XC integration            ....      16.440 sec  ( 78.8% of F)
    XC Preparation          ....       0.000 sec  (  0.0% of XC)
    Basis function eval.    ....       2.987 sec  ( 18.2% of XC)
    Density eval.           ....       4.728 sec  ( 28.8% of XC)
    XC-Functional eval.     ....       2.255 sec  ( 13.7% of XC)
    XC-Potential eval.      ....       5.326 sec  ( 32.4% of XC)
Diagonalization             ....       0.000 sec  (  0.0%)
Density matrix formation    ....       0.277 sec  (  1.2%)
Total Energy calculation    ....       0.042 sec  (  0.2%)
Population analysis         ....       0.100 sec  (  0.4%)
Orbital Transformation      ....       0.060 sec  (  0.3%)
Orbital Orthonormalization  ....       0.000 sec  (  0.0%)
DIIS solution               ....       0.503 sec  (  2.2%)
  MO trafo                  ....       0.000 sec  (  0.0 % of DIIS)
  Orb grad                  ....       0.000 sec  (  0.0 % of DIIS)
  Energy W gradient         ....       0.000 sec  (  0.0 % of DIIS)
  DIIS error                ....       0.012 sec  (  2.3 % of DIIS)
  DIIS work                 ....       0.444 sec  ( 88.2 % of DIIS)
  Form Q                    ....       0.000 sec  (  0.0 % of DIIS)
  Form QpQm                 ....       0.000 sec  (  0.0 % of DIIS)
  Exp/Cayley                ....       0.000 sec  (  0.0 % of DIIS)
  Orb update                ....       0.000 sec  (  0.0 % of DIIS)
  Wake-sleep                ....       0.021 sec  (  4.1 % of DIIS)
SOSCF solution              ....       0.080 sec  (  0.4%)
  MO trafo                  ....       0.046 sec  ( 57.9 % of SOSCF)
  Orb grad                  ....       0.001 sec  (  1.5 % of SOSCF)
  Rot update                ....       0.011 sec  ( 13.5 % of SOSCF)
  Step                      ....       0.022 sec  ( 26.9 % of SOSCF)
Finished LeanSCF after  22.8 sec

Maximum memory used throughout the entire LEANSCF-calculation: 20.5 MB


-------------------------------------------------------------------------------
                          DFT DISPERSION CORRECTION                            
                                                                               
                                DFTD4 V3.4.0                                   
-------------------------------------------------------------------------------
The R2SCAN3C composite method is recognized
Using three-body term ABC
Active option DFTDOPT                   ...         5   

-------------------------   ----------------
Dispersion correction           -0.004325792
-------------------------   ----------------

------------------   -----------------
gCP correction             0.009211546
------------------   -----------------

-------------------------   --------------------
FINAL SINGLE POINT ENERGY      -346.950458480233
-------------------------   --------------------


------------------------------------------------------------------------------
                              ORCA PROPERTY CALCULATIONS
------------------------------------------------------------------------------

GBWName                                 ... sp_gas.gbw
Number of atoms                         ...     17
Number of basis functions               ...    193
Max core memory                         ...   1024 MB

Electric properties:
Dipole moment                           ... YES
Quadrupole moment                       ...  NO
Static polarizability (Dipole/Dipole)   ...  NO
Static polarizability (Dipole/Quad.)    ...  NO
Static polarizability (Quad./Quad.)     ...  NO
Static polarizability (Velocity)        ...  NO

Atomic electric properties:
Dipole moment                           ...  NO
Quadrupole moment                       ...  NO
Static polarizability                   ...  NO

Choice of electric origin               ... Center of mass
Position of electric origin             ...     0.000048     0.000004    -0.000005

General magnetic properties:
Magnetizability                         ...  NO

EPR properties:
g-Tensor (aka g-matrix)                 ...  NO
Zero-Field splitting spin-orbit         ...  NO
Zero-field splitting spin-spin          ...  NO
Hyperfine couplings                     ...  NO (   0 nuclei)
Quadrupole couplings                    ...  NO (   0 nuclei)
Contact density                         ...  NO (   0 nuclei)

NMR properties:
Chemical shifts                         ...  NO (   0 nuclei)
Spin-rotation constants                 ...  NO (   0 nuclei)
Spin-spin couplings                     ...  NO (   0 nuclei,    0 pairs)

Choice of magnetic origin               ... GIAO
Position of magnetic origin             ...     0.000000     0.000000     0.000000

Properties with geometric perturbations:
SCF Hessian                             ...  NO
IR spectrum                             ...  NO
VCD spectrum                            ...  NO
X-ray spectroscopy properties:
SCF XES/XAS/RIXS spectra                ...  NO


-------------
DIPOLE MOMENT
-------------

Method             : SCF
Type of density    : Electron Density
Multiplicity       :   1
Irrep              :   0
Energy             :  -346.9553442350890577 Eh
Relativity type    : 
Basis              : AO
                                X                 Y                 Z
Electronic contribution:    -10.194518673      -0.316971361       1.419697900
Nuclear contribution   :     10.235648067       0.828204532      -1.811572763
                        -----------------------------------------
Total Dipole Moment    :      0.041129395       0.511233172      -0.391874862
                        -----------------------------------------
Magnitude (a.u.)       :      0.645458667
Magnitude (Debye)      :      1.640625548



--------------------
Rotational spectrum 
--------------------
 
Rotational constants in cm-1:             0.164654             0.050643             0.046809 
Rotational constants in MHz :          4936.198546          1518.229894          1403.297234 

Dipole components along the rotational axes: 
x,y,z [a.u.] :     0.041129     0.511221    -0.391891 
x,y,z [Debye]:     0.104543     1.299421    -0.996107 

 

Dipole moment calculation done in   0.0 sec 

Maximum memory used throughout the entire PROP-calculation: 11.7 MB

--------------------------------
SUGGESTED CITATIONS FOR THIS RUN
--------------------------------

Below you find a list of papers that are relevant to this ORCA run
We neither can nor want to force you to cite these papers, but we appreciate if you do
You receive ORCA, which is the product of decades of hard work by many enthusiastic individuals, for free
The only thing we kindly ask in return is that you cite our papers,
We deeply appreciate it, if you show your appreciation for ORCA by not just citing the generic ORCA reference.

Please note that relegating all ORCA citations to the supporting information does *not* help us.
SI sections are not indexed - citations you put there will not count into any citation statistics
But we need these citations in order to attract the funding resources that allow us to do what we are doing

Therefore, if you are a happy ORCA user, please consider citing a few of the papers listed below in the main body of your paper

In addition to the list printed below, the program has created the file sp_gas.bibtex that contains the list in bibtex format
You can import this file easily into all common literature databanks and citation aid programs


List of essential papers. We consider these as the minimum necessary citations

  1. Neese,F.
     Software update: the ORCA program system, version 5.0
     WIRES Comput. Molec. Sci., 2022 12(1)e1606
     doi.org/10.1002/wcms.1606
  2. Grimme,S.; Hansen,A.; Ehlert,S.; Mewes,J.
     r2SCAN-3c: A 'Swiss army knife' composite electronic-structure method
     J. Chem. Phys., 2021 154 064103
     doi.org/10.1063/5.0040021

List of papers to cite with high priority. The work reported in these papers was absolutely
necessary for this run to complete.
Our perspective: the developers of density functionals and basis sets usually get cited in chemistry papers
Good! But without the algorithms to do something with them, the functionals or basis sets would not do anything.
Hence, in our opinion, the algorithm design and method developments papers are equally worthy of getting cited

  1. Neese,F.
     An improvement of the resolution of the identity approximation for the formation of the Coulomb matrix
     J. Comp. Chem., 2003 24(14)1740-1747
     doi.org/10.1002/jcc.10318
  2. Neese,F.
     The SHARK Integral Generation and Digestion System
     J. Comp. Chem., 2022  1-16
     doi.org/10.1002/jcc.26942
  3. Lehtola,S.; Steigemann,C.; Oliveira,M.; Marques,M.
     Recent developments in Libxc - A comprehensive library of functionals for density functional theory
     Software X, 2018 7 
     doi.org/10.1016/j.softx.2017.11.002
  4. Caldeweyher,E.; Bannwarth,C.; Grimme,S.
     Extension of the D3 dispersion coefficient model
     J. Chem. Phys., 2017 147 034112-XXXX
     doi.org/10.1063/1.4993215
  5. Caldeweyher,E.; Ehlert,S.; Hansen,A.; Neugebauer,H.; Spicher,S.; Bannwarth,C.; Grimme,S.
     A generally applicable atomic-charge dependent London dispersion correction
     J. Chem. Phys., 2019 150 154122-XXXX
     doi.org/10.1063/1.5090222
  6. Caldeweyher,E.; Mewes,J.; Ehlert,S.; Grimme,S.
     Extension and evaluation of the D4 London-dispersion model for periodic systems
     Phys. Chem. Chem. Phys., 2020 22(16)8499-8512
     doi.org/10.1039/D0CP00502A

List of suggested additional citations. These are papers that are important in the 'surrounding' of 
of this run, or papers that preceded the highly important papers. If you like your results we are grateful for a citation.

  1. Neese,F.
     The ORCA program system
     WIRES Comput. Molec. Sci., 2012 2(1)73-78
     doi.org/10.1002/wcms.81
  2. Neese,F.
     Software update: the ORCA program system, version 4.0
     WIRES Comput. Molec. Sci., 2018 8(1)1-6
     doi.org/10.1002/wcms.1327
  3. Neese,F.; Wennmohs,F.; Becker,U.; Riplinger,C.
     The ORCA quantum chemistry program package
     J. Chem. Phys., 2020 152 Art. No. L224108
     doi.org/10.1063/5.0004608

List of optional additional citations

  1. Neese,F.
     Approximate second-order SCF convergence for spin unrestricted wavefunctions
     Chem. Phys. Lett., 2000 325(1-3)93-98
     doi.org/10.1016/s0009-2614(00)00662-x

Timings for individual modules:

Sum of individual times          ...       24.250 sec (=   0.404 min)
Startup calculation              ...        1.039 sec (=   0.017 min)   4.3 %
SCF iterations                   ...       23.098 sec (=   0.385 min)  95.3 %
Property calculations            ...        0.113 sec (=   0.002 min)   0.5 %
                             ****ORCA TERMINATED NORMALLY****
TOTAL RUN TIME: 0 days 0 hours 0 minutes 24 seconds 934 msec
