      -----------------------------------------------------------      
     |                   =====================                   |     
     |                           x T B                           |     
     |                   =====================                   |     
     |                         S. Grimme                         |     
     |          Mulliken Center for Theoretical Chemistry        |     
     |                    University of Bonn                     |     
      -----------------------------------------------------------      

   * xtb version 6.7.1 (edcfbbe) compiled by 'albert@albert-system' on 2024-07-22

   xtb is free software: you can redistribute it and/or modify it under
   the terms of the GNU Lesser General Public License as published by
   the Free Software Foundation, either version 3 of the License, or
   (at your option) any later version.
   
   xtb is distributed in the hope that it will be useful,
   but WITHOUT ANY WARRANTY; without even the implied warranty of
   MERCHANTABILITY or FITNESS FOR A PARTICULAR PURPOSE.  See the
   GNU Lesser General Public License for more details.
   
   Cite this work as:
   * C. Bannwarth, E. Caldeweyher, S. Ehlert, A. Hansen, P. Pracht,
     J. Seibert, S. Spicher, S. Grimme, WIREs Comput. Mol. Sci., 2020, 11,
     e01493. DOI: 10.1002/wcms.1493
   
   for GFN2-xTB:
   * C. Bannwarth, S. Ehlert and S. Grimme., J. Chem. Theory Comput., 2019,
     15, 1652-1671. DOI: 10.1021/acs.jctc.8b01176
   for GFN1-xTB:
   * S. Grimme, C. Bannwarth, P. Shushkov, J. Chem. Theory Comput., 2017,
     13, 1989-2009. DOI: 10.1021/acs.jctc.7b00118
   for GFN0-xTB:
   * P. Pracht, E. Caldeweyher, S. Ehlert, S. Grimme, ChemRxiv, 2019, preprint.
     DOI: 10.26434/chemrxiv.8326202.v1
   for GFN-FF:
   * S. Spicher and S. Grimme, Angew. Chem. Int. Ed., 2020, 59, 15665-15673.
     DOI: 10.1002/anie.202004239
   
   for ALPB and GBSA implicit solvation:
   * S. Ehlert, M. Stahn, S. Spicher, S. Grimme, J. Chem. Theory Comput.,
     2021, 17, 4250-4261. DOI: 10.1021/acs.jctc.1c00471
   
   for ddCOSMO and CPCM-X implicit solvation:
   * M. Stahn, S. Ehlert, S. Grimme, J. Phys. Chem. A,
     2023, XX, XXXX-XXXX. DOI: 10.1021/acs.jpca.3c04382
   
   for DFT-D4:
   * E. Caldeweyher, C. Bannwarth and S. Grimme, J. Chem. Phys., 2017,
     147, 034112. DOI: 10.1063/1.4993215
   * E. Caldeweyher, S. Ehlert, A. Hansen, H. Neugebauer, S. Spicher,
     C. Bannwarth and S. Grimme, J. Chem. Phys., 2019, 150, 154122.
     DOI: 10.1063/1.5090222
   * E. Caldeweyher, J.-M. Mewes, S. Ehlert and S. Grimme, Phys. Chem. Chem. Phys.
     2020, 22, 8499-8512. DOI: 10.1039/D0CP00502A
   
   for sTDA-xTB:
   * S. Grimme and C. Bannwarth, J. Chem. Phys., 2016, 145, 054103.
     DOI: 10.1063/1.4959605
   
   in the mass-spec context:
   * V. Asgeirsson, C. Bauer and S. Grimme, Chem. Sci., 2017, 8, 4879.
     DOI: 10.1039/c7sc00601b
   * J. Koopman and S. Grimme, ACS Omega 2019, 4, 12, 15120-15133.
     DOI: 10.1021/acsomega.9b02011
   
   for metadynamics refer to:
   * S. Grimme, J. Chem. Theory Comput., 2019, 155, 2847-2862
     DOI: 10.1021/acs.jctc.9b00143
   
   for SPH calculations refer to:
   * S. Spicher and S. Grimme, J. Chem. Theory Comput., 2021, 17, 1701-1714
     DOI: 10.1021/acs.jctc.0c01306
   
   for ONIOM refer to:
   * C. Plett, A. Katbashev, S. Ehlert, S. Grimme, M. Bursch,
     Phys. Chem. Chem. Phys., 2023, 25, 17860-17868. DOI: 10.1039/D3CP02178E
   
   for DIPRO refer to:
   * J. Kohn, N. Gildemeister, S. Grimme, D. Fazzi, A. Hansen,
     J. Chem. Phys., 2023, just accepted.
   
   for PTB refer to:
   * S. Grimme, M. Mueller, A. Hansen, J. Chem. Phys., 2023, 158, 124111.
     DOI: 10.1063/5.0137838
   
   with help from (in alphabetical order)
   P. Atkinson, C. Bannwarth, F. Bohle, G. Brandenburg, E. Caldeweyher
   M. Checinski, S. Dohm, S. Ehlert, S. Ehrlich, I. Gerasimov, C. Hölzer
   A. Katbashev, J. Kohn, J. Koopman, C. Lavigne, S. Lehtola, F. März, M. Müller,
   F. Musil, H. Neugebauer, J. Pisarek, C. Plett, P. Pracht, F. Pultar,
   J. Seibert, P. Shushkov, S. Spicher, M. Stahn, M. Steiner, T. Strunk,
   J. Stückrath, T. Rose, and J. Unsleber
   
 * started run on 2025/04/11 at 11:55:22.081     
   ID    Z sym.   atoms
    1    6 C      1-8
    2    1 H      9-24

           -------------------------------------------------
          |                Calculation Setup                |
           -------------------------------------------------

          program call               : /srv/scratch/z5358697/.xtb/bin/xtb solv.coord --gfn2 --sp --chrg 0 --norestart --parallel 1 --alpb water reference -I xtb_sp-xcontrol-inp
          hostname                   : k071
          coordinate file            : solv.coord
          omp threads                :                     1


           -------------------------------------------------
          |                 G F N 2 - x T B                 |
           -------------------------------------------------

        Reference                      10.1021/acs.jctc.8b01176
      * Hamiltonian:
        H0-scaling (s, p, d)           1.850000    2.230000    2.230000
        zeta-weighting                 0.500000
      * Dispersion:
        s8                             2.700000
        a1                             0.520000
        a2                             5.000000
        s9                             5.000000
      * Repulsion:
        kExp                           1.500000    1.000000
        rExp                           1.000000
      * Coulomb:
        alpha                          2.000000
        third order                    shell-resolved
        anisotropic                    true
        a3                             3.000000
        a5                             4.000000
        cn-shift                       1.200000
        cn-exp                         4.000000
        max-rad                        5.000000

      * Solvation model:               ALPB
        Solvent                        water
        Parameter file                 internal GFN2-xTB/ALPB
        Dielectric constant                8.0200E+01
        Reference state                gsolv=reference [X=1]
        Free energy shift                  2.8945E-03 Eh       1.8164E+00 kcal/mol
        Temperature                        2.9815E+02 K
        Density                            1.0000E+00 kg/L
        Solvent mass                       1.8000E+01 g/mol
        Interaction kernel             P16
        Born radius scaling (c1)           1.4744E+00
        Born radii integrator          GBOBC
        Born offset                        0.0000E+00 a0       0.0000E+00 AA
        H-bond correction              true
        Ion screening                  false
        Surface tension                    1.0000E-05 Eh       1.5569E+01 dyn/cm
        Grid points                               974 per atom

          ...................................................
          :                      SETUP                      :
          :.................................................:
          :  # basis functions                  48          :
          :  # atomic orbitals                  48          :
          :  # shells                           32          :
          :  # electrons                        48          :
          :  max. iterations                   250          :
          :  Hamiltonian                  GFN2-xTB          :
          :  restarted?                      false          :
          :  GBSA solvation                   true          :
          :  PC potential                    false          :
          :  electronic temp.          300.0000000     K    :
          :  accuracy                    1.0000000          :
          :  -> integral cutoff          0.2500000E+02      :
          :  -> integral neglect         0.1000000E-07      :
          :  -> SCF convergence          0.1000000E-05 Eh   :
          :  -> wf. convergence          0.1000000E-03 e    :
          :  Broyden damping             0.4000000          :
          :  net charge                          0          :
          :  unpaired electrons                  0          :
          ...................................................

 iter      E             dE          RMSdq      gap      omega  full diag
   1    -25.6387606 -0.256388E+02  0.234E+00   12.84       0.0  T
   2    -25.6806059 -0.418453E-01  0.129E+00   12.63       1.0  T
   3    -25.6816476 -0.104163E-02  0.613E-01   12.60       1.0  T
   4    -25.6817917 -0.144101E-03  0.821E-02   12.59       1.0  T
   5    -25.6818068 -0.151440E-04  0.450E-02   12.59       1.0  T
   6    -25.6818081 -0.124804E-05  0.325E-03   12.59       6.3  T
   7    -25.6818081 -0.689352E-07  0.883E-04   12.59      23.1  T
   8    -25.6818081 -0.614548E-09  0.455E-04   12.59      44.9  T

   *** convergence criteria satisfied after 8 iterations ***

         #    Occupation            Energy/Eh            Energy/eV
      -------------------------------------------------------------
         1        2.0000           -0.6328470             -17.2206
       ...           ...                  ...                  ...
        18        2.0000           -0.4407802             -11.9942
        19        2.0000           -0.4346824             -11.8283
        20        2.0000           -0.4333035             -11.7908
        21        2.0000           -0.4190623             -11.4033
        22        2.0000           -0.4175135             -11.3611
        23        2.0000           -0.4110362             -11.1849
        24        2.0000           -0.4079219             -11.1001 (HOMO)
        25                          0.0548840               1.4935 (LUMO)
        26                          0.0656932               1.7876
        27                          0.0827819               2.2526
        28                          0.1028099               2.7976
        29                          0.1112377               3.0269
       ...                                ...                  ...
        48                          0.3560441               9.6885
      -------------------------------------------------------------
                  HL-Gap            0.4628059 Eh           12.5936 eV
             Fermi-level           -0.1765190 Eh           -4.8033 eV

 SCC (total)                   0 d,  0 h,  0 min,  0.016 sec
 SCC setup                      ...        0 min,  0.001 sec (  9.057%)
 Dispersion                     ...        0 min,  0.000 sec (  0.770%)
 classical contributions        ...        0 min,  0.000 sec (  0.165%)
 integral evaluation            ...        0 min,  0.002 sec ( 11.594%)
 iterations                     ...        0 min,  0.007 sec ( 42.840%)
 molecular gradient             ...        0 min,  0.005 sec ( 34.810%)
 printout                       ...        0 min,  0.000 sec (  0.687%)

         :::::::::::::::::::::::::::::::::::::::::::::::::::::
         ::                     SUMMARY                     ::
         :::::::::::::::::::::::::::::::::::::::::::::::::::::
         :: total energy             -25.306437949437 Eh    ::
         :: total w/o Gsasa/hb       -25.307930778647 Eh    ::
         :: gradient norm              0.000039437593 Eh/a0 ::
         :: HOMO-LUMO gap             12.593589570662 eV    ::
         ::.................................................::
         :: SCC energy               -25.681725565402 Eh    ::
         :: -> isotropic ES            0.004689866680 Eh    ::
         :: -> anisotropic ES          0.007303641899 Eh    ::
         :: -> anisotropic XC          0.014967930271 Eh    ::
         :: -> dispersion             -0.016459779997 Eh    ::
         :: -> Gsolv                   0.001311256776 Eh    ::
         ::    -> Gelec               -0.000181572434 Eh    ::
         ::    -> Gsasa               -0.000960585651 Eh    ::
         ::    -> Ghb                 -0.000441134300 Eh    ::
         ::    -> Gshift               0.002894549160 Eh    ::
         :: repulsion energy           0.375287615965 Eh    ::
         :: add. restraining           0.000000000000 Eh    ::
         :: total charge              -0.000000000000 e     ::
         :::::::::::::::::::::::::::::::::::::::::::::::::::::

           -------------------------------------------------
          |                Property Printout                |
           -------------------------------------------------

    * Orbital Energies and Occupations

         #    Occupation            Energy/Eh            Energy/eV
      -------------------------------------------------------------
         1        2.0000           -0.6328470             -17.2206
       ...           ...                  ...                  ...
        12        2.0000           -0.4901581             -13.3379
        13        2.0000           -0.4860736             -13.2267
        14        2.0000           -0.4745488             -12.9131
        15        2.0000           -0.4634237             -12.6104
        16        2.0000           -0.4449935             -12.1089
        17        2.0000           -0.4436293             -12.0718
        18        2.0000           -0.4407802             -11.9942
        19        2.0000           -0.4346824             -11.8283
        20        2.0000           -0.4333035             -11.7908
        21        2.0000           -0.4190623             -11.4033
        22        2.0000           -0.4175135             -11.3611
        23        2.0000           -0.4110362             -11.1849
        24        2.0000           -0.4079219             -11.1001 (HOMO)
        25                          0.0548840               1.4935 (LUMO)
        26                          0.0656932               1.7876
        27                          0.0827819               2.2526
        28                          0.1028099               2.7976
        29                          0.1112377               3.0269
        30                          0.1261176               3.4318
        31                          0.1346400               3.6637
        32                          0.1411288               3.8403
        33                          0.1512656               4.1161
        34                          0.1576929               4.2910
        35                          0.1621243               4.4116
       ...                                ...                  ...
        48                          0.3560441               9.6885
      -------------------------------------------------------------
                  HL-Gap            0.4628059 Eh           12.5936 eV
             Fermi-level           -0.1765190 Eh           -4.8033 eV

     #   Z          covCN         q      C6AA      α(0)
     1   6 C        3.751    -0.109    22.642     6.786
     2   6 C        3.800    -0.057    21.600     6.617
     3   6 C        3.803    -0.066    21.761     6.641
     4   6 C        3.870    -0.020    20.883     6.498
     5   6 C        3.831    -0.064    21.702     6.628
     6   6 C        3.817    -0.062    21.668     6.625
     7   6 C        3.815    -0.061    21.667     6.625
     8   6 C        3.828    -0.063    21.692     6.627
     9   1 H        0.925     0.034     2.524     2.484
    10   1 H        0.925     0.035     2.510     2.478
    11   1 H        0.925     0.034     2.526     2.485
    12   1 H        0.924     0.030     2.588     2.516
    13   1 H        0.924     0.031     2.576     2.510
    14   1 H        0.924     0.032     2.556     2.500
    15   1 H        0.924     0.037     2.486     2.466
    16   1 H        0.924     0.027     2.635     2.539
    17   1 H        0.924     0.032     2.564     2.504
    18   1 H        0.925     0.030     2.592     2.518
    19   1 H        0.925     0.029     2.595     2.519
    20   1 H        0.925     0.030     2.581     2.512
    21   1 H        0.925     0.029     2.595     2.519
    22   1 H        0.925     0.029     2.604     2.524
    23   1 H        0.924     0.029     2.595     2.519
    24   1 H        0.925     0.032     2.556     2.500

 Mol. C6AA /au·bohr⁶  :       3944.733876
 Mol. C8AA /au·bohr⁸  :      83612.754073
 Mol. α(0) /au        :         93.140500


Wiberg/Mayer (AO) data.
largest (>0.10) Wiberg bond orders for each atom

 ---------------------------------------------------------------------------
     #   Z sym  total        # sym  WBO       # sym  WBO       # sym  WBO
 ---------------------------------------------------------------------------
     1   6 C    3.997 --     2 C    1.020    10 H    0.988     9 H    0.987
                            11 H    0.985
     2   6 C    3.998 --     1 C    1.020     3 C    1.007    12 H    0.979
                            13 H    0.975
     3   6 C    3.997 --     2 C    1.007     4 C    0.998    15 H    0.976
                            14 H    0.975
     4   6 C    3.996 --     3 C    0.998     8 C    0.997     5 C    0.995
                            16 H    0.967
     5   6 C    3.997 --     6 C    1.006     4 C    0.995    17 H    0.980
                            18 H    0.978
     6   6 C    3.997 --     5 C    1.006     7 C    1.002    20 H    0.983
                            19 H    0.983
     7   6 C    3.997 --     8 C    1.004     6 C    1.002    22 H    0.984
                            21 H    0.984
     8   6 C    3.997 --     7 C    1.004     4 C    0.997    23 H    0.982
                            24 H    0.977
     9   1 H    0.999 --     1 C    0.987
    10   1 H    0.999 --     1 C    0.988
    11   1 H    0.999 --     1 C    0.985
    12   1 H    0.999 --     2 C    0.979
    13   1 H    0.999 --     2 C    0.975
    14   1 H    0.999 --     3 C    0.975
    15   1 H    0.999 --     3 C    0.976
    16   1 H    0.999 --     4 C    0.967
    17   1 H    0.999 --     5 C    0.980
    18   1 H    0.999 --     5 C    0.978
    19   1 H    0.999 --     6 C    0.983
    20   1 H    0.999 --     6 C    0.983
    21   1 H    0.999 --     7 C    0.984
    22   1 H    0.999 --     7 C    0.984
    23   1 H    0.999 --     8 C    0.982
    24   1 H    0.999 --     8 C    0.977
 ---------------------------------------------------------------------------

Topologies differ in total number of bonds
Writing topology from bond orders to xtbtopo.mol

molecular dipole:
                 x           y           z       tot (Debye)
 q only:       -0.019      -0.002      -0.019
   full:       -0.012       0.002      -0.012       0.044
molecular quadrupole (traceless):
                xx          xy          yy          xz          yz          zz
 q only:       -0.016      -0.033       0.022      -0.062      -0.035      -0.006
  q+dip:       -0.736       0.138      -0.244       1.060       0.214       0.980
   full:       -0.339       0.050      -0.156       0.542       0.106       0.495


           -------------------------------------------------
          | TOTAL ENERGY              -25.306437949437 Eh   |
          | GRADIENT NORM               0.000039437593 Eh/α |
          | HOMO-LUMO GAP              12.593589570662 eV   |
           -------------------------------------------------

------------------------------------------------------------------------
 * finished run on 2025/04/11 at 11:55:22.131     
------------------------------------------------------------------------
 total:
 * wall-time:     0 d,  0 h,  0 min,  0.049 sec
 *  cpu-time:     0 d,  0 h,  0 min,  0.023 sec
 * ratio c/w:     0.466 speedup
 SCF:
 * wall-time:     0 d,  0 h,  0 min,  0.016 sec
 *  cpu-time:     0 d,  0 h,  0 min,  0.015 sec
 * ratio c/w:     0.936 speedup

