21
 energy: -312.208164347542 gnorm: 0.032703081587 xtb: 6.7.1 (edcfbbe)
C            2.54799410252908       -0.16852204217468        0.69333213970723
C            1.12789550969980       -0.63369585028081        0.39201535907371
C            0.23329345550338        0.53603976683753       -0.02539152671125
H            0.38386618687010        1.35967390520251        0.69337469360725
C           -1.27396945606453        0.19923698398829       -0.05081257052252
C           -1.56764134499466       -1.02495862035419       -0.91541059260564
C           -1.84180460521615        0.02747149911217        1.35570741660075
O            0.67768047970030        0.95530965462332       -1.30738662397934
H            3.18160402220985       -1.01828802215123        0.93346660531364
H            2.55441448963193        0.51923577223009        1.53629787828077
H            2.96091018121206        0.34137274405127       -0.17345600177686
H            1.15223622681059       -1.35249642559933       -0.42698576368921
H            0.70546517351261       -1.11527789689421        1.27297297956409
H           -1.77335553458582        1.06323141447115       -0.50889792192551
H           -2.63644853716828       -1.10907479289146       -1.09626487278578
H           -1.05778652546873       -0.93708230811525       -1.87208315612957
H           -1.23037023964521       -1.93318016985664       -0.42325450458756
H           -2.92069131559424       -0.09556866214235        1.30508729347832
H           -1.62197903561874        0.89837995769810        1.96896445757250
H           -1.42356084423082       -0.85062444587693        1.84052266271558
H            0.19461484338624        1.74975704487536       -1.56906670149530
21
 energy: -312.209336441338 gnorm: 0.013907328130 xtb: 6.7.1 (edcfbbe)
C            2.55815698307299       -0.16988626466308        0.69358865905201
C            1.13118268209999       -0.62246152307813        0.38919766878514
C            0.22830808401079        0.53820303665505       -0.02258947313610
H            0.36997904397922        1.35929150929230        0.70132353569749
C           -1.27415759489556        0.19658132325731       -0.05553067430244
C           -1.57373481148150       -1.02761339360070       -0.92177578725555
C           -1.84150536749478        0.03078192631871        1.35401769433481
O            0.68363890964626        0.96628276586968       -1.31205549154303
H            3.19642701162329       -1.02124102247016        0.94156950951956
H            2.57009129083311        0.52267618871723        1.53990490013234
H            2.99415569669791        0.34000985622267       -0.16872538791102
H            1.14134773775369       -1.35702693262073       -0.42280774080262
H            0.70184200228103       -1.10957619317294        1.26880091302070
H           -1.76632798305896        1.06816372289637       -0.51146336779410
H           -2.64861311690888       -1.11817553266474       -1.09721840377439
H           -1.07631847831328       -0.95481181694695       -1.89264831518659
H           -1.23537921931872       -1.94397014041790       -0.43036634416574
H           -2.92668501975538       -0.09338094933669        1.31130176716779
H           -1.62392811135908        0.90322328982593        1.97716783451389
H           -1.42595247632645       -0.85290110246515        1.84592082573342
H            0.18983992387190        1.75677070567961       -1.56488133159540
21
 energy: -312.209602359224 gnorm: 0.004676984775 xtb: 6.7.1 (edcfbbe)
C            2.56445793575497       -0.17017680623222        0.69342016904960
C            1.13557708588260       -0.61690602056548        0.38859006226586
C            0.22922467410053        0.53793051395386       -0.01927776992626
H            0.36153025628253        1.36037494207723        0.70429321497497
C           -1.27055971749057        0.19477628995462       -0.06073770796373
C           -1.57884399955094       -1.02984067018547       -0.92359544824720
C           -1.84176834667854        0.03046998073198        1.34840778289059
O            0.68717945448835        0.98166720218187       -1.31506911194527
H            3.19931130100015       -1.02471386496519        0.95078257746085
H            2.58235294545924        0.52766524011994        1.53890308989457
H            3.01871086326560        0.33336366797698       -0.16669105458871
H            1.13555703482309       -1.36280926316987       -0.41678151228610
H            0.70620094461452       -1.10492119402840        1.27068346159846
H           -1.75972410231853        1.06955077500805       -0.51601805737530
H           -2.65798285995995       -1.12346074179854       -1.08878757774787
H           -1.09549287569776       -0.96509791163156       -1.90510831496833
H           -1.23816040533316       -1.95133891722943       -0.43652852989535
H           -2.92998409268180       -0.09241000877777        1.31013139228532
H           -1.62439587133514        0.90409667309525        1.97449548275129
H           -1.42948770462840       -0.85486369723081        1.84669279856053
H            0.17866471166915        1.76758299840754       -1.55507396339561
21
 energy: -312.209642780780 gnorm: 0.002388492478 xtb: 6.7.1 (edcfbbe)
C            2.56675564588852       -0.17101401284004        0.69221344564908
C            1.13745841283151       -0.61511029962582        0.38895088492448
C            0.22898786735437        0.53712273674964       -0.01664654153489
H            0.35970784060705        1.36006606327911        0.70583215027555
C           -1.27011400745456        0.19321552262162       -0.06182797549944
C           -1.57900246332545       -1.03067187867727       -0.92450463844341
C           -1.84311733517602        0.03047897016966        1.34673966622802
O            0.68802598111990        0.98702600917486       -1.31427075975351
H            3.19762611985908       -1.02671570375546        0.95542602614724
H            2.58599937655492        0.53066880509688        1.53436682461862
H            3.02501037612038        0.32617372472956       -0.16905485097003
H            1.13561068189409       -1.36340853662038       -0.41393647911195
H            0.71016008016015       -1.10120331806179        1.27331770172116
H           -1.75849318679526        1.06778735441217       -0.51800765770950
H           -2.65918031719448       -1.12478976064477       -1.08242975055636
H           -1.10255067954045       -0.96516453166540       -1.90901949310672
H           -1.23533078747886       -1.95232583409114       -0.44021473846748
H           -2.93107561950817       -0.09150742304994        1.30650397511381
H           -1.62560678831135        0.90423021075778        1.97222333816083
H           -1.43197138816206       -0.85472183334471        1.84569071648240
H            0.17346759272524        1.77080244057364       -1.54862074278487
21
 energy: -312.209667676753 gnorm: 0.001301413715 xtb: 6.7.1 (edcfbbe)
C            2.56830127393464       -0.17188442306720        0.68970949366532
C            1.13818509530389       -0.61442114480294        0.39039191511209
C            0.22938575636786        0.53695684686278       -0.01306156730802
H            0.35941827770029        1.35993887656916        0.70865815152720
C           -1.26909395250152        0.19222044720963       -0.06220907417965
C           -1.57783292116516       -1.03120532467562       -0.92472308670390
C           -1.84559043393436        0.02976136853968        1.34496266595132
O            0.68947303885034        0.99223290125883       -1.31207878173659
H            3.19392755998488       -1.02833248122771        0.96118910104786
H            2.58966923260340        0.53653080075646        1.52558799802702
H            3.02912891024252        0.31499756556777       -0.17522273021129
H            1.13456543014154       -1.36390346621669       -0.41050582173668
H            0.71377100968918       -1.09753976751201        1.27755644275700
H           -1.75671348075879        1.06610943017735       -0.51984095675049
H           -2.65862321607801       -1.12756869555703       -1.07395539326694
H           -1.10937795814175       -0.96152665946517       -1.91194670031002
H           -1.22828020641147       -1.95219774517783       -0.44477994048614
H           -2.93287900351531       -0.09105386536178        1.30094520803816
H           -1.62832007248088        0.90340157300128        1.96953184184837
H           -1.43599682176746       -0.85518736386188        1.84417228328330
H            0.16925024857693        1.77360889139534       -1.54164974854310
21
 energy: -312.209682135788 gnorm: 0.001962470367 xtb: 6.7.1 (edcfbbe)
C            2.56984731653737       -0.17328199593713        0.68647489386736
C            1.13796711673716       -0.61437865746406        0.39293640171408
C            0.22951414000361        0.53706582629528       -0.00991866833868
H            0.35891472820657        1.35900606415794        0.71281840492409
C           -1.26876039180870        0.19248682592720       -0.06188889220686
C           -1.57523490217980       -1.03060682205358       -0.92547801031204
C           -1.84868490497861        0.02906911181890        1.34388671903039
O            0.69077541568128        0.99583881650892       -1.30852750889494
H            3.19090531736978       -1.02915639891154        0.96890327989088
H            2.59378304839632        0.54556132913122        1.51305879044863
H            3.03177318359188        0.29998443176130       -0.18496483743569
H            1.13159617633157       -1.36502179439196       -0.40628243869481
H            0.71597740786742       -1.09400115661817        1.28297006027774
H           -1.75605656012724        1.06586621169584       -0.52054236005517
H           -2.65638529425234       -1.13222717519446       -1.06601701136985
H           -1.11469168556600       -0.95450815929538       -1.91549171201953
H           -1.21676402209735       -1.95035191679289       -0.45059541156771
H           -2.93548634986729       -0.09090729143261        1.29560050989673
H           -1.63244519817762        0.90198024995425        1.96910031188224
H           -1.44088279802553       -0.85640273842518        1.84270421403224
H            0.16670656905814        1.77492161788924       -1.53601537467158
21
 energy: -312.209699059328 gnorm: 0.001620395852 xtb: 6.7.1 (edcfbbe)
C            2.57168679106133       -0.17518772076332        0.68160703281829
C            1.13680666762056       -0.61422549373288        0.39732406810909
C            0.22954789854677        0.53858063529358       -0.00547014076826
H            0.35809694059441        1.35883730347537        0.71965436121748
C           -1.26853124066435        0.19343264095145       -0.06117674309992
C           -1.57224879880087       -1.02876580435587       -0.92744671907575
C           -1.85256945983307        0.02746611559370        1.34275743697977
O            0.69278648428145        0.99887976846503       -1.30188575579495
H            3.18800856618518       -1.02886348029678        0.98085157248863
H            2.60004343774408        0.56055099595743        1.49341587780218
H            3.03516056064429        0.27759087939268       -0.20020273382253
H            1.12557641787387       -1.36789604514255       -0.39905728450405
H            0.71725826133091       -1.08894908836829        1.29105371763417
H           -1.75542446499355        1.06707416671774       -0.51993478429795
H           -2.65352570892145       -1.14002313503364       -1.05883786777346
H           -1.12065844884751       -0.94364198883533       -1.92088583788962
H           -1.20064338106547       -1.94696065558583       -0.45965314514693
H           -2.93937668033091       -0.09134332368291        1.29034846562812
H           -1.63789573967421        0.89883519540220        1.97070166606364
H           -1.44744003048198       -0.85961859201883        1.84094268752943
H            0.16571116315283        1.77516184576253       -1.53137477036555
21
 energy: -312.209706968866 gnorm: 0.000699785571 xtb: 6.7.1 (edcfbbe)
C            2.57305521366447       -0.17607546299017        0.67831374463967
C            1.13621504673078       -0.61364406057390        0.40136677954940
C            0.22904154239619        0.53903611922155       -0.00362916714770
H            0.35588153848006        1.35798158792691        0.72367068800483
C           -1.26933900653924        0.19441261191063       -0.06036232382243
C           -1.57057470427673       -1.02634495310903       -0.92971190960301
C           -1.85492729461752        0.02539766889137        1.34250242812229
O            0.69434760527216        0.99964486089859       -1.29724574493689
H            3.18705140922632       -1.02703600004518        0.99006160044645
H            2.60504025309980        0.57216646324245        1.47853675134106
H            3.03763796963779        0.26152124332016       -0.21062248073040
H            1.12083242877765       -1.37076716771192       -0.39195566884206
H            0.71843331150276       -1.08436824099318        1.29818827241986
H           -1.75582754720539        1.06910734177658       -0.51791826121148
H           -2.65164767845320       -1.14299904770897       -1.05764548791532
H           -1.12302659830145       -0.93610807360728       -1.92469584788475
H           -1.19245283358035       -1.94436117914193       -0.46669609142639
H           -2.94210710017891       -0.09218545620506        1.28926863439670
H           -1.64020150385540        0.89498940596484        1.97336999953501
H           -1.45139772096276       -0.86355487338755        1.83928962316184
H            0.16633572326562        1.77411985689264       -1.53135505083976
21
 energy: -312.209710688410 gnorm: 0.000665042798 xtb: 6.7.1 (edcfbbe)
C            2.57352024981107       -0.17566232524800        0.67645128539396
C            1.13584353582781       -0.61274199076540        0.40422943317277
C            0.22915902742483        0.54012482745685       -0.00186284097112
H            0.35476007937815        1.35904903284966        0.72590516400873
C           -1.26918922694073        0.19406361084051       -0.06022500061919
C           -1.57120439567682       -1.02478389666493       -0.93188733759554
C           -1.85487197813336        0.02297220533913        1.34219674103334
O            0.69530291514582        0.99943576522937       -1.29456819021931
H            3.18591841782812       -1.02502090461549        0.99572682385094
H            2.60787731432155        0.57956849589083        1.46983653814439
H            3.03936898378324        0.25277885194272       -0.21616148464098
H            1.11794431504344       -1.37326339756409       -0.38601723697239
H            0.71934364874662       -1.07994650512675        1.30362867624069
H           -1.75537327646474        1.06986243559792       -0.51613445789428
H           -2.65223206153122       -1.14211884459550       -1.06013293440870
H           -1.12389324410435       -0.93267799115613       -1.92685454629898
H           -1.19248921481978       -1.94353427328838       -0.47083654681539
H           -2.94238617529790       -0.09310211880540        1.28932468275819
H           -1.63911137044193        0.89107259333441        1.97507003956868
H           -1.45249190119840       -0.86751961928937        1.83750378535071
H            0.16657500168747        1.77237584314740       -1.53246284437051
21
 energy: -312.209710688410 gnorm: 0.000665042798 xtb: 6.7.1 (edcfbbe)
C            2.57352024981107       -0.17566232524800        0.67645128539396
C            1.13584353582781       -0.61274199076540        0.40422943317277
C            0.22915902742483        0.54012482745685       -0.00186284097112
H            0.35476007937815        1.35904903284966        0.72590516400873
C           -1.26918922694073        0.19406361084051       -0.06022500061919
C           -1.57120439567682       -1.02478389666493       -0.93188733759554
C           -1.85487197813336        0.02297220533913        1.34219674103334
O            0.69530291514582        0.99943576522937       -1.29456819021931
H            3.18591841782812       -1.02502090461549        0.99572682385094
H            2.60787731432155        0.57956849589083        1.46983653814439
H            3.03936898378324        0.25277885194272       -0.21616148464098
H            1.11794431504344       -1.37326339756409       -0.38601723697239
H            0.71934364874662       -1.07994650512675        1.30362867624069
H           -1.75537327646474        1.06986243559792       -0.51613445789428
H           -2.65223206153122       -1.14211884459550       -1.06013293440870
H           -1.12389324410435       -0.93267799115613       -1.92685454629898
H           -1.19248921481978       -1.94353427328838       -0.47083654681539
H           -2.94238617529790       -0.09310211880540        1.28932468275819
H           -1.63911137044193        0.89107259333441        1.97507003956868
H           -1.45249190119840       -0.86751961928937        1.83750378535071
H            0.16657500168747        1.77237584314740       -1.53246284437051
