24
 energy: -314.377128087552 gnorm: 0.023092431483 xtb: 6.7.1 (edcfbbe)
C           -2.77713553903062        0.99991745364309        0.09424517364176
C           -2.46088275659048       -0.47572431011081        0.30492449693512
C           -1.16179107791482       -0.93627484321489       -0.35931571765922
C            0.11057996744900       -0.30062053913321        0.20706302189176
C            1.33738606969263       -1.20670136543472        0.04868666312157
C            2.54587747532815       -0.28227622502508        0.24195388780722
C            2.03003793119956        1.14335358560665       -0.03315819671469
C            0.58059664875728        0.97502447183206       -0.49623132561989
H           -2.06715464551601        1.62866132012170        0.62395274217649
H           -2.74108192351465        1.25001903615392       -0.96354557282697
H           -3.77322149987201        1.22684720234365        0.46779704760729
H           -2.40837053316721       -0.68388643460305        1.37613205880980
H           -3.27979166725336       -1.07224663287514       -0.10480269604644
H           -1.09060697098328       -2.01903108099469       -0.22605682040017
H           -1.21638736273901       -0.74274627362913       -1.43311081653505
H           -0.03532137691565       -0.08905425773946        1.27141145196340
H            1.33366583619098       -2.03425910000143        0.75693609253542
H            1.33999382309379       -1.62384917631957       -0.96001336392541
H            2.92561351279642       -0.35786055275858        1.26090165475874
H            3.35751754948780       -0.55182310784453       -0.43266904569173
H            2.05980779051276        1.73597367336926        0.88182655829076
H            2.63244843296651        1.65815656743477       -0.78021076754573
H           -0.02356827701044        1.84785237191883       -0.25956005831502
H            0.54744949074259        0.81994173376334       -1.57632539279851
24
 energy: -314.378058276924 gnorm: 0.005915945491 xtb: 6.7.1 (edcfbbe)
C           -2.78239340836864        1.00306372340047        0.09686503342614
C           -2.47179168899559       -0.47851252604153        0.30033294466710
C           -1.16813299304336       -0.94744883120170       -0.35112742997694
C            0.11110687145086       -0.30630024342458        0.19884708653597
C            1.34469261990278       -1.20836804525855        0.04873801236963
C            2.55924248184310       -0.28182984479460        0.24245158994906
C            2.03836983066995        1.15214131394117       -0.03321387540720
C            0.58301392664012        0.97894037046283       -0.49439562857491
H           -2.06794237098203        1.63847762400341        0.62506244683189
H           -2.74725688194933        1.26367466068480       -0.96523920354391
H           -3.78088457680500        1.24495889042892        0.47130761031858
H           -2.42361665991502       -0.69421204589337        1.37436119588447
H           -3.29657965284312       -1.07655780036136       -0.10381507112126
H           -1.09738523071411       -2.03403557888196       -0.22077301711081
H           -1.21701302528853       -0.76308840929924       -1.43194147534178
H           -0.03238569961745       -0.09040329365275        1.26754392208743
H            1.33283334434356       -2.04652693765155        0.75143004679998
H            1.34036063162307       -1.62631573503223       -0.96490134496957
H            2.94116861682341       -0.35986420550199        1.26396278168937
H            3.37844297498236       -0.55412603766603       -0.42777054968994
H            2.06642177265656        1.74674347708278        0.88459677984449
H            2.64257674894026        1.67813904972137       -0.77686266713667
H           -0.03148160079228        1.85280079261152       -0.26623852725701
H            0.54429530391653        0.81804334424350       -1.57838891745774
24
 energy: -314.378168058998 gnorm: 0.001435839201 xtb: 6.7.1 (edcfbbe)
C           -2.78277654406548        1.00524536840348        0.09771847585183
C           -2.47347808788152       -0.47727527940835        0.29953809142341
C           -1.16826642543294       -0.94992682622031       -0.34733474092790
C            0.11198573610306       -0.30784315053139        0.20176508547352
C            1.34663774050148       -1.21033118898126        0.04516166903238
C            2.56212800505198       -0.28228805873914        0.24302100776228
C            2.03714261552426        1.15493345452856       -0.03194748983252
C            0.58122579256701        0.97835643148529       -0.49704316654056
H           -2.06719180713318        1.64253815179434        0.62644899049559
H           -2.74882440254011        1.27275631456127       -0.96541219533879
H           -3.78210773451950        1.25207577952836        0.47295549344698
H           -2.43442773252692       -0.69745672652694        1.37506862219615
H           -3.29971415275935       -1.07444279442129       -0.10657743925368
H           -1.09866817237098       -2.03729750448888       -0.21062124944639
H           -1.21358545748839       -0.77879328111434       -1.43327562419999
H           -0.02768693554098       -0.09058881116082        1.27313773160456
H            1.33454318102589       -2.05488000687708        0.74255227404918
H            1.34346162824572       -1.62548446536365       -0.97205492425259
H            2.94494894093122       -0.36047647424985        1.26563506090858
H            3.38528055346395       -0.55256761627807       -0.42541882633530
H            2.06472778987772        1.74878137331617        0.88804946185784
H            2.64285628263489        1.68607719223102       -0.77285646910181
H           -0.03723398784087        1.85274145010532       -0.27451148865100
H            0.54468477883870        0.81554101454854       -1.58316610361362
24
 energy: -314.378202416161 gnorm: 0.001544575707 xtb: 6.7.1 (edcfbbe)
C           -2.78117245611934        1.00797818677456        0.09817621971636
C           -2.47558132449546       -0.47486637870920        0.29795471949750
C           -1.16927907169973       -0.95353765490300       -0.34223863915398
C            0.11235597527561       -0.31014273643670        0.20174950960041
C            1.34856439472690       -1.21039420241187        0.04087131520543
C            2.56279201442064       -0.28124206582528        0.24255161221496
C            2.03544782763724        1.15680276636996       -0.03078415836804
C            0.58071226076536        0.97659145236895       -0.49825696628616
H           -2.06499334122665        1.64386459252342        0.62807369410491
H           -2.74749923752696        1.27847521077559       -0.96437725520302
H           -3.78015550066046        1.25588228789472        0.47405924349170
H           -2.44425422474705       -0.69708679232233        1.37364184694041
H           -3.30192730287987       -1.06925679559709       -0.11289928222838
H           -1.10219231555246       -2.04017253012699       -0.19511707730724
H           -1.21162823792577       -0.79397936482493       -1.43040009087267
H           -0.02271579503591       -0.09294203193167        1.27388549690829
H            1.33894049412445       -2.05920130990153        0.73320324382346
H            1.34646257673667       -1.62003895347542       -0.97885768991772
H            2.94378441371204       -0.35957893481241        1.26597176123889
H            3.38798533357387       -0.54820753379781       -0.42483034968205
H            2.06001247111099        1.74785811243037        0.89126903649317
H            2.64218522229899        1.69085381255487       -0.76884609388314
H           -0.03973088869696        1.85045403932672       -0.27963824243870
H            0.54754856432872        0.81128195397539       -1.58432867303323
24
 energy: -314.378236686670 gnorm: 0.001175494772 xtb: 6.7.1 (edcfbbe)
C           -2.77417504120278        1.01385338759052        0.09764560682591
C           -2.47678276971274       -0.47011425098525        0.29562085932893
C           -1.16877569847953       -0.96010068776954       -0.33302045016840
C            0.11393559311776       -0.31382058372538        0.20257682719745
C            1.35147105652405       -1.21044202272543        0.03246092229057
C            2.56158178204541       -0.27871800191645        0.24132410931943
C            2.02855273094995        1.15829101523275       -0.02785977561726
C            0.57683411013889        0.97351404937369       -0.49993151478827
H           -2.05712441442023        1.64512135541962        0.63079709244260
H           -2.73892987057905        1.28703607106633       -0.96348276868949
H           -3.77244180115238        1.26301008880520        0.47343189470743
H           -2.45818767450221       -0.69483392759074        1.37076017376304
H           -3.30228787680597       -1.05857074601388       -0.12530853932644
H           -1.10586930551864       -2.04416790068060       -0.16519482352872
H           -1.20743995940585       -0.82011760835014       -1.42353414425974
H           -0.01314096894385       -0.09789894970251        1.27547518061753
H            1.34676957539407       -2.06597681827943        0.71591145606098
H            1.34943907595505       -1.60831132478169       -0.99159471656039
H            2.93842017768212       -0.35920553878476        1.26576646455336
H            3.38931012374004       -0.53954455744863       -0.42471953735242
H            2.04671446152571        1.74438000451255        0.89715445737652
H            2.63520373717503        1.69755132085735       -0.76150674992178
H           -0.04675729223174        1.84580299714228       -0.28702992358732
H            0.54934248308795        0.80265960449042       -1.58490656558756
24
 energy: -314.378242707361 gnorm: 0.000668701068 xtb: 6.7.1 (edcfbbe)
C           -2.76954130419451        1.01571187772129        0.09657892693945
C           -2.47717413153662       -0.46961159091521        0.29560264164040
C           -1.16912744549365       -0.96349972448268       -0.33026420044858
C            0.11314965120973       -0.31596109529749        0.20331620951230
C            1.35182556446357       -1.20981346337232        0.02972136308995
C            2.56066732183626       -0.27678565782162        0.23999684516964
C            2.02631338526186        1.15938344435556       -0.02707689299013
C            0.57499643651899        0.97132685703123       -0.49897775012602
H           -2.05199862873781        1.64463541431620        0.63169799182094
H           -2.73063703621579        1.28868829964252       -0.96443266439493
H           -3.76800757091896        1.26790783573165        0.46993507228958
H           -2.46154717772103       -0.69389533535889        1.37061691970212
H           -3.30316226168183       -1.05542893087273       -0.12753523636694
H           -1.10716815665178       -2.04637447635116       -0.15727349257453
H           -1.20653306836456       -0.82827754651816       -1.42103319180061
H           -0.01190745730729       -0.10089966080608        1.27666723970795
H            1.34834445931944       -2.06722617796383        0.71065168345156
H            1.34899130847685       -1.60453106238578       -0.99542196892122
H            2.93662238960281       -0.35880408558672        1.26462249096264
H            3.38940317093579       -0.53552871665131       -0.42559535284253
H            2.04225289623952        1.74403415272684        0.89883353113516
H            2.63197388783723        1.70153057637448       -0.75946294152630
H           -0.04963644983148        1.84281462545237       -0.28649695526424
H            0.54756254537449        0.80000221234842       -1.58383328519385
24
 energy: -314.378246856104 gnorm: 0.000513500705 xtb: 6.7.1 (edcfbbe)
C           -2.76393364256495        1.01753039217686        0.09486156291581
C           -2.47721753956023       -0.46912761661936        0.29565504339525
C           -1.16905800836018       -0.96680131776168       -0.32731658766574
C            0.11299545605146       -0.31803407513652        0.20427149563568
C            1.35245399169807       -1.21003408411675        0.02749264818682
C            2.55986025208015       -0.27525098032809        0.23859072293958
C            2.02251367550636        1.15971579419549       -0.02612254534791
C            0.57111599886210        0.97056539755319       -0.49752381924248
H           -2.04634764023415        1.64374514159209        0.63321312045016
H           -2.71857488136237        1.28982053222057       -0.96623245925446
H           -3.76324006411892        1.27382833568970        0.46344890826538
H           -2.46404237561348       -0.69234149799988        1.37080957728908
H           -3.30421588901421       -1.05244747651892       -0.12863869547564
H           -1.10786624539715       -2.04879366927115       -0.15018256874440
H           -1.20561376381913       -0.83567117531516       -1.41843986401879
H           -0.01080761653464       -0.10447038797824        1.27817332799426
H            1.35124447744108       -2.06934122610539        0.70611419737062
H            1.34842977461676       -1.60193584089231       -0.99875959699064
H            2.93611064433319       -0.35862628585121        1.26307858901322
H            3.38914627554920       -0.53188394341893       -0.42723062890015
H            2.03746499176699        1.74331175969356        0.90051867382756
H            2.62641796317120        1.70482349130338       -0.75783599796055
H           -0.05427553808817        1.84144206895530       -0.28461315179335
H            0.54310216430257        0.79937531592608       -1.58249291456183
24
 energy: -314.378246856104 gnorm: 0.000513500705 xtb: 6.7.1 (edcfbbe)
C           -2.76393364256495        1.01753039217686        0.09486156291581
C           -2.47721753956023       -0.46912761661936        0.29565504339525
C           -1.16905800836018       -0.96680131776168       -0.32731658766574
C            0.11299545605146       -0.31803407513652        0.20427149563568
C            1.35245399169807       -1.21003408411675        0.02749264818682
C            2.55986025208015       -0.27525098032809        0.23859072293958
C            2.02251367550636        1.15971579419549       -0.02612254534791
C            0.57111599886210        0.97056539755319       -0.49752381924248
H           -2.04634764023415        1.64374514159209        0.63321312045016
H           -2.71857488136237        1.28982053222057       -0.96623245925446
H           -3.76324006411892        1.27382833568970        0.46344890826538
H           -2.46404237561348       -0.69234149799988        1.37080957728908
H           -3.30421588901421       -1.05244747651892       -0.12863869547564
H           -1.10786624539715       -2.04879366927115       -0.15018256874440
H           -1.20561376381913       -0.83567117531516       -1.41843986401879
H           -0.01080761653464       -0.10447038797824        1.27817332799426
H            1.35124447744108       -2.06934122610539        0.70611419737062
H            1.34842977461676       -1.60193584089231       -0.99875959699064
H            2.93611064433319       -0.35862628585121        1.26307858901322
H            3.38914627554920       -0.53188394341893       -0.42723062890015
H            2.03746499176699        1.74331175969356        0.90051867382756
H            2.62641796317120        1.70482349130338       -0.75783599796055
H           -0.05427553808817        1.84144206895530       -0.28461315179335
H            0.54310216430257        0.79937531592608       -1.58249291456183
