
                                 *****************
                                 * O   R   C   A *
                                 *****************

                                            #,                                       
                                            ###                                      
                                            ####                                     
                                            #####                                    
                                            ######                                   
                                           ########,                                 
                                     ,,################,,,,,                         
                               ,,#################################,,                 
                          ,,##########################################,,             
                       ,#########################################, ''#####,          
                    ,#############################################,,   '####,        
                  ,##################################################,,,,####,       
                ,###########''''           ''''###############################       
              ,#####''   ,,,,##########,,,,          '''####'''          '####       
            ,##' ,,,,###########################,,,                        '##       
           ' ,,###''''                  '''############,,,                           
         ,,##''                                '''############,,,,        ,,,,,,###''
      ,#''                                            '''#######################'''  
     '                                                          ''''####''''         
             ,#######,   #######,   ,#######,      ##                                
            ,#'     '#,  ##    ##  ,#'     '#,    #''#        ,####,   ,####,        
            ##       ##  ##   ,#'  ##            #'  '#       #'       #'  '#        
            ##       ##  #######   ##           ,######,      #####,   #    #        
            '#,     ,#'  ##    ##  '#,     ,#' ,#      #,     #,   #   #,  ,#        
             '#######'   ##     ##  '#######'  #'      '#     '####' # '####'        



                #########################################################
                #                        -***-                          #
                #          Department of theory and spectroscopy        #
                #                                                       #
                #                      Frank Neese                      #
                #                                                       #
                #     Directorship, Architecture, Infrastructure        #
                #                    SHARK, DRIVERS                     #
                #        Core code/Algorithms in most modules           #
                #                                                       #
                #        Max Planck Institute fuer Kohlenforschung      #
                #                Kaiser Wilhelm Platz 1                 #
                #                 D-45470 Muelheim/Ruhr                 #
                #                      Germany                          #
                #                                                       #
                #                  All rights reserved                  #
                #                        -***-                          #
                #########################################################


                         Program Version 6.0.0  -   RELEASE  -


 With contributions from (in alphabetic order):
   Daniel Aravena         : Magnetic Suceptibility
   Michael Atanasov       : Ab Initio Ligand Field Theory (pilot matlab implementation)
   Alexander A. Auer      : GIAO ZORA, VPT2 properties, NMR spectrum
   Ute Becker             : All parallelization in ORCA, NUMFREQ, NUMCALC
   Giovanni Bistoni       : ED, misc. LED, open-shell LED, HFLD
   Martin Brehm           : Molecular dynamics
   Dmytro Bykov           : pre 5.0 version of the SCF Hessian
   Marcos Casanova-Páez   : Triplet and SCS-CIS(D). UHF-(DLPNO)-IP/EA/STEOM-CCSD. UHF-CVS-IP/STEOM-CCSD
   Vijay G. Chilkuri      : MRCI spin determinant printing, contributions to CSF-ICE
   Pauline Colinet        : FMM embedding
   Dipayan Datta          : RHF DLPNO-CCSD density
   Achintya Kumar Dutta   : EOM-CC, STEOM-CC
   Nicolas Foglia         : Exact transition moments, OPA infrastructure, MCD improvements
   Dmitry Ganyushin       : Spin-Orbit,Spin-Spin,Magnetic field MRCI
   Miquel Garcia          : C-PCM and meta-GGA Hessian, CCSD/C-PCM, Gaussian charge scheme
   Tiago L. C. Gouveia    : GS-ROHF, GS-ROCIS
   Yang Guo               : DLPNO-NEVPT2, F12-NEVPT2, CIM, IAO-localization
   Andreas Hansen         : Spin unrestricted coupled pair/coupled cluster methods
   Ingolf Harden          : AUTO-CI MPn and infrastructure 
   Benjamin Helmich-Paris : MC-RPA, TRAH-(SCF,CASSCF), AVAS, COSX integrals, SCF dyn. polar.
   Lee Huntington         : MR-EOM, pCC
   Robert Izsak           : Overlap fitted RIJCOSX, COSX-SCS-MP3, EOM
   Riya Kayal             : Wick's Theorem for AUTO-CI, AUTO-CI UHF-CCSDT
   Emily Kempfer          : AUTO-CI, RHF CISDT and CCSDT
   Christian Kollmar      : KDIIS, OOCD, Brueckner-CCSD(T), CCSD density, CASPT2, CASPT2-K, improved NEVPT2
   Axel Koslowski         : Symmetry handling
   Simone Kossmann        : Meta GGA functionals, TD-DFT gradient, OOMP2, (MP2 Hessian; deprecated post 5.0)
   Lucas Lang             : DCDCAS
   Marvin Lechner         : AUTO-CI (C++ implementation), FIC-MRCC
   Spencer Leger          : CASSCF response
   Dagmar Lenk            : GEPOL surface, SMD, ORCA-2-JSON
   Dimitrios Liakos       : Extrapolation schemes; Compound Job, initial MDCI parallelization
   Dimitrios Manganas     : Further ROCIS development; embedding schemes. LFT, Crystal Embedding
   Dimitrios Pantazis     : SARC Basis sets
   Anastasios Papadopoulos: AUTO-CI, single reference methods and gradients
   Taras Petrenko         : pre 6.0 DFT Hessian and TD-DFT gradient, (ASA, deprecated), ECA, 1-Electron XAS/XES, NRVS
   Peter Pinski           : DLPNO-MP2, DLPNO-MP2 Gradient
   Christoph Reimann      : Effective Core Potentials
   Marius Retegan         : Local ZFS, SOC
   Christoph Riplinger    : Optimizer, TS searches, QM/MM, DLPNO-CCSD(T), (RO)-DLPNO pert. Triples
   Michael Roemelt        : Original ROCIS implementation
   Masaaki Saitow         : Open-shell DLPNO-CCSD energy and density
   Barbara Sandhoefer     : DKH picture change effects
   Kantharuban Sivalingam : CASSCF convergence/infrastructure, NEVPT2 and variants, FIC-MRCI
   Bernardo de Souza      : ESD, SOC TD-DFT
   Georgi Stoychev        : AutoAux, RI-MP2 NMR, DLPNO-MP2 response, X2C
   Van Anh Tran           : RI-MP2 g-tensors
   Willem Van den Heuvel  : Paramagnetic NMR
   Zikuan Wang            : NOTCH, Electric field optimization 
   Frank Wennmohs         : Technical directorship and infrastructure
   Hang Xu                : AUTO-CI-Response properties 


 We gratefully acknowledge several colleagues who have allowed us to
 interface, adapt or use parts of their codes:
   Stefan Grimme, W. Hujo, H. Kruse, P. Pracht,  : VdW corrections, initial TS optimization,
                  C. Bannwarth, S. Ehlert,         DFT functionals, gCP, sTDA/sTD-DF
                  L. Wittmann, M. Mueller
   Ed Valeev, F. Pavosevic, A. Kumar             : LibInt (2-el integral package), F12 methods
   Garnet Chan, S. Sharma, J. Yang, R. Olivares  : DMRG
   Ulf Ekstrom                                   : XCFun DFT Library
   Mihaly Kallay                                 : mrcc  (arbitrary order and MRCC methods)
   Frank Weinhold                                : gennbo (NPA and NBO analysis)
   Simon Mueller                                 : openCOSMO-RS
   Christopher J. Cramer and Donald G. Truhlar   : smd solvation model
   Lars Goerigk                                  : TD-DFT with DH, B97 family of functionals
   V. Asgeirsson, H. Jonsson                     : NEB implementation
   FAccTs GmbH                                   : IRC, NEB, NEB-TS, DLPNO-Multilevel, CI-OPT
                                                   MM, QMMM, 2- and 3-layer-ONIOM, Crystal-QMMM,
                                                   LR-CPCM, SF, NACMEs, symmetry and pop. for TD-DFT,
                                                   nearIR, NL-DFT gradient (VV10), updates on ESD,
                                                   ML-optimized integration grids, MBIS, APM,
                                                   GOAT, DOCKER, SOLVATOR, interface openCOSMO-RS
   S Lehtola, MJT Oliveira, MAL Marques          : LibXC Library
   Liviu Ungur et al                             : ANISO software


 Your calculation uses the libint2 library for the computation of 2-el integrals
 For citations please refer to: http://libint.valeyev.net

 Your ORCA version has been built with support for libXC version: 6.2.2
 For citations please refer to: https://libxc.gitlab.io

 This ORCA versions uses:
   CBLAS   interface :  Fast vector & matrix operations
   LAPACKE interface :  Fast linear algebra routines
   SCALAPACK package :  Parallel linear algebra routines
   Shared memory     :  Shared parallel matrices
   BLAS/LAPACK       :  OpenBLAS 0.3.27  USE64BITINT DYNAMIC_ARCH NO_AFFINITY SkylakeX SINGLE_THREADED
        Core in use  :  SkylakeX
   Copyright (c) 2011-2014, The OpenBLAS Project


Your calculation utilizes the geometrical counterpoise correction gCP
Please cite in your paper:
H.Kruse, S. Grimme J.Chem.Phys., 136, (2012), 154101 
   

Your calculation utilizes the atom-pairwise dispersion correction
based on EEQ partial charges (D4)


================================================================================

----- Orbital basis set information -----
Your calculation utilizes the basis: def2-SV(P)
   F. Weigend and R. Ahlrichs, Phys. Chem. Chem. Phys. 7, 3297 (2005).

----- AuxJ basis set information -----
Your calculation utilizes the auxiliary basis: def2/J
   F. Weigend, Phys. Chem. Chem. Phys. 8, 1057 (2006).

================================================================================
                                        WARNINGS
                       Please study these warnings very carefully!
================================================================================


================================================================================
                                       INPUT FILE
================================================================================
NAME = sp.inp
|  1> ! pbe def2-sv(p) def2/J RI DEFGRID1 loosescf d4 GCP(DFT/SV(P)) printgap
|  2> %output
|  3>     printlevel normal
|  4> end
|  5> * xyz 0 1
|  6> C -2.9274801876 1.4359774837 -0.0039514534
|  7> O -2.585433985 0.0611393161 0.0012587363
|  8> C -1.2776369947 -0.3377331525 0.0006644167
|  9> C -1.1017516111 -1.7239816375 -0.0005671237
| 10> C 0.1546596918 -2.2840038757 -0.0009301399
| 11> C 1.2826486789 -1.477762265 -0.000480832
| 12> C 1.1268432419 -0.1041736552 0.0006670287
| 13> C -0.1506070372 0.48404493 0.0016329146
| 14> O -0.2397338002 1.8531338869 0.0036163274
| 15> O 2.1563625663 0.8104844209 0.0010951198
| 16> C 3.484560981 0.3269045199 -0.0027033112
| 17> H -2.5498859025 1.9436779374 0.8849363933
| 18> H -4.0156696564 1.4502850486 -0.0047567319
| 19> H -2.54866321 1.9369999326 -0.8961304144
| 20> H -1.990325438 -2.3333970806 -0.0011924062
| 21> H 0.2654423298 -3.3560656848 -0.0018080322
| 22> H 2.2622316384 -1.9242846938 -0.0009514122
| 23> H 0.6631006785 2.2114855238 0.0037037727
| 24> H 4.1115245131 1.2156849597 -0.0034281174
| 25> H 3.6842991798 -0.2663691211 -0.8982208041
| 26> H 3.6888730012 -0.268102443 0.8906277914
| 27> *
| 28> 
| 29>                          ****END OF INPUT****
================================================================================

                       ****************************
                       * Single Point Calculation *
                       ****************************

---------------------------------
CARTESIAN COORDINATES (ANGSTROEM)
---------------------------------
  C     -2.927480    1.435977   -0.003951
  O     -2.585434    0.061139    0.001259
  C     -1.277637   -0.337733    0.000664
  C     -1.101752   -1.723982   -0.000567
  C      0.154660   -2.284004   -0.000930
  C      1.282649   -1.477762   -0.000481
  C      1.126843   -0.104174    0.000667
  C     -0.150607    0.484045    0.001633
  O     -0.239734    1.853134    0.003616
  O      2.156363    0.810484    0.001095
  C      3.484561    0.326905   -0.002703
  H     -2.549886    1.943678    0.884936
  H     -4.015670    1.450285   -0.004757
  H     -2.548663    1.937000   -0.896130
  H     -1.990325   -2.333397   -0.001192
  H      0.265442   -3.356066   -0.001808
  H      2.262232   -1.924285   -0.000951
  H      0.663101    2.211486    0.003704
  H      4.111525    1.215685   -0.003428
  H      3.684299   -0.266369   -0.898221
  H      3.688873   -0.268102    0.890628

----------------------------
CARTESIAN COORDINATES (A.U.)
----------------------------
  NO LB      ZA    FRAG     MASS         X           Y           Z
   0 C     6.0000    0    12.011   -5.532136    2.713604   -0.007467
   1 O     8.0000    0    15.999   -4.885762    0.115537    0.002379
   2 C     6.0000    0    12.011   -2.414384   -0.638223    0.001256
   3 C     6.0000    0    12.011   -2.082009   -3.257853   -0.001072
   4 C     6.0000    0    12.011    0.292264   -4.316142   -0.001758
   5 C     6.0000    0    12.011    2.423855   -2.792566   -0.000909
   6 C     6.0000    0    12.011    2.129425   -0.196860    0.001261
   7 C     6.0000    0    12.011   -0.284606    0.914712    0.003086
   8 O     8.0000    0    15.999   -0.453031    3.501916    0.006834
   9 O     8.0000    0    15.999    4.074935    1.531594    0.002069
  10 C     6.0000    0    12.011    6.584866    0.617760   -0.005109
  11 H     1.0000    0     1.008   -4.818586    3.673019    1.672287
  12 H     1.0000    0     1.008   -7.588516    2.740642   -0.008989
  13 H     1.0000    0     1.008   -4.816275    3.660399   -1.693441
  14 H     1.0000    0     1.008   -3.761170   -4.409481   -0.002253
  15 H     1.0000    0     1.008    0.501613   -6.342045   -0.003417
  16 H     1.0000    0     1.008    4.274998   -3.636371   -0.001798
  17 H     1.0000    0     1.008    1.253079    4.179102    0.006999
  18 H     1.0000    0     1.008    7.769655    2.297312   -0.006478
  19 H     1.0000    0     1.008    6.962316   -0.503365   -1.697391
  20 H     1.0000    0     1.008    6.970960   -0.506640    1.683043

--------------------------------
INTERNAL COORDINATES (ANGSTROEM)
--------------------------------
 C      0   0   0     0.000000000000     0.00000000     0.00000000
 O      1   0   0     1.416757826123     0.00000000     0.00000000
 C      2   1   0     1.367271943419   120.93212225     0.00000000
 C      3   2   1     1.397362532423   114.19246891   180.30473899
 C      4   3   2     1.375570572931   121.25502135   180.01757750
 C      5   4   3     1.386500952658   120.42027276     0.00000000
 C      6   5   4     1.382397309298   119.08430873     0.00000000
 C      3   2   1     1.394817794541   126.94068347     0.32907188
 O      8   3   2     1.371988369380   122.37316020     0.00000000
 O      7   6   5     1.377138198857   125.14754909   180.00649648
 C     10   7   6     1.413497427497   118.37500261     0.13896952
 H      1   2   3     1.091081481301   111.40772773   298.62097279
 H      1   2   3     1.088283820928   104.72432296   179.85623593
 H      1   2   3     1.091104529947   111.39452621    61.09931902
 H      4   3   2     1.077474370516   117.21275169     0.00000000
 H      5   4   3     1.077770887577   119.92382555   179.99525307
 H      6   5   4     1.076552495427   119.93943172   180.01115897
 H      9   8   3     0.971352664713   107.92436750   180.01596482
 H     11  10   7     1.087664684587   105.19404418   179.89884408
 H     11  10   7     1.092620950401   111.08423705    61.22444219
 H     11  10   7     1.092619396849   111.08897316   298.57388375

---------------------------
INTERNAL COORDINATES (A.U.)
---------------------------
 C      0   0   0     0.000000000000     0.00000000     0.00000000
 O      1   0   0     2.677284289461     0.00000000     0.00000000
 C      2   1   0     2.583769523656   120.93212225     0.00000000
 C      3   2   1     2.640632496083   114.19246891   180.30473899
 C      4   3   2     2.599451660721   121.25502135   180.01757750
 C      5   4   3     2.620107084944   120.42027276     0.00000000
 C      6   5   4     2.612352322843   119.08430873     0.00000000
 C      3   2   1     2.635823638402   126.94068347     0.32907188
 O      8   3   2     2.592682277054   122.37316020     0.00000000
 O      7   6   5     2.602414044401   125.14754909   180.00649648
 C     10   7   6     2.671123028972   118.37500261     0.13896952
 H      1   2   3     2.061845189452   111.40772773   298.62097279
 H      1   2   3     2.056558377532   104.72432296   179.85623593
 H      1   2   3     2.061888745081   111.39452621    61.09931902
 H      4   3   2     2.036131476594   117.21275169     0.00000000
 H      5   4   3     2.036691812633   119.92382555   179.99525307
 H      6   5   4     2.034389385146   119.93943172   180.01115897
 H      9   8   3     1.835590515762   107.92436750   180.01596482
 H     11  10   7     2.055388379408   105.19404418   179.89884408
 H     11  10   7     2.064754364443   111.08423705    61.22444219
 H     11  10   7     2.064751428654   111.08897316   298.57388375

---------------------
BASIS SET INFORMATION
---------------------
There are 3 groups of distinct atoms

 Group   1 Type C   : 7s4p1d contracted to 3s2p1d pattern {511/31/1}
 Group   2 Type O   : 7s4p1d contracted to 3s2p1d pattern {511/31/1}
 Group   3 Type H   : 4s contracted to 2s pattern {31}

Atom   0C    basis set group =>   1
Atom   1O    basis set group =>   2
Atom   2C    basis set group =>   1
Atom   3C    basis set group =>   1
Atom   4C    basis set group =>   1
Atom   5C    basis set group =>   1
Atom   6C    basis set group =>   1
Atom   7C    basis set group =>   1
Atom   8O    basis set group =>   2
Atom   9O    basis set group =>   2
Atom  10C    basis set group =>   1
Atom  11H    basis set group =>   3
Atom  12H    basis set group =>   3
Atom  13H    basis set group =>   3
Atom  14H    basis set group =>   3
Atom  15H    basis set group =>   3
Atom  16H    basis set group =>   3
Atom  17H    basis set group =>   3
Atom  18H    basis set group =>   3
Atom  19H    basis set group =>   3
Atom  20H    basis set group =>   3
---------------------------------
AUXILIARY/J BASIS SET INFORMATION
---------------------------------
There are 3 groups of distinct atoms

 Group   1 Type C   : 12s5p4d2f1g contracted to 6s4p3d1f1g pattern {711111/2111/211/2/1}
 Group   2 Type O   : 12s5p4d2f1g contracted to 6s4p3d1f1g pattern {711111/2111/211/2/1}
 Group   3 Type H   : 5s2p1d contracted to 3s1p1d pattern {311/2/1}

Atom   0C    basis set group =>   1
Atom   1O    basis set group =>   2
Atom   2C    basis set group =>   1
Atom   3C    basis set group =>   1
Atom   4C    basis set group =>   1
Atom   5C    basis set group =>   1
Atom   6C    basis set group =>   1
Atom   7C    basis set group =>   1
Atom   8O    basis set group =>   2
Atom   9O    basis set group =>   2
Atom  10C    basis set group =>   1
Atom  11H    basis set group =>   3
Atom  12H    basis set group =>   3
Atom  13H    basis set group =>   3
Atom  14H    basis set group =>   3
Atom  15H    basis set group =>   3
Atom  16H    basis set group =>   3
Atom  17H    basis set group =>   3
Atom  18H    basis set group =>   3
Atom  19H    basis set group =>   3
Atom  20H    basis set group =>   3
------------------------------------------------------------------------------
                             ORCA STARTUP CALCULATIONS
                           -- RI-GTO INTEGRALS CHOSEN --
------------------------------------------------------------------------------
------------------------------------------------------------------------------
                   ___                                                        
                  /   \      - P O W E R E D   B Y -                         
                 /     \                                                     
                 |  |  |   _    _      __       _____    __    __             
                 |  |  |  | |  | |    /  \     |  _  \  |  |  /  |          
                  \  \/   | |  | |   /    \    | | | |  |  | /  /          
                 / \  \   | |__| |  /  /\  \   | |_| |  |  |/  /          
                |  |  |   |  __  | /  /__\  \  |    /   |      \           
                |  |  |   | |  | | |   __   |  |    \   |  |\   \          
                \     /   | |  | | |  |  |  |  | |\  \  |  | \   \       
                 \___/    |_|  |_| |__|  |__|  |_| \__\ |__|  \__/        
                                                                              
                      - O R C A' S   B I G   F R I E N D -                    
                                      &                                       
                       - I N T E G R A L  F E E D E R -                       
                                                                              
 v1 FN, 2020, v2 2021, v3 2022-2024                                           
------------------------------------------------------------------------------


----------------------
SHARK INTEGRAL PACKAGE
----------------------

Number of atoms                             ...     21
Number of basis functions                   ...    174
Number of shells                            ...     86
Maximum angular momentum                    ...      2
Integral batch strategy                     ... SHARK/LIBINT Hybrid
RI-J (if used) integral strategy            ... SPLIT-RIJ (Revised 2003 algorithm where possible)
Printlevel                                  ...      1
Contraction scheme used                     ... SEGMENTED contraction
Prescreening option                         ... SCHWARTZ
   Thresh                                   ... 1.000e-09
   Tcut                                     ... 1.000e-10
   Tpresel                                  ... 1.000e-10 
Coulomb Range Separation                    ... NOT USED
Exchange Range Separation                   ... NOT USED
Multipole approximations                    ... NOT USED
Finite Nucleus Model                        ... NOT USED
CABS basis                                  ... NOT available
Auxiliary Coulomb fitting basis             ... AVAILABLE
   # of basis functions in Aux-J            ...    649
   # of shells in Aux-J                     ...    215
   Maximum angular momentum in Aux-J        ...      4
Auxiliary J/K fitting basis                 ... NOT available
Auxiliary Correlation fitting basis         ... NOT available
Auxiliary 'external' fitting basis          ... NOT available

Checking pre-screening integrals            ... done (  0.0 sec) Dimension = 86
Check shell pair data                       ... done (  0.0 sec)
Shell pair information
Shell pair cut-off parameter TPreSel        ...   1.0e-10
Total number of shell pairs                 ...      3741
Shell pairs after pre-screening             ...      3364
Total number of primitive shell pairs       ...     15051
Primitive shell pairs kept                  ...      9091
          la=0 lb=0:   1243 shell pairs
          la=1 lb=0:   1090 shell pairs
          la=1 lb=1:    249 shell pairs
          la=2 lb=0:    496 shell pairs
          la=2 lb=1:    229 shell pairs
          la=2 lb=2:     57 shell pairs

Calculating one electron integrals          ... done (  0.0 sec)
Calculating RI/J V-Matrix + Cholesky decomp.... done (  0.1 sec)
Calculating Nuclear repulsion               ... done (  0.0 sec) ENN=    622.547558110825 Eh

Diagonalization of the overlap matrix:
Smallest eigenvalue                        ... 1.613e-04
Time for diagonalization                   ...    0.003 sec
Threshold for overlap eigenvalues          ... 1.000e-07
Number of eigenvalues below threshold      ... 0
Time for construction of square roots      ...    0.013 sec
Total time needed                          ...    0.025 sec

-------------------
DFT GRID GENERATION
-------------------

General Integration Accuracy     IntAcc      ... 4.159
Radial Grid Type                 RadialGrid  ... OptM3 with GC (2021)
Angular Grid (max. ang.)         AngularGrid ... 3 (Lebedev-194)
Angular grid pruning method      GridPruning ... 4 (adaptive)
Weight generation scheme         WeightScheme... mBecke (2022)
Basis function cutoff            BFCut       ... 1.0000e-10
Integration weight cutoff        WCut        ... 1.0000e-14
Partially contracted basis set               ... off
Rotationally invariant grid construction     ... off
Angular grids for H and He will be reduced by one unit

Total number of grid points                  ...    49996
Total number of batches                      ...      790
Average number of points per batch           ...       63
Average number of grid points per atom       ...     2381
Initializing property integral containers    ... done (  0.0 sec)

SHARK setup successfully completed in   0.8 seconds

Maximum memory used throughout the entire STARTUP-calculation: 24.9 MB
-------------------------------------------------------------------------------
                                 ORCA GUESS
                   Start orbitals & Density for SCF / CASSCF
-------------------------------------------------------------------------------

------------
SCF SETTINGS
------------
Hamiltonian:
 Density Functional     Method          .... DFT(GTOs)
 Exchange Functional    Exchange        .... PBE
   PBE kappa parameter   XKappa         ....  0.804000
   PBE mue parameter    XMuePBE         ....  0.219520
 Correlation Functional Correlation     .... PBE
   PBE beta parameter  CBetaPBE         ....  0.066725
 LDA part of GGA corr.  LDAOpt          .... PW91-LDA
 Gradients option       PostSCFGGA      .... off
   NL short-range parameter             ....  6.400000
 RI-approximation to the Coulomb term is turned on
   Number of AuxJ basis functions       .... 649


General Settings:
 Integral files         IntName         .... sp
 Hartree-Fock type      HFTyp           .... RHF
 Total Charge           Charge          ....    0
 Multiplicity           Mult            ....    1
 Number of Electrons    NEL             ....   82
 Basis Dimension        Dim             ....  174
 Nuclear Repulsion      ENuc            ....    622.5475581108 Eh

Convergence Acceleration:
 AO-DIIS                CNVDIIS         .... on
   Start iteration      DIISMaxIt       ....    12
   Startup error        DIISStart       ....  0.200000
   # of expansion vecs  DIISMaxEq       ....     5
   Bias factor          DIISBfac        ....   1.050
   Max. coefficient     DIISMaxC        ....  10.000
 MO-DIIS                CNVKDIIS        .... off
 Trust-Rad. Augm. Hess. CNVTRAH         .... auto
   Auto Start mean grad. ratio tolernc. ....  1.125000
   Auto Start start iteration           ....    50
   Auto Start num. interpolation iter.  ....    10
   Max. Number of Micro iterations      ....    24
   Max. Number of Macro iterations      .... Maxiter - #DIIS iter
   Number of Davidson start vectors     ....     2
   Converg. threshold    (grad. norm)   ....   1.000e-04
   Grad. Scal. Fac. for Micro threshold ....   0.100
   Minimum threshold for Micro iter.    ....   1.000e-02
   NR start threshold (gradient norm)   ....   1.000e-04
   Initial trust radius                 ....   0.400
   Minimum AH scaling param. (alpha)    ....   1.000
   Maximum AH scaling param. (alpha)    .... 1000.000
   Quad. conv. algorithm                .... NR
   White noise on init. David. guess    .... on
   Maximum white noise                  ....   0.010
   Pseudo random numbers                .... off
   Inactive MOs                         .... canonical
   Orbital update algorithm             .... Taylor
   Preconditioner                       .... Diag
   Full preconditioner red. dimension   ....   250
 SOSCF                  CNVSOSCF        .... on
   Start iteration      SOSCFMaxIt      ....   150
   Startup grad/error   SOSCFStart      ....  0.003300
   Hessian update       SOSCFHessUp     .... L-BFGS
 Level Shifting         CNVShift        .... on
   Level shift para.    LevelShift      ....    0.2500
   Turn off err/grad.   ShiftErr        ....    0.0010
 Zerner damping         CNVZerner       .... off
 Static damping         CNVDamp         .... on
   Fraction old density DampFac         ....    0.7000
   Max. Damping (<1)    DampMax         ....    0.9800
   Min. Damping (>=0)   DampMin         ....    0.0000
   Turn off err/grad.   DampErr         ....    0.1000

SCF Procedure:
 Maximum # iterations   MaxIter         ....   125
 SCF integral mode      SCFMode         .... Direct
   Integral package                     .... SHARK and LIBINT hybrid scheme
 Reset frequency        DirectResetFreq ....    20
 Integral Threshold     Thresh          ....  1.000e-09 Eh
 Primitive CutOff       TCut            ....  1.000e-10 Eh

Convergence Tolerance:
 Convergence Check Mode ConvCheckMode   .... Total+1el-Energy
 Convergence forced     ConvForced      .... 0
 Energy Change          TolE            ....  1.000e-05 Eh
 1-El. energy change                    ....  1.000e-02 Eh
 Orbital Gradient       TolG            ....  1.000e-04
 Orbital Rotation angle TolX            ....  1.000e-04
 DIIS Error             TolErr          ....  5.000e-04

------------------------------
INITIAL GUESS: MODEL POTENTIAL
------------------------------
Loading Hartree-Fock densities                     ... done
Calculating cut-offs                               ... done
Initializing the effective Hamiltonian             ... done
Setting up the integral package (SHARK)            ... done
Starting the Coulomb interaction                   ... done (   0.2 sec)
Making the grid                                    ... done (   0.2 sec)
Mapping shells                                     ... done
Starting the XC term evaluation                    ... done (   0.2 sec)
  promolecular density results
     # of electrons  =     81.996644486
     EX              =    -68.376363402
     EC              =     -2.749117126
     EX+EC           =    -71.125480529
Transforming the Hamiltonian                       ... done (   0.0 sec)
Diagonalizing the Hamiltonian                      ... done (   0.0 sec)
Back transforming the eigenvectors                 ... done (   0.0 sec)
Now organizing SCF variables                       ... done
                      ------------------
                      INITIAL GUESS DONE (   0.7 sec)
                      ------------------
             **** ENERGY FILE WAS UPDATED (sp.en.tmp) ****
Finished Guess after   0.9 sec
Maximum memory used throughout the entire GUESS-calculation: 19.3 MB

-------------------------------------------------------------------------------------------
                                      ORCA LEAN-SCF
                              memory conserving SCF solver
-------------------------------------------------------------------------------------------

----------------------------------------D-I-I-S--------------------------------------------
Iteration    Energy (Eh)           Delta-E    RMSDP     MaxDP     DIISErr   Damp  Time(sec)
-------------------------------------------------------------------------------------------
               ***  Starting incremental Fock matrix formation  ***
    1    -535.2530673159673142     0.00e+00  3.67e-03  6.09e-02  1.87e-01  0.700   1.1
    2    -535.3486624196513048    -9.56e-02  2.59e-03  4.18e-02  7.44e-02  0.700   1.1
                               ***Turning on AO-DIIS***
    3    -535.3833393439653037    -3.47e-02  1.09e-03  1.51e-02  2.09e-02  0.700   1.1
    4    -535.4041941609890500    -2.09e-02  1.78e-03  3.21e-02  1.06e-02  0.000   1.0
    5    -535.4506405963924180    -4.64e-02  4.67e-04  9.54e-03  8.37e-03  0.000   1.1
                              *** Initializing SOSCF ***
---------------------------------------S-O-S-C-F--------------------------------------
Iteration    Energy (Eh)           Delta-E    RMSDP     MaxDP     MaxGrad    Time(sec)
--------------------------------------------------------------------------------------
    6    -535.4510323478529017    -3.92e-04  1.51e-04  2.42e-03  2.09e-03     1.0
               *** Restarting incremental Fock matrix formation ***
    7    -535.4510789906599939    -4.66e-05  9.36e-05  1.78e-03  1.85e-04     1.1
    8    -535.4510800125118521    -1.02e-06  3.95e-05  7.58e-04  2.99e-04     1.0
                 **** Energy Check signals convergence ****

               *****************************************************
               *                     SUCCESS                       *
               *           SCF CONVERGED AFTER   8 CYCLES          *
               *****************************************************

             **** ENERGY FILE WAS UPDATED (sp.en.tmp) ****

----------------
TOTAL SCF ENERGY
----------------

Total Energy       :       -535.45108001251185 Eh          -14570.36463 eV

Components:
Nuclear Repulsion  :        622.54755811082521 Eh           16940.38029 eV
Electronic Energy  :      -1157.99863812333706 Eh          -31510.74492 eV
One Electron Energy:      -1964.39226917528640 Eh          -53453.83118 eV
Two Electron Energy:        806.39363105194934 Eh           21943.08627 eV

Virial components:
Potential Energy   :      -1066.65216011381472 Eh          -29025.08088 eV
Kinetic Energy     :        531.20108010130286 Eh           14454.71625 eV
Virial Ratio       :          2.00800073657681

DFT components:
N(Alpha)           :       41.000029221289 electrons
N(Beta)            :       41.000029221289 electrons
N(Total)           :       82.000058442578 electrons
E(X)               :      -69.508713557378 Eh       
E(C)               :       -2.763203657590 Eh       
E(XC)              :      -72.271917214968 Eh       

---------------
SCF CONVERGENCE
---------------

  Last Energy change         ...    1.0219e-06  Tolerance :   1.0000e-05
  Last MAX-Density change    ...    7.5837e-04  Tolerance :   1.0000e-03
  Last RMS-Density change    ...    3.9501e-05  Tolerance :   1.0000e-04
  Last DIIS Error            ...    2.0859e-03  Tolerance :   5.0000e-04
  Last Orbital Gradient      ...    2.9931e-04  Tolerance :   1.0000e-04
  Last Orbital Rotation      ...    1.0614e-03  Tolerance :   1.0000e-04


----------------
ORBITAL ENERGIES
----------------

  NO   OCC          E(Eh)            E(eV) 
   0   2.0000     -18.798146      -511.5236 
   1   2.0000     -18.773788      -510.8607 
   2   2.0000     -18.773453      -510.8516 
   3   2.0000      -9.948536      -270.7134 
   4   2.0000      -9.947064      -270.6734 
   5   2.0000      -9.944313      -270.5985 
   6   2.0000      -9.942923      -270.5607 
   7   2.0000      -9.921888      -269.9883 
   8   2.0000      -9.882071      -268.9048 
   9   2.0000      -9.881664      -268.8937 
  10   2.0000      -9.874461      -268.6977 
  11   2.0000      -0.981537       -26.7090 
  12   2.0000      -0.957077       -26.0434 
  13   2.0000      -0.940561       -25.5940 
  14   2.0000      -0.764615       -20.8062 
  15   2.0000      -0.684777       -18.6337 
  16   2.0000      -0.670168       -18.2362 
  17   2.0000      -0.632201       -17.2031 
  18   2.0000      -0.611678       -16.6446 
  19   2.0000      -0.547678       -14.9031 
  20   2.0000      -0.529308       -14.4032 
  21   2.0000      -0.502496       -13.6736 
  22   2.0000      -0.471251       -12.8234 
  23   2.0000      -0.450086       -12.2475 
  24   2.0000      -0.430469       -11.7136 
  25   2.0000      -0.428192       -11.6517 
  26   2.0000      -0.406438       -11.0597 
  27   2.0000      -0.405654       -11.0384 
  28   2.0000      -0.397501       -10.8166 
  29   2.0000      -0.370133       -10.0718 
  30   2.0000      -0.357866        -9.7380 
  31   2.0000      -0.346739        -9.4352 
  32   2.0000      -0.326644        -8.8884 
  33   2.0000      -0.313579        -8.5329 
  34   2.0000      -0.299939        -8.1618 
  35   2.0000      -0.296070        -8.0565 
  36   2.0000      -0.294652        -8.0179 
  37   2.0000      -0.267403        -7.2764 
  38   2.0000      -0.257481        -7.0064 
  39   2.0000      -0.184294        -5.0149 
  40   2.0000      -0.168914        -4.5964 
  41   0.0000      -0.011468        -0.3121 
  42   0.0000      -0.008415        -0.2290 
  43   0.0000       0.025889         0.7045 
  44   0.0000       0.042393         1.1536 
  45   0.0000       0.069503         1.8913 
  46   0.0000       0.077877         2.1191 
  47   0.0000       0.089696         2.4408 
  48   0.0000       0.097267         2.6468 
  49   0.0000       0.106076         2.8865 
  50   0.0000       0.106364         2.8943 
  51   0.0000       0.113493         3.0883 
*Only the first 10 virtual orbitals were printed.

                    ********************************
                    * MULLIKEN POPULATION ANALYSIS *
                    ********************************

-----------------------
MULLIKEN ATOMIC CHARGES
-----------------------
   0 C :   -0.095751
   1 O :   -0.273222
   2 C :    0.144542
   3 C :   -0.125304
   4 C :   -0.052153
   5 C :   -0.217387
   6 C :    0.220020
   7 C :    0.069863
   8 O :   -0.359734
   9 O :   -0.320596
  10 C :   -0.108022
  11 H :    0.109853
  12 H :    0.111460
  13 H :    0.109550
  14 H :    0.037056
  15 H :    0.046409
  16 H :    0.027673
  17 H :    0.319393
  18 H :    0.124059
  19 H :    0.116135
  20 H :    0.116158
Sum of atomic charges:    0.0000000

--------------------------------
MULLIKEN REDUCED ORBITAL CHARGES
--------------------------------
  0 C s       :     3.119240  s :     3.119240
      pz      :     1.102751  p :     2.922113
      px      :     1.062218
      py      :     0.757144
      dz2     :     0.008800  d :     0.054399
      dxz     :     0.002882
      dyz     :     0.016480
      dx2y2   :     0.017209
      dxy     :     0.009028

  1 O s       :     3.728557  s :     3.728557
      pz      :     1.782372  p :     4.528462
      px      :     1.387091
      py      :     1.358999
      dz2     :     0.002231  d :     0.016204
      dxz     :     0.002478
      dyz     :     0.002014
      dx2y2   :     0.006633
      dxy     :     0.002847

  2 C s       :     2.954144  s :     2.954144
      pz      :     1.031729  p :     2.830967
      px      :     0.872093
      py      :     0.927144
      dz2     :     0.005007  d :     0.070347
      dxz     :     0.016596
      dyz     :     0.007809
      dx2y2   :     0.020753
      dxy     :     0.020182

  3 C s       :     3.307324  s :     3.307324
      pz      :     1.056900  p :     2.785141
      px      :     0.763443
      py      :     0.964798
      dz2     :     0.003288  d :     0.032839
      dxz     :     0.003807
      dyz     :     0.005212
      dx2y2   :     0.010143
      dxy     :     0.010389

  4 C s       :     3.183915  s :     3.183915
      pz      :     1.020772  p :     2.831885
      px      :     0.971835
      py      :     0.839278
      dz2     :     0.003193  d :     0.036353
      dxz     :     0.008204
      dyz     :     0.002032
      dx2y2   :     0.013543
      dxy     :     0.009381

  5 C s       :     3.323164  s :     3.323164
      pz      :     1.102272  p :     2.860693
      px      :     0.769058
      py      :     0.989363
      dz2     :     0.003404  d :     0.033530
      dxz     :     0.002795
      dyz     :     0.006550
      dx2y2   :     0.012006
      dxy     :     0.008775

  6 C s       :     2.938010  s :     2.938010
      pz      :     1.055847  p :     2.773955
      px      :     0.917003
      py      :     0.801105
      dz2     :     0.005051  d :     0.068015
      dxz     :     0.011522
      dyz     :     0.012071
      dx2y2   :     0.016488
      dxy     :     0.022883

  7 C s       :     3.037605  s :     3.037605
      pz      :     1.088501  p :     2.825517
      px      :     1.002336
      py      :     0.734680
      dz2     :     0.005178  d :     0.067015
      dxz     :     0.006434
      dyz     :     0.017124
      dx2y2   :     0.019389
      dxy     :     0.018890

  8 O s       :     3.756316  s :     3.756316
      pz      :     1.837695  p :     4.587430
      px      :     1.444240
      py      :     1.305494
      dz2     :     0.002721  d :     0.015988
      dxz     :     0.000748
      dyz     :     0.002343
      dx2y2   :     0.006572
      dxy     :     0.003605

  9 O s       :     3.744686  s :     3.744686
      pz      :     1.799659  p :     4.560005
      px      :     1.190319
      py      :     1.570026
      dz2     :     0.002095  d :     0.015906
      dxz     :     0.002576
      dyz     :     0.001887
      dx2y2   :     0.003204
      dxy     :     0.006143

 10 C s       :     3.129908  s :     3.129908
      pz      :     1.089794  p :     2.923729
      px      :     0.772661
      py      :     1.061274
      dz2     :     0.008569  d :     0.054385
      dxz     :     0.010235
      dyz     :     0.009449
      dx2y2   :     0.011078
      dxy     :     0.015053

 11 H s       :     0.890147  s :     0.890147

 12 H s       :     0.888540  s :     0.888540

 13 H s       :     0.890450  s :     0.890450

 14 H s       :     0.962944  s :     0.962944

 15 H s       :     0.953591  s :     0.953591

 16 H s       :     0.972327  s :     0.972327

 17 H s       :     0.680607  s :     0.680607

 18 H s       :     0.875941  s :     0.875941

 19 H s       :     0.883865  s :     0.883865

 20 H s       :     0.883842  s :     0.883842


------------------------
MULLIKEN OVERLAP CHARGES
------------------------
B(  0-C ,  1-O ) :   0.6037 B(  0-C ,  2-C ) :  -0.0680 B(  0-C , 11-H ) :   0.7649 
B(  0-C , 12-H ) :   0.7448 B(  0-C , 13-H ) :   0.7648 B(  1-O ,  2-C ) :   0.8290 
B(  1-O ,  3-C ) :  -0.1607 B(  1-O ,  7-C ) :  -0.1772 B(  1-O , 11-H ) :  -0.0587 
B(  1-O , 12-H ) :  -0.0516 B(  1-O , 13-H ) :  -0.0589 B(  2-C ,  3-C ) :   0.3374 
B(  2-C ,  4-C ) :   0.5342 B(  2-C ,  5-C ) :  -0.4926 B(  2-C ,  6-C ) :   0.4171 
B(  2-C ,  7-C ) :  -0.2218 B(  2-C ,  8-O ) :  -0.1723 B(  2-C , 14-H ) :  -0.1931 
B(  3-C ,  4-C ) :   0.0717 B(  3-C ,  5-C ) :   0.4559 B(  3-C ,  6-C ) :  -0.4808 
B(  3-C ,  7-C ) :   0.2826 B(  3-C , 14-H ) :   0.8872 B(  3-C , 15-H ) :  -0.2015 
B(  4-C ,  5-C ) :  -0.0825 B(  4-C ,  6-C ) :   0.6035 B(  4-C ,  7-C ) :  -0.5047 
B(  4-C , 14-H ) :  -0.2218 B(  4-C , 15-H ) :   0.9243 B(  4-C , 16-H ) :  -0.1784 
B(  5-C ,  6-C ) :  -0.1503 B(  5-C ,  7-C ) :   0.4233 B(  5-C ,  9-O ) :  -0.1766 
B(  5-C , 15-H ) :  -0.1983 B(  5-C , 16-H ) :   0.9258 B(  6-C ,  7-C ) :  -0.2280 
B(  6-C ,  8-O ) :  -0.1883 B(  6-C ,  9-O ) :   0.7780 B(  6-C , 10-C ) :  -0.1217 
B(  6-C , 16-H ) :  -0.2416 B(  7-C ,  8-O ) :   0.8915 B(  7-C ,  9-O ) :  -0.1898 
B(  7-C , 14-H ) :   0.0715 B(  7-C , 17-H ) :  -0.0693 B(  8-O , 17-H ) :   0.5408 
B(  9-O , 10-C ) :   0.6286 B(  9-O , 17-H ) :   0.0777 B(  9-O , 18-H ) :  -0.0517 
B(  9-O , 19-H ) :  -0.0623 B(  9-O , 20-H ) :  -0.0623 B( 10-C , 18-H ) :   0.7649 
B( 10-C , 19-H ) :   0.7593 B( 10-C , 20-H ) :   0.7595 B( 11-H , 12-H ) :  -0.0531 
B( 11-H , 13-H ) :  -0.0751 B( 12-H , 13-H ) :  -0.0531 B( 19-H , 20-H ) :  -0.0951 



                     *******************************
                     * LOEWDIN POPULATION ANALYSIS *
                     *******************************

----------------------
LOEWDIN ATOMIC CHARGES
----------------------
   0 C :   -0.203350
   1 O :   -0.096617
   2 C :    0.013288
   3 C :   -0.154528
   4 C :   -0.134144
   5 C :   -0.194090
   6 C :    0.002377
   7 C :   -0.024373
   8 O :   -0.247305
   9 O :   -0.113928
  10 C :   -0.198627
  11 H :    0.110407
  12 H :    0.113465
  13 H :    0.110347
  14 H :    0.129601
  15 H :    0.123217
  16 H :    0.124802
  17 H :    0.292860
  18 H :    0.121841
  19 H :    0.112389
  20 H :    0.112370

-------------------------------
LOEWDIN REDUCED ORBITAL CHARGES
-------------------------------
  0 C s       :     2.962409  s :     2.962409
      pz      :     1.151924  p :     3.121035
      px      :     1.118614
      py      :     0.850497
      dz2     :     0.019762  d :     0.119907
      dxz     :     0.006353
      dyz     :     0.037274
      dx2y2   :     0.039048
      dxy     :     0.017471

  1 O s       :     3.441860  s :     3.441860
      pz      :     1.773002  p :     4.623484
      px      :     1.430457
      py      :     1.420025
      dz2     :     0.003933  d :     0.031273
      dxz     :     0.003889
      dyz     :     0.003252
      dx2y2   :     0.013677
      dxy     :     0.006522

  2 C s       :     2.836025  s :     2.836025
      pz      :     1.014794  p :     2.982065
      px      :     0.902234
      py      :     1.065036
      dz2     :     0.011460  d :     0.168622
      dxz     :     0.032767
      dyz     :     0.015912
      dx2y2   :     0.056651
      dxy     :     0.051832

  3 C s       :     2.890181  s :     2.890181
      pz      :     1.046961  p :     3.175878
      px      :     1.075883
      py      :     1.053033
      dz2     :     0.007376  d :     0.088470
      dxz     :     0.007617
      dyz     :     0.011217
      dx2y2   :     0.031146
      dxy     :     0.031115

  4 C s       :     2.880626  s :     2.880626
      pz      :     1.012962  p :     3.157663
      px      :     1.085560
      py      :     1.059141
      dz2     :     0.007166  d :     0.095855
      dxz     :     0.018518
      dyz     :     0.003426
      dx2y2   :     0.037683
      dxy     :     0.029062

  5 C s       :     2.884030  s :     2.884030
      pz      :     1.087792  p :     3.219435
      px      :     1.068098
      py      :     1.063545
      dz2     :     0.007643  d :     0.090624
      dxz     :     0.005288
      dyz     :     0.014310
      dx2y2   :     0.035055
      dxy     :     0.028327

  6 C s       :     2.837535  s :     2.837535
      pz      :     1.036233  p :     2.993432
      px      :     0.935936
      py      :     1.021263
      dz2     :     0.011520  d :     0.166656
      dxz     :     0.023068
      dyz     :     0.024704
      dx2y2   :     0.046281
      dxy     :     0.061083

  7 C s       :     2.841776  s :     2.841776
      pz      :     1.063971  p :     3.020289
      px      :     1.075786
      py      :     0.880532
      dz2     :     0.011904  d :     0.162308
      dxz     :     0.013165
      dyz     :     0.033915
      dx2y2   :     0.052200
      dxy     :     0.051124

  8 O s       :     3.507711  s :     3.507711
      pz      :     1.835334  p :     4.711476
      px      :     1.510006
      py      :     1.366136
      dz2     :     0.004300  d :     0.028119
      dxz     :     0.000725
      dyz     :     0.003944
      dx2y2   :     0.012338
      dxy     :     0.006811

  9 O s       :     3.437999  s :     3.437999
      pz      :     1.789030  p :     4.645006
      px      :     1.252808
      py      :     1.603168
      dz2     :     0.003731  d :     0.030923
      dxz     :     0.004845
      dyz     :     0.002399
      dx2y2   :     0.007146
      dxy     :     0.012801

 10 C s       :     2.960635  s :     2.960635
      pz      :     1.145603  p :     3.117792
      px      :     0.851035
      py      :     1.121154
      dz2     :     0.019267  d :     0.120200
      dxz     :     0.020741
      dyz     :     0.023790
      dx2y2   :     0.022440
      dxy     :     0.033962

 11 H s       :     0.889593  s :     0.889593

 12 H s       :     0.886535  s :     0.886535

 13 H s       :     0.889653  s :     0.889653

 14 H s       :     0.870399  s :     0.870399

 15 H s       :     0.876783  s :     0.876783

 16 H s       :     0.875198  s :     0.875198

 17 H s       :     0.707140  s :     0.707140

 18 H s       :     0.878159  s :     0.878159

 19 H s       :     0.887611  s :     0.887611

 20 H s       :     0.887630  s :     0.887630


---------------------------------
LOEWDIN BOND ORDERS (THRESH 0.050000)
---------------------------------
B(  0-C ,  1-O ) :   1.1513 B(  0-C ,  2-C ) :   0.0639 B(  0-C , 11-H ) :   0.9457 
B(  0-C , 12-H ) :   0.9496 B(  0-C , 13-H ) :   0.9457 B(  1-O ,  2-C ) :   1.2693 
B(  1-O ,  3-C ) :   0.1014 B(  1-O ,  7-C ) :   0.1038 B(  2-C ,  3-C ) :   1.3833 
B(  2-C ,  4-C ) :   0.0895 B(  2-C ,  5-C ) :   0.0886 B(  2-C ,  6-C ) :   0.0932 
B(  2-C ,  7-C ) :   1.3614 B(  2-C ,  8-O ) :   0.0960 B(  3-C ,  4-C ) :   1.5362 
B(  3-C ,  5-C ) :   0.0940 B(  3-C ,  6-C ) :   0.0934 B(  3-C ,  7-C ) :   0.0909 
B(  3-C , 14-H ) :   0.8800 B(  4-C ,  5-C ) :   1.4542 B(  4-C ,  6-C ) :   0.0964 
B(  4-C ,  7-C ) :   0.0959 B(  4-C , 15-H ) :   0.8860 B(  5-C ,  6-C ) :   1.4415 
B(  5-C ,  7-C ) :   0.0868 B(  5-C ,  9-O ) :   0.1007 B(  5-C , 16-H ) :   0.8744 
B(  6-C ,  7-C ) :   1.3158 B(  6-C ,  8-O ) :   0.1048 B(  6-C ,  9-O ) :   1.2267 
B(  6-C , 10-C ) :   0.0660 B(  7-C ,  8-O ) :   1.3009 B(  7-C ,  9-O ) :   0.0905 
B(  8-O , 17-H ) :   0.8494 B(  9-O , 10-C ) :   1.1511 B(  9-O , 17-H ) :   0.0551 
B( 10-C , 18-H ) :   0.9496 B( 10-C , 19-H ) :   0.9410 B( 10-C , 20-H ) :   0.9410 


------------------------------------------
LOEWDIN REDUCED ORBITAL POPULATIONS PER MO
-------------------------------------------
THRESHOLD FOR PRINTING IS 0.1%%
                      0         1         2         3         4         5   
                 -18.79815 -18.77379 -18.77345  -9.94854  -9.94706  -9.94431
                   2.00000   2.00000   2.00000   2.00000   2.00000   2.00000
                  --------  --------  --------  --------  --------  --------
 1 O  s               0.0      97.0       2.9       0.0       0.0       0.0
 2 C  s               0.0       0.0       0.0       0.0       0.0       0.8
 5 C  py              0.0       0.0       0.0       0.0       0.1       0.0
 6 C  s               0.0       0.0       0.0       0.0      99.4       0.1
 6 C  px              0.0       0.0       0.0       0.0       0.0       0.1
 7 C  s               0.0       0.0       0.0       0.0       0.1      98.6
 7 C  px              0.0       0.0       0.0       0.0       0.1       0.0
 8 O  s               0.0       2.9      97.0       0.0       0.0       0.0
 8 O  py              0.0       0.0       0.0       0.0       0.0       0.1
 9 O  s              99.9       0.0       0.0       0.0       0.0       0.0
10 C  s               0.0       0.0       0.0      99.7       0.0       0.0

                      6         7         8         9        10        11   
                  -9.94292  -9.92189  -9.88207  -9.88166  -9.87446  -0.98154
                   2.00000   2.00000   2.00000   2.00000   2.00000   2.00000
                  --------  --------  --------  --------  --------  --------
 0 C  s               0.0      99.7       0.0       0.0       0.0       0.2
 0 C  py              0.0       0.0       0.0       0.0       0.0       0.1
 1 O  s               0.0       0.0       0.0       0.0       0.0       1.1
 1 O  px              0.1       0.0       0.0       0.0       0.0       0.1
 1 O  py              0.0       0.1       0.0       0.0       0.0       0.0
 2 C  s              98.7       0.0       0.0       0.0       0.0       0.9
 2 C  py              0.0       0.0       0.0       0.0       0.1       0.3
 3 C  s               0.0       0.0       0.0       0.1      99.5       0.1
 3 C  px              0.0       0.0       0.0       0.1       0.0       0.0
 3 C  py              0.1       0.0       0.0       0.0       0.0       0.1
 4 C  s               0.0       0.0       9.6      89.9       0.1       0.1
 4 C  px              0.0       0.0       0.1       0.0       0.1       0.0
 5 C  s               0.0       0.0      89.9       9.7       0.0       0.7
 5 C  py              0.0       0.0       0.0       0.0       0.0       1.0
 6 C  s               0.0       0.0       0.0       0.0       0.0       8.8
 6 C  px              0.0       0.0       0.0       0.0       0.0       2.2
 6 C  py              0.0       0.0       0.1       0.0       0.0       3.8
 6 C  dz2             0.0       0.0       0.0       0.0       0.0       0.3
 6 C  dxy             0.0       0.0       0.0       0.0       0.0       0.3
 7 C  s               0.8       0.0       0.0       0.0       0.0       4.9
 7 C  px              0.1       0.0       0.0       0.0       0.0       0.8
 7 C  py              0.1       0.0       0.0       0.0       0.0       1.3
 7 C  dz2             0.0       0.0       0.0       0.0       0.0       0.1
 8 O  s               0.0       0.0       0.0       0.0       0.0      11.6
 8 O  px              0.0       0.0       0.0       0.0       0.0       0.5
 8 O  py              0.0       0.0       0.0       0.0       0.0       0.5
 9 O  s               0.0       0.0       0.0       0.0       0.0      41.0
 9 O  py              0.0       0.0       0.0       0.0       0.0       1.8
10 C  s               0.0       0.0       0.0       0.0       0.0       5.4
10 C  px              0.0       0.0       0.0       0.0       0.0       5.0
10 C  py              0.0       0.0       0.0       0.0       0.0       0.4
10 C  dz2             0.0       0.0       0.0       0.0       0.0       0.1
10 C  dx2y2           0.0       0.0       0.0       0.0       0.0       0.3
10 C  dxy             0.0       0.0       0.0       0.0       0.0       0.1
16 H  s               0.0       0.0       0.1       0.0       0.0       0.1
17 H  s               0.0       0.0       0.0       0.0       0.0       3.4
18 H  s               0.0       0.0       0.0       0.0       0.0       0.6
19 H  s               0.0       0.0       0.0       0.0       0.0       0.6
20 H  s               0.0       0.0       0.0       0.0       0.0       0.6

                     12        13        14        15        16        17   
                  -0.95708  -0.94056  -0.76461  -0.68478  -0.67017  -0.63220
                   2.00000   2.00000   2.00000   2.00000   2.00000   2.00000
                  --------  --------  --------  --------  --------  --------
 0 C  s               4.9       2.3       1.0       4.6       6.3       3.2
 0 C  px              0.6       0.1       0.0       0.0       0.1       0.0
 0 C  py              4.2       2.4       0.2       0.3       0.2       0.1
 0 C  dz2             0.1       0.1       0.0       0.0       0.0       0.0
 0 C  dx2y2           0.2       0.1       0.0       0.0       0.0       0.0
 0 C  dxy             0.1       0.1       0.0       0.0       0.0       0.0
 1 O  s              35.7      18.6       0.9       0.2       0.1       0.8
 1 O  px              1.3       0.5       0.8       2.8       4.0       0.3
 1 O  py              0.6       0.3       0.9       3.8       3.6       2.6
 1 O  dx2y2           0.0       0.0       0.0       0.1       0.1       0.0
 2 C  s               7.7       1.6       8.0       6.0       7.2       0.2
 2 C  px              3.9       4.5       3.9       0.1       0.3       6.2
 2 C  py              1.3       0.1       1.2       2.3       0.5       5.9
 2 C  dz2             0.3       0.1       0.1       0.1       0.1       0.0
 2 C  dx2y2           0.2       0.2       0.0       0.0       0.0       0.0
 2 C  dxy             0.1       0.2       0.0       0.0       0.1       0.2
 3 C  s               0.6       0.2      10.9       8.4       0.2       5.4
 3 C  px              0.1       0.1       2.0       0.0       3.1       0.0
 3 C  py              0.9       0.2       0.7       0.6       3.9       0.9
 3 C  dz2             0.0       0.0       0.1       0.1       0.0       0.0
 3 C  dx2y2           0.0       0.0       0.0       0.0       0.2       0.0
 4 C  s               0.0       0.0      11.8       1.1      13.1       3.7
 4 C  px              0.1       0.0       0.0       2.8       1.3       1.2
 4 C  py              0.0       0.0       2.6       0.0       0.2       0.1
 4 C  dz2             0.0       0.0       0.2       0.0       0.1       0.0
 5 C  s               0.0       0.0      11.8       2.3      11.7       0.1
 5 C  px              0.0       0.0       2.4       0.2       0.6       0.2
 5 C  py              0.1       0.0       0.3       2.3       1.6       1.5
 5 C  dz2             0.0       0.0       0.2       0.0       0.1       0.0
 6 C  s               0.4       0.2       9.3      10.8       0.3       0.7
 6 C  px              2.4       2.0       2.7       0.0       1.1       4.6
 6 C  py              0.1       0.0       2.4       0.1       7.2       1.1
 6 C  dz2             0.0       0.0       0.1       0.1       0.0       0.0
 6 C  dx2y2           0.0       0.0       0.0       0.0       0.2       0.1
 6 C  dxy             0.1       0.2       0.0       0.0       0.0       0.3
 7 C  s               3.2       3.5       7.1       0.3       5.6       9.6
 7 C  px              1.6       0.1       0.1       6.4       0.3       0.6
 7 C  py              1.1       7.5       6.0       0.0       1.1       1.3
 7 C  dz2             0.1       0.2       0.1       0.0       0.0       0.0
 7 C  dx2y2           0.1       0.6       0.1       0.1       0.1       0.0
 7 C  dxy             0.0       0.0       0.0       0.1       0.0       0.0
 8 O  s              11.2      35.6       1.4       0.6       1.6       0.7
 8 O  px              0.2       1.3       0.1       0.0       0.3       2.0
 8 O  py              0.4       0.7       0.6       0.1       1.8       4.2
 9 O  s               8.5       6.4       0.8       0.0       0.4       2.4
 9 O  px              0.1       0.2       1.8      15.0       3.6       5.7
 9 O  py              0.4       0.3       0.2       0.5       0.0       0.2
 9 O  dxy             0.0       0.0       0.0       0.2       0.0       0.0
10 C  s               1.4       1.2       1.0      13.1       3.8      12.9
10 C  px              1.1       0.9       0.1       0.2       0.0       1.0
10 C  py              0.1       0.1       0.1       0.3       0.0       0.1
11 H  s               0.7       0.1       0.1       0.7       1.2       0.9
12 H  s               0.6       0.3       0.2       1.1       1.6       0.8
13 H  s               0.7       0.1       0.1       0.7       1.2       0.9
14 H  s               0.1       0.0       1.3       1.7       0.0       1.8
15 H  s               0.0       0.0       1.5       0.2       2.7       1.1
16 H  s               0.0       0.0       1.4       0.3       2.8       0.1
17 H  s               1.7       6.5       0.5       0.1       0.8       2.3
18 H  s               0.2       0.1       0.2       3.5       1.0       4.0
19 H  s               0.1       0.1       0.1       2.5       1.0       3.7
20 H  s               0.1       0.1       0.1       2.5       1.0       3.7

                     18        19        20        21        22        23   
                  -0.61168  -0.54768  -0.52931  -0.50250  -0.47125  -0.45009
                   2.00000   2.00000   2.00000   2.00000   2.00000   2.00000
                  --------  --------  --------  --------  --------  --------
 0 C  s              16.9       0.8       4.0       0.4       1.9       0.9
 0 C  px              0.3       0.8       0.0       0.1       0.1       1.4
 0 C  py              0.8       0.0       5.5       1.5       9.0       4.1
 0 C  dz2             0.0       0.0       0.1       0.0       0.1       0.0
 0 C  dx2y2           0.0       0.0       0.2       0.0       0.2       0.1
 1 O  s               2.5       0.0       3.1       0.3       1.2       0.0
 1 O  px              3.1       1.2       2.4       0.8      10.2       0.3
 1 O  py              5.6       0.2       0.4       0.6       2.0       7.9
 1 O  dx2y2           0.1       0.0       0.0       0.0       0.1       0.0
 2 C  s               0.3       0.0       4.3       0.1       2.1       0.9
 2 C  px              5.5       0.1       0.1       2.7       1.0       7.1
 2 C  py              1.2       9.7       0.5       0.1       1.1       3.9
 2 C  dx2y2           0.4       0.0       0.1       0.1       0.2       0.0
 3 C  s               7.5       3.2       0.0       2.5       2.7       0.1
 3 C  px              0.5       2.2       1.9       2.3       0.2       5.7
 3 C  py              0.2       0.9       5.9       2.2       0.9       0.1
 3 C  dx2y2           0.0       0.0       0.1       0.0       0.0       0.0
 4 C  s               0.9       5.0       4.5       0.0       1.7       0.4
 4 C  px              7.5       3.2       1.0       1.3       5.4       2.1
 4 C  py              0.1       1.2       1.8       1.5       2.5       0.2
 4 C  dxy             0.2       0.0       0.0       0.0       0.0       0.1
 5 C  s               8.8       0.8       3.3       0.1       0.0       1.2
 5 C  px              1.3       0.2       3.2       4.5       0.1       0.1
 5 C  py              0.7       7.6       1.0       0.1       8.7       0.1
 5 C  dxy             0.0       0.1       0.0       0.0       0.1       0.1
 6 C  s               1.7       3.9       0.3       0.3       0.2       0.2
 6 C  px              0.6       0.5       5.1       7.1       0.1       5.3
 6 C  py              5.3       0.0       8.0       0.5       6.7       0.1
 6 C  dx2y2           0.1       0.0       0.0       0.0       0.0       0.1
 6 C  dxy             0.1       0.1       0.0       0.0       0.1       0.4
 7 C  s               0.7       1.1       1.9       0.0       0.0       0.2
 7 C  px              0.5       8.7       8.4       0.3       0.1       9.8
 7 C  py              0.1       2.5       0.3       8.6       1.4       3.8
 7 C  dx2y2           0.0       0.0       0.1       0.0       0.5       0.1
 7 C  dxy             0.0       0.0       0.1       0.1       0.2       0.4
 8 O  s               0.2       0.0       1.4       0.0       0.6       0.4
 8 O  px              0.3       7.2       0.7       6.7       3.0       0.0
 8 O  py              0.4       8.8       3.6      10.6       3.6       9.5
 8 O  dx2y2           0.0       0.2       0.0       0.1       0.1       0.1
 8 O  dxy             0.0       0.0       0.1       0.0       0.0       0.1
 9 O  s               1.4       2.5       0.2       1.7       0.1       0.2
 9 O  px              0.1       1.5       1.5       7.0       7.8       3.6
 9 O  py              0.6       0.6       0.6       8.1       1.2       7.2
10 C  s               1.2       3.6       2.6       0.8       0.8       0.1
10 C  px              0.2       3.5       3.7       2.1       5.3       0.1
10 C  py              0.5       1.2       0.0       7.8       0.3      10.0
10 C  dz2             0.0       0.1       0.0       0.1       0.0       0.1
10 C  dxy             0.0       0.1       0.0       0.1       0.1       0.0
11 H  s               4.6       0.1       3.0       0.6       2.7       0.7
12 H  s               5.3       0.7       1.4       0.1       0.5       1.6
13 H  s               4.6       0.1       3.0       0.6       2.7       0.8
14 H  s               1.5       1.5       0.0       3.3       2.0       1.6
15 H  s               0.2       3.0       2.9       0.3       3.0       0.3
16 H  s               3.3       0.5       2.2       1.2       0.3       0.2
17 H  s               0.2       4.2       0.3       5.4       2.2       1.4
18 H  s               0.3       1.4       2.2       0.0       1.2       1.6
19 H  s               0.7       2.3       1.1       2.4       0.9       1.5
20 H  s               0.7       2.3       1.1       2.4       0.9       1.5

                     24        25        26        27        28        29   
                  -0.43047  -0.42819  -0.40644  -0.40565  -0.39750  -0.37013
                   2.00000   2.00000   2.00000   2.00000   2.00000   2.00000
                  --------  --------  --------  --------  --------  --------
 0 C  s               0.1       0.0       0.0       0.0       0.1       0.1
 0 C  pz              0.0       0.5       0.0      33.8       0.0       0.0
 0 C  px              6.3       0.0       0.0       0.0       8.7      22.2
 0 C  py              5.5       0.0       0.0       0.0       0.9       0.2
 0 C  dz2             0.1       0.0       0.0       0.0       0.0       0.1
 0 C  dxz             0.0       0.0       0.0       0.2       0.0       0.0
 0 C  dx2y2           0.0       0.0       0.0       0.0       0.1       0.2
 1 O  s               0.2       0.0       0.1       0.0       0.5       0.3
 1 O  pz              0.0       0.6       0.0      24.2       0.0       0.0
 1 O  px             12.0       0.0       0.2       0.0       0.5       1.8
 1 O  py              0.4       0.0       0.3       0.0       7.5       5.9
 2 C  s               1.0       0.0       0.0       0.0       0.0       0.6
 2 C  pz              0.0       0.8       0.0       9.5       0.0       0.0
 2 C  px              4.0       0.0       0.2       0.0       0.5       0.2
 2 C  py              4.5       0.0       3.1       0.0       0.6       1.0
 2 C  dx2y2           0.3       0.0       0.1       0.0       0.2       0.1
 2 C  dxy             0.2       0.0       0.2       0.0       0.0       0.2
 3 C  s               0.2       0.0       0.2       0.0       1.2       0.7
 3 C  pz              0.0       0.2       0.0       1.4       0.0       0.0
 3 C  px              2.2       0.0       7.2       0.0       0.8       0.1
 3 C  py              6.7       0.0       8.7       0.0       1.5       0.2
 3 C  dx2y2           0.2       0.0       0.0       0.0       0.0       0.0
 3 C  dxy             0.1       0.0       0.0       0.0       0.1       0.0
 4 C  s               0.7       0.0       0.3       0.0       0.8       0.2
 4 C  pz              0.0       0.2       0.0       0.3       0.0       0.0
 4 C  px              5.2       0.0       0.7       0.0       0.6       0.3
 4 C  py              0.0       0.0      19.7       0.0       0.5       5.4
 4 C  dx2y2           0.1       0.0       0.0       0.0       0.1       0.2
 5 C  s               1.3       0.0       0.1       0.0       1.3       0.1
 5 C  pz              0.0       1.5       0.0       0.1       0.0       0.0
 5 C  px              6.4       0.0      12.0       0.0       2.9       0.1
 5 C  py             12.6       0.0       0.1       0.0       0.1       4.0
 5 C  dx2y2           0.2       0.0       0.1       0.0       0.0       0.3
 5 C  dxy             0.0       0.0       0.3       0.0       0.1       0.0
 6 C  s               2.6       0.0       0.3       0.0       0.0       0.7
 6 C  pz              0.0       8.0       0.0       0.2       0.0       0.0
 6 C  px              0.2       0.0       1.9       0.0       1.0       3.0
 6 C  py              3.5       0.0       0.1       0.0       0.1       1.8
 6 C  dx2y2           0.0       0.0       0.3       0.0       0.3       0.0
 6 C  dxy             0.0       0.0       0.6       0.0       0.0       0.1
 7 C  s               0.4       0.0       2.2       0.0       0.3       0.0
 7 C  pz              0.0       2.5       0.0       4.0       0.0       0.0
 7 C  px              0.4       0.0       0.2       0.0       1.6       4.5
 7 C  py              0.0       0.0       3.1       0.0       0.1       0.3
 7 C  dx2y2           0.1       0.0       0.2       0.0       0.0       0.0
 7 C  dxy             0.3       0.0       0.0       0.0       0.0       0.0
 8 O  s               0.3       0.0       0.6       0.0       0.0       0.8
 8 O  pz              0.0       0.9       0.0       2.4       0.0       0.0
 8 O  px              0.9       0.0       4.0       0.0       0.9       2.0
 8 O  py              1.2       0.0       1.6       0.0       0.4       0.9
 9 O  s               0.2       0.0       0.3       0.0       0.7       0.0
 9 O  pz              0.0      25.4       0.0       0.6       0.0       0.0
 9 O  px              1.5       0.0       5.0       0.0       5.1       1.2
 9 O  py              0.8       0.0       0.0       0.0       9.4       0.2
 9 O  dxy             0.0       0.0       0.0       0.0       0.1       0.1
10 C  s               0.0       0.0       0.1       0.0       0.1       0.0
10 C  pz              0.0      37.9       0.0       2.9       0.0       0.0
10 C  px              0.3       0.0       3.7       0.0      10.7       3.6
10 C  py              0.6       0.0       0.1       0.0      14.0       7.5
10 C  dyz             0.0       0.2       0.0       0.0       0.0       0.0
10 C  dx2y2           0.0       0.0       0.0       0.0       0.1       0.0
10 C  dxy             0.0       0.0       0.0       0.0       0.2       0.2
11 H  s               2.0       0.2       0.0       9.1       0.0       1.3
12 H  s               1.5       0.0       0.0       0.0       4.6      11.5
13 H  s               2.0       0.1       0.0       9.1       0.0       1.3
14 H  s               0.0       0.0       7.4       0.0       2.5       0.2
15 H  s               0.2       0.0       7.2       0.0       1.2       4.1
16 H  s              10.1       0.0       4.6       0.0       2.2       1.4
17 H  s               0.0       0.0       1.3       0.0       0.2       0.0
18 H  s               0.0       0.0       0.9       0.0      12.7       6.7
19 H  s               0.2      10.3       0.2       0.8       0.8       0.8
20 H  s               0.2      10.3       0.1       0.9       0.8       0.8

                     30        31        32        33        34        35   
                  -0.35787  -0.34674  -0.32664  -0.31358  -0.29994  -0.29607
                   2.00000   2.00000   2.00000   2.00000   2.00000   2.00000
                  --------  --------  --------  --------  --------  --------
 0 C  s               0.0       0.0       0.1       0.3       0.0       0.0
 0 C  pz             11.2       0.0       0.0       0.0       6.4       1.8
 0 C  px              0.0       5.8       3.2       0.1       0.0       0.0
 0 C  py              0.0       0.3       0.0       1.5       0.0       0.0
 0 C  dyz             0.1       0.0       0.0       0.0       0.5       0.0
 0 C  dx2y2           0.0       0.1       0.1       0.0       0.0       0.0
 1 O  s               0.0       0.0       0.0       2.1       0.0       0.0
 1 O  pz              0.8       0.0       0.0       0.0      14.8       0.4
 1 O  px              0.0       3.7       0.1       2.7       0.0       0.0
 1 O  py              0.0       0.2       0.1       8.8       0.0       0.0
 2 C  s               0.0       0.0       0.2       0.7       0.0       0.0
 2 C  pz              5.2       0.0       0.0       0.0      16.9       2.0
 2 C  px              0.0       0.4       0.0       0.0       0.0       0.0
 2 C  py              0.0       5.2       7.6       0.0       0.0       0.0
 2 C  dxz             0.2       0.0       0.0       0.0       0.2       0.0
 2 C  dx2y2           0.0       0.1       0.0       0.5       0.0       0.0
 2 C  dxy             0.0       0.1       0.3       0.0       0.0       0.0
 3 C  s               0.0       0.1       0.1       0.0       0.0       0.0
 3 C  pz              2.7       0.0       0.0       0.0      14.7       0.1
 3 C  px              0.0      10.0       9.0       5.9       0.0       0.0
 3 C  py              0.0       3.7       9.5       0.7       0.0       0.0
 3 C  dx2y2           0.0       0.1       0.4       0.0       0.0       0.0
 3 C  dxy             0.0       0.1       0.7       0.1       0.0       0.0
 4 C  pz              2.6       0.0       0.0       0.0       7.2       3.1
 4 C  px              0.0      10.9       4.0       6.4       0.0       0.0
 4 C  py              0.0       5.1       4.9       0.2       0.0       0.0
 4 C  dx2y2           0.0       0.3       0.2       0.1       0.0       0.0
 4 C  dxy             0.0       0.1       0.6       0.1       0.0       0.0
 5 C  s               0.0       0.3       0.6       0.1       0.0       0.0
 5 C  pz              4.2       0.0       0.0       0.0       1.4       8.2
 5 C  px              0.0       3.5       8.8       6.1       0.0       0.0
 5 C  py              0.0       0.4       0.5       0.3       0.0       0.0
 5 C  dx2y2           0.0       0.3       0.0       0.3       0.0       0.0
 5 C  dxy             0.0       0.1       0.0       0.4       0.0       0.0
 6 C  s               0.0       0.9       0.2       0.0       0.0       0.0
 6 C  pz             12.8       0.0       0.0       0.0       1.2      12.0
 6 C  px              0.0       0.6       0.5       3.8       0.0       0.0
 6 C  py              0.0       0.3       0.1       0.8       0.0       0.0
 6 C  dxz             0.1       0.0       0.0       0.0       0.0       0.3
 6 C  dyz             0.0       0.0       0.0       0.0       0.1       0.0
 6 C  dx2y2           0.0       0.1       0.1       0.0       0.0       0.0
 6 C  dxy             0.0       0.1       0.4       0.1       0.0       0.0
 7 C  s               0.0       0.1       0.1       0.1       0.0       0.0
 7 C  pz             21.0       0.0       0.0       0.0       0.9       4.4
 7 C  px              0.0       0.7       2.3       1.1       0.0       0.0
 7 C  py              0.0       1.3       0.8       2.3       0.0       0.0
 7 C  dxz             0.0       0.0       0.0       0.0       0.1       0.2
 7 C  dyz             0.0       0.0       0.0       0.0       0.4       0.4
 7 C  dx2y2           0.0       0.0       0.2       0.1       0.0       0.0
 7 C  dxy             0.0       0.4       0.0       0.5       0.0       0.0
 8 O  s               0.0       3.7       0.1       2.8       0.0       0.0
 8 O  pz             16.4       0.0       0.0       0.0      18.7      29.6
 8 O  px              0.0      16.3       1.6      20.6       0.0       0.0
 8 O  py              0.0       5.8       1.8       7.3       0.0       0.0
 9 O  s               0.0       0.1       1.4       0.7       0.0       0.0
 9 O  pz              1.4       0.0       0.0       0.0       4.9      20.8
 9 O  px              0.0       0.0       0.9       0.0       0.0       0.0
 9 O  py              0.0       3.2       4.6       7.8       0.0       0.0
10 C  pz              8.0       0.0       0.0       0.0       1.1       6.3
10 C  py              0.0       0.3       5.1       1.2       0.0       0.0
10 C  dxz             0.1       0.0       0.0       0.0       0.1       0.4
10 C  dyz             0.1       0.0       0.0       0.0       0.1       0.3
10 C  dxy             0.0       0.0       0.1       0.1       0.0       0.0
11 H  s               3.2       0.3       0.4       0.4       4.1       0.5
12 H  s               0.0       3.6       2.1       0.1       0.0       0.0
13 H  s               3.3       0.3       0.4       0.4       4.1       0.5
14 H  s               0.0       1.1      14.0       1.6       0.0       0.0
15 H  s               0.0       4.8       4.0       0.5       0.0       0.0
16 H  s               0.0       2.7       2.0       6.5       0.0       0.0
17 H  s               0.0       1.6       0.3       1.6       0.0       0.0
18 H  s               0.0       0.1       2.4       1.0       0.0       0.0
19 H  s               3.1       0.1       1.2       0.4       0.8       4.3
20 H  s               3.1       0.1       1.2       0.4       0.8       3.9

                     36        37        38        39        40        41   
                  -0.29465  -0.26740  -0.25748  -0.18429  -0.16891  -0.01147
                   2.00000   2.00000   2.00000   2.00000   2.00000   0.00000
                  --------  --------  --------  --------  --------  --------
 0 C  s               0.0       0.1       0.0       0.0       0.0       0.0
 0 C  pz              0.0       0.0       3.2       0.2       0.5       0.0
 0 C  px              0.5       5.5       0.0       0.0       0.0       0.0
 0 C  py              0.1       5.4       0.0       0.0       0.0       0.0
 0 C  dz2             0.0       0.2       0.0       0.0       0.0       0.0
 0 C  dyz             0.0       0.0       0.5       0.2       0.5       0.0
 0 C  dx2y2           0.0       0.4       0.0       0.0       0.0       0.0
 0 C  dxy             0.0       0.4       0.0       0.0       0.0       0.0
 1 O  s               0.0       4.2       0.0       0.0       0.0       0.0
 1 O  pz              0.0       0.0      20.1       8.0      19.8       0.3
 1 O  px              0.3      22.5       0.0       0.0       0.0       0.0
 1 O  py              0.2      18.8       0.0       0.0       0.0       0.0
 2 C  s               0.2       0.3       0.0       0.0       0.0       0.0
 2 C  pz              0.0       0.0       2.5       2.1      11.7       2.7
 2 C  px              0.1       4.3       0.0       0.0       0.0       0.0
 2 C  py              2.0       0.9       0.0       0.0       0.0       0.0
 2 C  dxz             0.0       0.0       0.3       0.1       0.9       0.2
 2 C  dyz             0.0       0.0       0.1       0.5       0.0       1.4
 2 C  dx2y2           0.1       0.2       0.0       0.0       0.0       0.0
 2 C  dxy             0.0       0.9       0.0       0.0       0.0       0.0
 3 C  s               0.1       0.3       0.0       0.0       0.0       0.0
 3 C  pz              0.0       0.0       5.2      27.6       0.5      29.1
 3 C  px              0.2       0.1       0.0       0.0       0.0       0.0
 3 C  py              3.0       1.0       0.0       0.0       0.0       0.0
 3 C  dxz             0.0       0.0       0.2       0.0       0.1       0.5
 3 C  dyz             0.0       0.0       0.1       0.0       0.3       0.0
 3 C  dx2y2           0.2       0.0       0.0       0.0       0.0       0.0
 4 C  pz              0.0       0.0      22.8       4.3      10.2      17.0
 4 C  py              6.4       0.2       0.0       0.0       0.0       0.0
 4 C  dxz             0.0       0.0       0.0       0.7       0.1       0.8
 4 C  dyz             0.0       0.0       0.1       0.0       0.0       0.1
 4 C  dx2y2           0.7       0.0       0.0       0.0       0.0       0.0
 5 C  pz              0.0       0.0      16.3      16.3       6.4       1.0
 5 C  px              0.1       0.3       0.0       0.0       0.0       0.0
 5 C  py              9.7       0.0       0.0       0.0       0.0       0.0
 5 C  dxz             0.0       0.0       0.1       0.0       0.0       0.2
 5 C  dyz             0.0       0.0       0.1       0.3       0.2       1.4
 5 C  dx2y2           0.3       0.0       0.0       0.0       0.0       0.0
 6 C  s               0.1       0.4       0.0       0.0       0.0       0.0
 6 C  pz              0.0       0.0       0.1      14.5       3.0      22.6
 6 C  px              0.2       1.8       0.0       0.0       0.0       0.0
 6 C  py              8.4       0.3       0.0       0.0       0.0       0.0
 6 C  dxz             0.0       0.0       0.1       0.2       0.4       0.1
 6 C  dyz             0.0       0.0       0.5       0.5       0.1       0.1
 6 C  dx2y2           0.9       0.0       0.0       0.0       0.0       0.0
 7 C  s               0.5       0.6       0.0       0.0       0.0       0.0
 7 C  pz              0.0       0.0       0.0       2.0      18.3      12.9
 7 C  px              0.7       4.5       0.0       0.0       0.0       0.0
 7 C  py              0.8       0.1       0.0       0.0       0.0       0.0
 7 C  dxz             0.0       0.0       0.0       0.2       0.0       0.8
 7 C  dyz             0.0       0.0       0.0       0.1       0.8       0.0
[...]
 9 O  dxz             0.0      45.0       0.0       0.0       7.0       0.0
 9 O  dyz             0.0       7.8       0.0       0.0       3.1       0.0
 9 O  dx2y2           5.6       0.0       2.0       0.9       0.0       1.4
 9 O  dxy             0.5       0.0       0.6       0.8       0.0       3.2
10 C  s               0.2       0.0       0.1       0.1       0.0       1.0
10 C  px              0.2       0.0       0.1       0.1       0.0       1.2
10 C  dz2             0.3       0.0       0.2       0.1       0.0       0.9
10 C  dxz             0.0       2.2       0.0       0.0       0.2       0.0
10 C  dyz             0.0       1.4       0.0       0.0       0.2       0.0
10 C  dx2y2           0.8       0.0       0.6       0.3       0.0       1.9
10 C  dxy             0.3       0.0       0.1       0.0       0.0       0.4
17 H  s               0.5       0.0       5.3       1.5       0.0       0.3

                    168       169       170       171       172       173   
                   3.11015   3.25479   3.29801   3.38896   3.40847   3.61202
                   0.00000   0.00000   0.00000   0.00000   0.00000   0.00000
                  --------  --------  --------  --------  --------  --------
 0 C  s               0.3       0.1       0.2       0.7       0.3       0.2
 0 C  px              0.1       0.0       0.0       0.2       0.0       0.0
 0 C  py              0.3       0.1       0.3       0.9       0.6       0.1
 0 C  dz2             0.2       0.1       0.2       0.4       0.4       0.0
 0 C  dx2y2           0.4       0.4       0.8       1.2       2.4       0.0
 0 C  dxy             0.5       0.2       0.0       1.0       0.1       0.3
 1 O  s               0.1       1.4       0.2       0.2       2.3       0.4
 1 O  px              0.4       0.3       0.1       2.1       0.1       0.9
 1 O  py              0.7       0.0       0.1       1.5       0.0       0.6
 1 O  dz2             0.0       5.9       0.8       0.3       6.5       0.6
 1 O  dx2y2          10.7       1.2       4.1      40.2       1.9      10.8
 1 O  dxy             0.3       8.1       3.6       0.1      25.9       2.1
 2 C  s               2.3       0.3       0.1       0.9       0.7       0.1
 2 C  px              0.3       0.6       0.1       1.6       0.0       0.8
 2 C  py              0.0       0.2       0.4       0.2       0.5       0.1
 2 C  dz2             1.6       0.3       0.0       0.2       0.7       0.1
 2 C  dx2y2           1.8       1.5       0.1       0.9       8.9       6.9
 2 C  dxy             0.9       0.2       0.6       4.7       4.7       4.2
 3 C  s               1.3       0.0       0.2       0.0       0.0       0.3
 3 C  px              0.1       0.1       0.0       0.0       0.1       0.0
 3 C  py              0.0       0.1       0.0       0.0       0.6       0.0
 3 C  dz2             1.0       0.0       0.1       0.0       0.0       0.1
 3 C  dx2y2           2.1       0.2       0.0       0.0       1.5       0.3
 3 C  dxy             8.7       0.1       0.9       1.4       0.6       3.8
 4 C  s               1.5       0.1       0.2       0.0       0.1       0.3
 4 C  px              0.0       0.0       0.0       0.1       0.3       0.0
 4 C  py              0.2       0.0       0.1       0.0       0.0       0.0
 4 C  dz2             1.3       0.0       0.0       0.0       0.0       0.1
 4 C  dx2y2          13.1       0.0       1.5       0.0       0.2       3.0
 4 C  dxy             0.8       0.0       0.2       0.0       0.4       0.1
 5 C  s               1.6       0.1       0.1       0.0       0.1       0.3
 5 C  px              0.2       0.0       0.0       0.0       0.0       0.0
 5 C  py              0.0       0.2       0.6       0.0       0.4       0.0
 5 C  dz2             1.3       0.0       0.0       0.0       0.0       0.1
 5 C  dx2y2           5.1       0.1       0.0       0.1       0.9       1.6
 5 C  dxy             5.1       0.2       3.2       0.5       0.2       2.3
 6 C  s               2.8       0.3       0.4       0.7       0.1       0.0
 6 C  px              0.4       0.1       0.6       1.2       0.1       0.7
 6 C  py              0.0       0.5       0.1       0.5       0.3       0.2
 6 C  dz2             2.7       0.0       0.5       0.4       0.0       0.0
 6 C  dx2y2           0.4       2.2       7.7       0.0       5.4       1.1
 6 C  dxy             1.7       0.0       4.4       4.7       0.0       9.4
 7 C  s               1.1       0.9       1.6       0.0       0.4       0.2
 7 C  px              0.0       0.2       0.4       0.7       0.7       0.0
 7 C  py              0.2       3.1       0.3       0.0       0.0       0.9
 7 C  dz2             1.5       0.6       0.6       0.0       0.3       0.1
 7 C  dx2y2           2.0       2.0       1.1       0.1       0.5      13.0
 7 C  dxy             0.0       0.0       1.7       0.0       9.5       0.2
 8 O  s               1.1       2.1       1.2       0.1       0.0       1.1
 8 O  px              0.0       0.2       0.0       0.0       0.1       0.0
 8 O  py              0.3       2.4       0.9       0.1       0.0       1.2
 8 O  dz2             3.7       6.5       4.0       0.1       0.3       2.0
 8 O  dx2y2           1.3      28.5       9.3       1.0       0.2      11.3
 8 O  dxy             0.0       0.5       0.0       0.1       8.2       0.4
 9 O  s               0.8       0.2       2.4       0.8       0.0       0.2
 9 O  px              0.6       1.0       0.1       2.3       0.3       1.3
 9 O  py              0.1       0.1       0.1       0.2       0.1       0.2
 9 O  dz2             3.5       1.4       9.0       1.8       0.1       0.4
 9 O  dx2y2           0.1       9.8      26.6       0.0       7.9       1.1
 9 O  dxy             9.2      10.7       4.3      23.7       2.5      12.3
10 C  s               0.1       0.5       0.2       0.3       0.2       0.2
10 C  px              0.1       0.8       0.3       0.4       0.2       0.3
10 C  py              0.0       0.1       0.2       0.0       0.1       0.0
10 C  dz2             0.0       0.5       0.4       0.1       0.2       0.1
10 C  dx2y2           0.3       0.9       0.0       0.9       0.2       0.5
10 C  dxy             0.0       1.1       2.4       0.0       0.6       0.1
14 H  s               0.4       0.0       0.0       0.1       0.0       0.2
15 H  s               0.5       0.0       0.1       0.0       0.0       0.1
16 H  s               0.4       0.0       0.1       0.0       0.0       0.2
17 H  s               0.0       0.4       0.0       0.0       0.1       0.2



                      *****************************
                      * MAYER POPULATION ANALYSIS *
                      *****************************

  NA   - Mulliken gross atomic population
  ZA   - Total nuclear charge
  QA   - Mulliken gross atomic charge
  VA   - Mayer's total valence
  BVA  - Mayer's bonded valence
  FA   - Mayer's free valence

  ATOM       NA         ZA         QA         VA         BVA        FA
  0 C      6.0958     6.0000    -0.0958     3.8748     3.8748    -0.0000
  1 O      8.2732     8.0000    -0.2732     2.2600     2.2600    -0.0000
  2 C      5.8555     6.0000     0.1445     4.0401     4.0401    -0.0000
  3 C      6.1253     6.0000    -0.1253     3.8014     3.8014    -0.0000
  4 C      6.0522     6.0000    -0.0522     3.7411     3.7411     0.0000
  5 C      6.2174     6.0000    -0.2174     3.7302     3.7302    -0.0000
  6 C      5.7800     6.0000     0.2200     3.8218     3.8218     0.0000
  7 C      5.9301     6.0000     0.0699     3.9729     3.9729     0.0000
  8 O      8.3597     8.0000    -0.3597     2.1551     2.1551     0.0000
  9 O      8.3206     8.0000    -0.3206     2.2287     2.2287    -0.0000
 10 C      6.1080     6.0000    -0.1080     3.8873     3.8873     0.0000
 11 H      0.8901     1.0000     0.1099     0.9652     0.9652     0.0000
 12 H      0.8885     1.0000     0.1115     0.9516     0.9516     0.0000
 13 H      0.8905     1.0000     0.1095     0.9650     0.9650     0.0000
 14 H      0.9629     1.0000     0.0371     0.9722     0.9722    -0.0000
 15 H      0.9536     1.0000     0.0464     0.9504     0.9504     0.0000
 16 H      0.9723     1.0000     0.0277     0.9698     0.9698     0.0000
 17 H      0.6806     1.0000     0.3194     0.9027     0.9027    -0.0000
 18 H      0.8759     1.0000     0.1241     0.9545     0.9545     0.0000
 19 H      0.8839     1.0000     0.1161     0.9524     0.9524     0.0000
 20 H      0.8838     1.0000     0.1162     0.9522     0.9522     0.0000

  Mayer bond orders larger than 0.100000
B(  0-C ,  1-O ) :   0.9676 B(  0-C , 11-H ) :   0.9505 B(  0-C , 12-H ) :   0.9578 
B(  0-C , 13-H ) :   0.9506 B(  1-O ,  2-C ) :   1.1535 B(  2-C ,  3-C ) :   1.3548 
B(  2-C ,  7-C ) :   1.3375 B(  3-C ,  4-C ) :   1.3623 B(  3-C , 14-H ) :   0.9694 
B(  4-C ,  5-C ) :   1.2795 B(  4-C , 15-H ) :   0.9701 B(  5-C ,  6-C ) :   1.3104 
B(  5-C , 16-H ) :   0.9776 B(  6-C ,  7-C ) :   1.2902 B(  6-C ,  9-O ) :   1.0709 
B(  7-C ,  8-O ) :   1.2125 B(  8-O , 17-H ) :   0.8113 B(  9-O , 10-C ) :   0.9788 
B( 10-C , 18-H ) :   0.9587 B( 10-C , 19-H ) :   0.9429 B( 10-C , 20-H ) :   0.9429 


-------
TIMINGS
-------

Total SCF time: 0 days 0 hours 0 min 8 sec 

Total time                  ....       8.849 sec
Sum of individual times     ....       8.408 sec  ( 95.0%)

SCF preparation             ....       0.177 sec  (  2.0%)
Fock matrix formation       ....       7.529 sec  ( 85.1%)
  Startup                   ....       0.043 sec  (  0.6% of F)
  Split-RI-J                ....       3.034 sec  ( 40.3% of F)
  XC integration            ....       4.047 sec  ( 53.8% of F)
    XC Preparation          ....       0.000 sec  (  0.0% of XC)
    Basis function eval.    ....       1.415 sec  ( 35.0% of XC)
    Density eval.           ....       0.615 sec  ( 15.2% of XC)
    XC-Functional eval.     ....       0.330 sec  (  8.2% of XC)
    XC-Potential eval.      ....       0.994 sec  ( 24.6% of XC)
Diagonalization             ....       0.000 sec  (  0.0%)
Density matrix formation    ....       0.175 sec  (  2.0%)
Total Energy calculation    ....       0.026 sec  (  0.3%)
Population analysis         ....       0.088 sec  (  1.0%)
Orbital Transformation      ....       0.046 sec  (  0.5%)
Orbital Orthonormalization  ....       0.000 sec  (  0.0%)
DIIS solution               ....       0.278 sec  (  3.1%)
  MO trafo                  ....       0.000 sec  (  0.0 % of DIIS)
  Orb grad                  ....       0.000 sec  (  0.0 % of DIIS)
  Energy W gradient         ....       0.000 sec  (  0.0 % of DIIS)
  DIIS error                ....       0.005 sec  (  1.8 % of DIIS)
  DIIS work                 ....       0.236 sec  ( 84.8 % of DIIS)
  Form Q                    ....       0.000 sec  (  0.0 % of DIIS)
  Form QpQm                 ....       0.000 sec  (  0.0 % of DIIS)
  Exp/Cayley                ....       0.000 sec  (  0.0 % of DIIS)
  Orb update                ....       0.000 sec  (  0.0 % of DIIS)
  Wake-sleep                ....       0.014 sec  (  5.1 % of DIIS)
SOSCF solution              ....       0.087 sec  (  1.0%)
  MO trafo                  ....       0.042 sec  ( 48.0 % of SOSCF)
  Orb grad                  ....       0.001 sec  (  1.4 % of SOSCF)
  Rot update                ....       0.024 sec  ( 27.7 % of SOSCF)
  Step                      ....       0.020 sec  ( 22.8 % of SOSCF)
Finished LeanSCF after   8.9 sec

Maximum memory used throughout the entire LEANSCF-calculation: 16.1 MB


-------------------------------------------------------------------------------
                          DFT DISPERSION CORRECTION                            
                                                                               
                                DFTD4 V3.4.0                                   
-------------------------------------------------------------------------------
The PBE functional is recognized
Active option DFTDOPT                   ...         5   

-------------------------   ----------------
Dispersion correction           -0.021628812
-------------------------   ----------------

------------------   -----------------
gCP correction             0.100249374
------------------   -----------------

-------------------------   --------------------
FINAL SINGLE POINT ENERGY      -535.372459450520
-------------------------   --------------------


------------------------------------------------------------------------------
                              ORCA PROPERTY CALCULATIONS
------------------------------------------------------------------------------

GBWName                                 ... sp.gbw
Number of atoms                         ...     21
Number of basis functions               ...    174
Max core memory                         ...   1024 MB

Electric properties:
Dipole moment                           ... YES
Quadrupole moment                       ...  NO
Static polarizability (Dipole/Dipole)   ...  NO
Static polarizability (Dipole/Quad.)    ...  NO
Static polarizability (Quad./Quad.)     ...  NO
Static polarizability (Velocity)        ...  NO

Atomic electric properties:
Dipole moment                           ...  NO
Quadrupole moment                       ...  NO
Static polarizability                   ...  NO

Choice of electric origin               ... Center of mass
Position of electric origin             ...     0.000008    -0.000013    -0.000000

General magnetic properties:
Magnetizability                         ...  NO

EPR properties:
g-Tensor (aka g-matrix)                 ...  NO
Zero-Field splitting spin-orbit         ...  NO
Zero-field splitting spin-spin          ...  NO
Hyperfine couplings                     ...  NO (   0 nuclei)
Quadrupole couplings                    ...  NO (   0 nuclei)
Contact density                         ...  NO (   0 nuclei)

NMR properties:
Chemical shifts                         ...  NO (   0 nuclei)
Spin-rotation constants                 ...  NO (   0 nuclei)
Spin-spin couplings                     ...  NO (   0 nuclei,    0 pairs)

Choice of magnetic origin               ... GIAO
Position of magnetic origin             ...     0.000000     0.000000     0.000000

Properties with geometric perturbations:
SCF Hessian                             ...  NO
IR spectrum                             ...  NO
VCD spectrum                            ...  NO
X-ray spectroscopy properties:
SCF XES/XAS/RIXS spectra                ...  NO


-------------
DIPOLE MOMENT
-------------

Method             : SCF
Type of density    : Electron Density
Multiplicity       :   1
Irrep              :   0
Energy             :  -535.4510800125118521 Eh
Relativity type    : 
Basis              : AO
                                X                 Y                 Z
Electronic contribution:     -2.332504829      -0.210652366       0.021656683
Nuclear contribution   :      3.340230271       0.612567449      -0.025448518
                        -----------------------------------------
Total Dipole Moment    :      1.007725442       0.401915083      -0.003791835
                        -----------------------------------------
Magnitude (a.u.)       :      1.084924273
Magnitude (Debye)      :      2.757658348



--------------------
Rotational spectrum 
--------------------
 
Rotational constants in cm-1:             0.065473             0.028548             0.020031 
Rotational constants in MHz :          1962.817814           855.836131           600.525847 

Dipole components along the rotational axes: 
x,y,z [a.u.] :     0.964675     0.496435    -0.003956 
x,y,z [Debye]:     2.452009     1.261837    -0.010056 

 

Dipole moment calculation done in   0.0 sec 

Maximum memory used throughout the entire PROP-calculation: 10.3 MB

--------------------------------
SUGGESTED CITATIONS FOR THIS RUN
--------------------------------

Below you find a list of papers that are relevant to this ORCA run
We neither can nor want to force you to cite these papers, but we appreciate if you do
You receive ORCA, which is the product of decades of hard work by many enthusiastic individuals, for free
The only thing we kindly ask in return is that you cite our papers,
We deeply appreciate it, if you show your appreciation for ORCA by not just citing the generic ORCA reference.

Please note that relegating all ORCA citations to the supporting information does *not* help us.
SI sections are not indexed - citations you put there will not count into any citation statistics
But we need these citations in order to attract the funding resources that allow us to do what we are doing

Therefore, if you are a happy ORCA user, please consider citing a few of the papers listed below in the main body of your paper

In addition to the list printed below, the program has created the file sp.bibtex that contains the list in bibtex format
You can import this file easily into all common literature databanks and citation aid programs


List of essential papers. We consider these as the minimum necessary citations

  1. Neese,F.
     Software update: the ORCA program system, version 5.0
     WIRES Comput. Molec. Sci., 2022 12(1)e1606
     doi.org/10.1002/wcms.1606

List of papers to cite with high priority. The work reported in these papers was absolutely
necessary for this run to complete.
Our perspective: the developers of density functionals and basis sets usually get cited in chemistry papers
Good! But without the algorithms to do something with them, the functionals or basis sets would not do anything.
Hence, in our opinion, the algorithm design and method developments papers are equally worthy of getting cited

  1. Neese,F.
     An improvement of the resolution of the identity approximation for the formation of the Coulomb matrix
     J. Comp. Chem., 2003 24(14)1740-1747
     doi.org/10.1002/jcc.10318
  2. Neese,F.
     The SHARK Integral Generation and Digestion System
     J. Comp. Chem., 2022  1-16
     doi.org/10.1002/jcc.26942
  3. Caldeweyher,E.; Bannwarth,C.; Grimme,S.
     Extension of the D3 dispersion coefficient model
     J. Chem. Phys., 2017 147 034112-XXXX
     doi.org/10.1063/1.4993215
  4. Caldeweyher,E.; Ehlert,S.; Hansen,A.; Neugebauer,H.; Spicher,S.; Bannwarth,C.; Grimme,S.
     A generally applicable atomic-charge dependent London dispersion correction
     J. Chem. Phys., 2019 150 154122-XXXX
     doi.org/10.1063/1.5090222
  5. Caldeweyher,E.; Mewes,J.; Ehlert,S.; Grimme,S.
     Extension and evaluation of the D4 London-dispersion model for periodic systems
     Phys. Chem. Chem. Phys., 2020 22(16)8499-8512
     doi.org/10.1039/D0CP00502A

List of suggested additional citations. These are papers that are important in the 'surrounding' of 
of this run, or papers that preceded the highly important papers. If you like your results we are grateful for a citation.

  1. Neese,F.
     The ORCA program system
     WIRES Comput. Molec. Sci., 2012 2(1)73-78
     doi.org/10.1002/wcms.81
  2. Neese,F.
     Software update: the ORCA program system, version 4.0
     WIRES Comput. Molec. Sci., 2018 8(1)1-6
     doi.org/10.1002/wcms.1327
  3. Neese,F.; Wennmohs,F.; Becker,U.; Riplinger,C.
     The ORCA quantum chemistry program package
     J. Chem. Phys., 2020 152 Art. No. L224108
     doi.org/10.1063/5.0004608

List of optional additional citations

  1. Neese,F.
     Approximate second-order SCF convergence for spin unrestricted wavefunctions
     Chem. Phys. Lett., 2000 325(1-3)93-98
     doi.org/10.1016/s0009-2614(00)00662-x

Timings for individual modules:

Sum of individual times          ...       10.873 sec (=   0.181 min)
Startup calculation              ...        0.840 sec (=   0.014 min)   7.7 %
SCF iterations                   ...        9.930 sec (=   0.165 min)  91.3 %
Property calculations            ...        0.103 sec (=   0.002 min)   0.9 %
                             ****ORCA TERMINATED NORMALLY****
TOTAL RUN TIME: 0 days 0 hours 0 minutes 11 seconds 550 msec
