
                                 *****************
                                 * O   R   C   A *
                                 *****************

                                            #,                                       
                                            ###                                      
                                            ####                                     
                                            #####                                    
                                            ######                                   
                                           ########,                                 
                                     ,,################,,,,,                         
                               ,,#################################,,                 
                          ,,##########################################,,             
                       ,#########################################, ''#####,          
                    ,#############################################,,   '####,        
                  ,##################################################,,,,####,       
                ,###########''''           ''''###############################       
              ,#####''   ,,,,##########,,,,          '''####'''          '####       
            ,##' ,,,,###########################,,,                        '##       
           ' ,,###''''                  '''############,,,                           
         ,,##''                                '''############,,,,        ,,,,,,###''
      ,#''                                            '''#######################'''  
     '                                                          ''''####''''         
             ,#######,   #######,   ,#######,      ##                                
            ,#'     '#,  ##    ##  ,#'     '#,    #''#        ,####,   ,####,        
            ##       ##  ##   ,#'  ##            #'  '#       #'       #'  '#        
            ##       ##  #######   ##           ,######,      #####,   #    #        
            '#,     ,#'  ##    ##  '#,     ,#' ,#      #,     #,   #   #,  ,#        
             '#######'   ##     ##  '#######'  #'      '#     '####' # '####'        



                #########################################################
                #                        -***-                          #
                #          Department of theory and spectroscopy        #
                #                                                       #
                #                      Frank Neese                      #
                #                                                       #
                #     Directorship, Architecture, Infrastructure        #
                #                    SHARK, DRIVERS                     #
                #        Core code/Algorithms in most modules           #
                #                                                       #
                #        Max Planck Institute fuer Kohlenforschung      #
                #                Kaiser Wilhelm Platz 1                 #
                #                 D-45470 Muelheim/Ruhr                 #
                #                      Germany                          #
                #                                                       #
                #                  All rights reserved                  #
                #                        -***-                          #
                #########################################################


                         Program Version 6.0.0  -   RELEASE  -


 With contributions from (in alphabetic order):
   Daniel Aravena         : Magnetic Suceptibility
   Michael Atanasov       : Ab Initio Ligand Field Theory (pilot matlab implementation)
   Alexander A. Auer      : GIAO ZORA, VPT2 properties, NMR spectrum
   Ute Becker             : All parallelization in ORCA, NUMFREQ, NUMCALC
   Giovanni Bistoni       : ED, misc. LED, open-shell LED, HFLD
   Martin Brehm           : Molecular dynamics
   Dmytro Bykov           : pre 5.0 version of the SCF Hessian
   Marcos Casanova-Páez   : Triplet and SCS-CIS(D). UHF-(DLPNO)-IP/EA/STEOM-CCSD. UHF-CVS-IP/STEOM-CCSD
   Vijay G. Chilkuri      : MRCI spin determinant printing, contributions to CSF-ICE
   Pauline Colinet        : FMM embedding
   Dipayan Datta          : RHF DLPNO-CCSD density
   Achintya Kumar Dutta   : EOM-CC, STEOM-CC
   Nicolas Foglia         : Exact transition moments, OPA infrastructure, MCD improvements
   Dmitry Ganyushin       : Spin-Orbit,Spin-Spin,Magnetic field MRCI
   Miquel Garcia          : C-PCM and meta-GGA Hessian, CCSD/C-PCM, Gaussian charge scheme
   Tiago L. C. Gouveia    : GS-ROHF, GS-ROCIS
   Yang Guo               : DLPNO-NEVPT2, F12-NEVPT2, CIM, IAO-localization
   Andreas Hansen         : Spin unrestricted coupled pair/coupled cluster methods
   Ingolf Harden          : AUTO-CI MPn and infrastructure 
   Benjamin Helmich-Paris : MC-RPA, TRAH-(SCF,CASSCF), AVAS, COSX integrals, SCF dyn. polar.
   Lee Huntington         : MR-EOM, pCC
   Robert Izsak           : Overlap fitted RIJCOSX, COSX-SCS-MP3, EOM
   Riya Kayal             : Wick's Theorem for AUTO-CI, AUTO-CI UHF-CCSDT
   Emily Kempfer          : AUTO-CI, RHF CISDT and CCSDT
   Christian Kollmar      : KDIIS, OOCD, Brueckner-CCSD(T), CCSD density, CASPT2, CASPT2-K, improved NEVPT2
   Axel Koslowski         : Symmetry handling
   Simone Kossmann        : Meta GGA functionals, TD-DFT gradient, OOMP2, (MP2 Hessian; deprecated post 5.0)
   Lucas Lang             : DCDCAS
   Marvin Lechner         : AUTO-CI (C++ implementation), FIC-MRCC
   Spencer Leger          : CASSCF response
   Dagmar Lenk            : GEPOL surface, SMD, ORCA-2-JSON
   Dimitrios Liakos       : Extrapolation schemes; Compound Job, initial MDCI parallelization
   Dimitrios Manganas     : Further ROCIS development; embedding schemes. LFT, Crystal Embedding
   Dimitrios Pantazis     : SARC Basis sets
   Anastasios Papadopoulos: AUTO-CI, single reference methods and gradients
   Taras Petrenko         : pre 6.0 DFT Hessian and TD-DFT gradient, (ASA, deprecated), ECA, 1-Electron XAS/XES, NRVS
   Peter Pinski           : DLPNO-MP2, DLPNO-MP2 Gradient
   Christoph Reimann      : Effective Core Potentials
   Marius Retegan         : Local ZFS, SOC
   Christoph Riplinger    : Optimizer, TS searches, QM/MM, DLPNO-CCSD(T), (RO)-DLPNO pert. Triples
   Michael Roemelt        : Original ROCIS implementation
   Masaaki Saitow         : Open-shell DLPNO-CCSD energy and density
   Barbara Sandhoefer     : DKH picture change effects
   Kantharuban Sivalingam : CASSCF convergence/infrastructure, NEVPT2 and variants, FIC-MRCI
   Bernardo de Souza      : ESD, SOC TD-DFT
   Georgi Stoychev        : AutoAux, RI-MP2 NMR, DLPNO-MP2 response, X2C
   Van Anh Tran           : RI-MP2 g-tensors
   Willem Van den Heuvel  : Paramagnetic NMR
   Zikuan Wang            : NOTCH, Electric field optimization 
   Frank Wennmohs         : Technical directorship and infrastructure
   Hang Xu                : AUTO-CI-Response properties 


 We gratefully acknowledge several colleagues who have allowed us to
 interface, adapt or use parts of their codes:
   Stefan Grimme, W. Hujo, H. Kruse, P. Pracht,  : VdW corrections, initial TS optimization,
                  C. Bannwarth, S. Ehlert,         DFT functionals, gCP, sTDA/sTD-DF
                  L. Wittmann, M. Mueller
   Ed Valeev, F. Pavosevic, A. Kumar             : LibInt (2-el integral package), F12 methods
   Garnet Chan, S. Sharma, J. Yang, R. Olivares  : DMRG
   Ulf Ekstrom                                   : XCFun DFT Library
   Mihaly Kallay                                 : mrcc  (arbitrary order and MRCC methods)
   Frank Weinhold                                : gennbo (NPA and NBO analysis)
   Simon Mueller                                 : openCOSMO-RS
   Christopher J. Cramer and Donald G. Truhlar   : smd solvation model
   Lars Goerigk                                  : TD-DFT with DH, B97 family of functionals
   V. Asgeirsson, H. Jonsson                     : NEB implementation
   FAccTs GmbH                                   : IRC, NEB, NEB-TS, DLPNO-Multilevel, CI-OPT
                                                   MM, QMMM, 2- and 3-layer-ONIOM, Crystal-QMMM,
                                                   LR-CPCM, SF, NACMEs, symmetry and pop. for TD-DFT,
                                                   nearIR, NL-DFT gradient (VV10), updates on ESD,
                                                   ML-optimized integration grids, MBIS, APM,
                                                   GOAT, DOCKER, SOLVATOR, interface openCOSMO-RS
   S Lehtola, MJT Oliveira, MAL Marques          : LibXC Library
   Liviu Ungur et al                             : ANISO software


 Your calculation uses the libint2 library for the computation of 2-el integrals
 For citations please refer to: http://libint.valeyev.net

 Your ORCA version has been built with support for libXC version: 6.2.2
 For citations please refer to: https://libxc.gitlab.io

 This ORCA versions uses:
   CBLAS   interface :  Fast vector & matrix operations
   LAPACKE interface :  Fast linear algebra routines
   SCALAPACK package :  Parallel linear algebra routines
   Shared memory     :  Shared parallel matrices
   BLAS/LAPACK       :  OpenBLAS 0.3.27  USE64BITINT DYNAMIC_ARCH NO_AFFINITY SkylakeX SINGLE_THREADED
        Core in use  :  SkylakeX
   Copyright (c) 2011-2014, The OpenBLAS Project


Your calculation utilizes the geometrical counterpoise correction gCP
Please cite in your paper:
H.Kruse, S. Grimme J.Chem.Phys., 136, (2012), 154101 
   

Your calculation utilizes the DFT-NL dispersion correction.
Cite in your paper:
Vydrov, O. A.; Van Voorhis, T. J. Chem. Phys. 2010, 133, 244103
Hujo, W.; Grimme, S. J. Chem. Theory Comput. 2011, 7, 3866 
   

================================================================================

----- Orbital basis set information -----
Your calculation utilizes the basis: def2-TZVP
   F. Weigend and R. Ahlrichs, Phys. Chem. Chem. Phys. 7, 3297 (2005).

----- AuxJ basis set information -----
Your calculation utilizes the auxiliary basis: def2/J
   F. Weigend, Phys. Chem. Chem. Phys. 8, 1057 (2006).

================================================================================
                                        WARNINGS
                       Please study these warnings very carefully!
================================================================================


================================================================================
                                       INPUT FILE
================================================================================
NAME = sp_gas.inp
|  1> ! wb97x-v def2-tzvp def2/J RIJCOSX DEFGRID2 scfconv7 GCP(DFT/TZ) printgap
|  2> %output
|  3>     printlevel normal
|  4> end
|  5> * xyz 0 1
|  6> C 2.5445577956444665 -0.08064874156626624 0.02877513263295015
|  7> C 1.2810866532897314 0.760339461981696 -0.05032803676062234
|  8> C -2.4420467007524503e-05 -0.03263975274972007 -0.00010807701448299515
|  9> O -2.0483364530202563e-05 -1.2597320607260056 0.000907098736725516
| 10> C -1.2810762387683332 0.7604253108056576 0.050213695999250026
| 11> C -2.544547367353671 -0.08060687839019842 -0.028390375928084334
| 12> H 2.5920418888174126 -0.7997639189643291 -0.7936976640589349
| 13> H 3.4299113841186006 0.5584319477865102 -0.027054726166413974
| 14> H 2.587511671618592 -0.63983343065947 0.9680119638019488
| 15> H 1.240605968766387 1.5064840738980838 0.753759920464574
| 16> H 1.251580851460918 1.344341937186841 -0.9807483529589166
| 17> H -1.2405995942558388 1.5059843228335523 -0.7543989142108701
| 18> H -1.2515191151100953 1.3450960363488003 0.9802321667838677
| 19> H -3.429880458986719 0.5585525897584228 0.026823940584146416
| 20> H -2.5921799025222594 -0.7991261463706533 0.7945886811355826
| 21> H -2.587395133726665 -0.6404687257624093 -0.9672340921105977
| 22> *
| 23> 
| 24>                          ****END OF INPUT****
================================================================================

                       ****************************
                       * Single Point Calculation *
                       ****************************

---------------------------------
CARTESIAN COORDINATES (ANGSTROEM)
---------------------------------
  C      2.544558   -0.080649    0.028775
  C      1.281087    0.760339   -0.050328
  C     -0.000024   -0.032640   -0.000108
  O     -0.000020   -1.259732    0.000907
  C     -1.281076    0.760425    0.050214
  C     -2.544547   -0.080607   -0.028390
  H      2.592042   -0.799764   -0.793698
  H      3.429911    0.558432   -0.027055
  H      2.587512   -0.639833    0.968012
  H      1.240606    1.506484    0.753760
  H      1.251581    1.344342   -0.980748
  H     -1.240600    1.505984   -0.754399
  H     -1.251519    1.345096    0.980232
  H     -3.429880    0.558553    0.026824
  H     -2.592180   -0.799126    0.794589
  H     -2.587395   -0.640469   -0.967234

----------------------------
CARTESIAN COORDINATES (A.U.)
----------------------------
  NO LB      ZA    FRAG     MASS         X           Y           Z
   0 C     6.0000    0    12.011    4.808517   -0.152404    0.054377
   1 C     6.0000    0    12.011    2.420903    1.436833   -0.095106
   2 C     6.0000    0    12.011   -0.000046   -0.061680   -0.000204
   3 O     8.0000    0    15.999   -0.000039   -2.380549    0.001714
   4 C     6.0000    0    12.011   -2.420883    1.436996    0.094890
   5 C     6.0000    0    12.011   -4.808498   -0.152325   -0.053650
   6 H     1.0000    0     1.008    4.898249   -1.511335   -1.499871
   7 H     1.0000    0     1.008    6.481593    1.055283   -0.051126
   8 H     1.0000    0     1.008    4.889688   -1.209110    1.829278
   9 H     1.0000    0     1.008    2.344406    2.846842    1.424400
  10 H     1.0000    0     1.008    2.365145    2.540438   -1.853346
  11 H     1.0000    0     1.008   -2.344393    2.845898   -1.425607
  12 H     1.0000    0     1.008   -2.365028    2.541863    1.852370
  13 H     1.0000    0     1.008   -6.481535    1.055511    0.050690
  14 H     1.0000    0     1.008   -4.898510   -1.510130    1.501555
  15 H     1.0000    0     1.008   -4.889468   -1.210310   -1.827808

--------------------------------
INTERNAL COORDINATES (ANGSTROEM)
--------------------------------
 C      0   0   0     0.000000000000     0.00000000     0.00000000
 C      1   0   0     1.519828213147     0.00000000     0.00000000
 C      2   1   0     1.507509092064   114.43575609     0.00000000
 O      3   2   1     1.227092727911   121.73856338   354.72573393
 C      3   2   1     1.507507292534   116.52231598   174.66561244
 C      5   3   2     1.519826646745   114.43128450   174.69112522
 H      1   2   3     1.093546011271   111.15124249    59.32180626
 H      1   2   3     1.093339872712   110.30897024   179.22537963
 H      1   2   3     1.093937099198   111.11129978   299.10463637
 H      2   1   3     1.097692083722   111.63308680   122.46813473
 H      2   1   3     1.098913758300   111.12816186   239.26241420
 H      5   3   2     1.097678482834   107.54862532    50.06119416
 H      5   3   2     1.098930314837   106.57594998   297.94790429
 H      6   5   3     1.093338067394   110.30740843   179.26237321
 H      6   5   3     1.093541643117   111.15463278    59.35600099
 H      6   5   3     1.093941836955   111.10976281   299.13776457

---------------------------
INTERNAL COORDINATES (A.U.)
---------------------------
 C      0   0   0     0.000000000000     0.00000000     0.00000000
 C      1   0   0     2.872059093455     0.00000000     0.00000000
 C      2   1   0     2.848779328397   114.43575609     0.00000000
 O      3   2   1     2.318869196678   121.73856338   354.72573393
 C      3   2   1     2.848775927779   116.52231598   174.66561244
 C      5   3   2     2.872056133384   114.43128450   174.69112522
 H      1   2   3     2.066502476144   111.15124249    59.32180626
 H      1   2   3     2.066112930721   110.30897024   179.22537963
 H      1   2   3     2.067241525221   111.11129978   299.10463637
 H      2   1   3     2.074337417608   111.63308680   122.46813473
 H      2   1   3     2.076646047986   111.12816186   239.26241420
 H      5   3   2     2.074311715654   107.54862532    50.06119416
 H      5   3   2     2.076677335305   106.57594998   297.94790429
 H      6   5   3     2.066109519165   110.30740843   179.26237321
 H      6   5   3     2.066494221529   111.15463278    59.35600099
 H      6   5   3     2.067250478285   111.10976281   299.13776457

---------------------
BASIS SET INFORMATION
---------------------
There are 3 groups of distinct atoms

 Group   1 Type C   : 11s6p2d1f contracted to 5s3p2d1f pattern {62111/411/11/1}
 Group   2 Type O   : 11s6p2d1f contracted to 5s3p2d1f pattern {62111/411/11/1}
 Group   3 Type H   : 5s1p contracted to 3s1p pattern {311/1}

Atom   0C    basis set group =>   1
Atom   1C    basis set group =>   1
Atom   2C    basis set group =>   1
Atom   3O    basis set group =>   2
Atom   4C    basis set group =>   1
Atom   5C    basis set group =>   1
Atom   6H    basis set group =>   3
Atom   7H    basis set group =>   3
Atom   8H    basis set group =>   3
Atom   9H    basis set group =>   3
Atom  10H    basis set group =>   3
Atom  11H    basis set group =>   3
Atom  12H    basis set group =>   3
Atom  13H    basis set group =>   3
Atom  14H    basis set group =>   3
Atom  15H    basis set group =>   3
---------------------------------
AUXILIARY/J BASIS SET INFORMATION
---------------------------------
There are 3 groups of distinct atoms

 Group   1 Type C   : 12s5p4d2f1g contracted to 6s4p3d1f1g pattern {711111/2111/211/2/1}
 Group   2 Type O   : 12s5p4d2f1g contracted to 6s4p3d1f1g pattern {711111/2111/211/2/1}
 Group   3 Type H   : 5s2p1d contracted to 3s1p1d pattern {311/2/1}

Atom   0C    basis set group =>   1
Atom   1C    basis set group =>   1
Atom   2C    basis set group =>   1
Atom   3O    basis set group =>   2
Atom   4C    basis set group =>   1
Atom   5C    basis set group =>   1
Atom   6H    basis set group =>   3
Atom   7H    basis set group =>   3
Atom   8H    basis set group =>   3
Atom   9H    basis set group =>   3
Atom  10H    basis set group =>   3
Atom  11H    basis set group =>   3
Atom  12H    basis set group =>   3
Atom  13H    basis set group =>   3
Atom  14H    basis set group =>   3
Atom  15H    basis set group =>   3

Checking for AutoStart:
The File: sp_gas.gbw exists
Trying to determine its content:
     ... Fine, the file contains calculation information
     ... Fine, the calculation information was read
     ... Fine, the file contains a basis set
     ... Fine, the basis set was read
     ... Fine, the file contains a geometry
     ... Fine, the geometry was read
     ... Fine, the file contains a set of orbitals
     ... Fine, the orbitals can be read
     => possible old guess file was deleted
     => GBW file was renamed to GES file
     => GES file is set as startup file
     => Guess is set to MORead
     ... now leaving AutoStart

------------------------------------------------------------------------------
                             ORCA STARTUP CALCULATIONS
                           -- RI-GTO INTEGRALS CHOSEN --
------------------------------------------------------------------------------
------------------------------------------------------------------------------
                   ___                                                        
                  /   \      - P O W E R E D   B Y -                         
                 /     \                                                     
                 |  |  |   _    _      __       _____    __    __             
                 |  |  |  | |  | |    /  \     |  _  \  |  |  /  |          
                  \  \/   | |  | |   /    \    | | | |  |  | /  /          
                 / \  \   | |__| |  /  /\  \   | |_| |  |  |/  /          
                |  |  |   |  __  | /  /__\  \  |    /   |      \           
                |  |  |   | |  | | |   __   |  |    \   |  |\   \          
                \     /   | |  | | |  |  |  |  | |\  \  |  | \   \       
                 \___/    |_|  |_| |__|  |__|  |_| \__\ |__|  \__/        
                                                                              
                      - O R C A' S   B I G   F R I E N D -                    
                                      &                                       
                       - I N T E G R A L  F E E D E R -                       
                                                                              
 v1 FN, 2020, v2 2021, v3 2022-2024                                           
------------------------------------------------------------------------------


----------------------
SHARK INTEGRAL PACKAGE
----------------------

Number of atoms                             ...     16
Number of basis functions                   ...    246
Number of shells                            ...    106
Maximum angular momentum                    ...      3
Integral batch strategy                     ... SHARK/LIBINT Hybrid
RI-J (if used) integral strategy            ... SPLIT-RIJ (Revised 2003 algorithm where possible)
Printlevel                                  ...      1
Contraction scheme used                     ... SEGMENTED contraction
Prescreening option                         ... SCHWARTZ
   Thresh                                   ... 3.000e-11
   Tcut                                     ... 1.000e-12
   Tpresel                                  ... 1.000e-12 
Coulomb Range Separation                    ... NOT USED
Exchange Range Separation                   ... Long Range
   Mu parameter                             ... 3.000e-01
   Scaling (regular/separated)              ... 1.670e-01 8.330e-01
Multipole approximations                    ... NOT USED
Finite Nucleus Model                        ... NOT USED
CABS basis                                  ... NOT available
Auxiliary Coulomb fitting basis             ... AVAILABLE
   # of basis functions in Aux-J            ...    404
   # of shells in Aux-J                     ...    140
   Maximum angular momentum in Aux-J        ...      4
Auxiliary J/K fitting basis                 ... NOT available
Auxiliary Correlation fitting basis         ... NOT available
Auxiliary 'external' fitting basis          ... NOT available

Checking pre-screening integrals            ... done (  0.0 sec) Dimension = 106
Check shell pair data                       ... done (  0.0 sec)
Shell pair information
Shell pair cut-off parameter TPreSel        ...   1.0e-12
Total number of shell pairs                 ...      5671
Shell pairs after pre-screening             ...      5251
Total number of primitive shell pairs       ...     16452
Primitive shell pairs kept                  ...     11889
          la=0 lb=0:   1657 shell pairs
          la=1 lb=0:   1546 shell pairs
          la=1 lb=1:    380 shell pairs
          la=2 lb=0:    678 shell pairs
          la=2 lb=1:    326 shell pairs
          la=2 lb=2:     77 shell pairs
          la=3 lb=0:    336 shell pairs
          la=3 lb=1:    160 shell pairs
          la=3 lb=2:     70 shell pairs
          la=3 lb=3:     21 shell pairs

Calculating one electron integrals          ... done (  0.0 sec)
Calculating RI/J V-Matrix + Cholesky decomp.... done (  0.1 sec)
Calculating Nuclear repulsion               ... done (  0.0 sec) ENN=    239.140796439495 Eh

Diagonalization of the overlap matrix:
Smallest eigenvalue                        ... 1.815e-04
Time for diagonalization                   ...    0.005 sec
Threshold for overlap eigenvalues          ... 1.000e-07
Number of eigenvalues below threshold      ... 0
Time for construction of square roots      ...    0.012 sec
Total time needed                          ...    0.024 sec

-------------------
DFT GRID GENERATION
-------------------

General Integration Accuracy     IntAcc      ... 4.388
Radial Grid Type                 RadialGrid  ... OptM3 with GC (2021)
Angular Grid (max. ang.)         AngularGrid ... 4 (Lebedev-302)
Angular grid pruning method      GridPruning ... 4 (adaptive)
Weight generation scheme         WeightScheme... mBecke (2022)
Basis function cutoff            BFCut       ... 1.0000e-11
Integration weight cutoff        WCut        ... 1.0000e-14
Partially contracted basis set               ... off
Rotationally invariant grid construction     ... off
Angular grids for H and He will be reduced by one unit

Total number of grid points                  ...    68434
Total number of batches                      ...     1079
Average number of points per batch           ...       63
Average number of grid points per atom       ...     4277

--------------------
COSX GRID GENERATION
--------------------

GRIDX 1
-------
General Integration Accuracy     IntAcc      ... 3.816
Radial Grid Type                 RadialGrid  ... OptM3 with GC (2021)
Angular Grid (max. ang.)         AngularGrid ... 1 (Lebedev-50)
Angular grid pruning method      GridPruning ... 4 (adaptive)
Weight generation scheme         WeightScheme... mBecke (2022)
Basis function cutoff            BFCut       ... 1.0000e-11
Integration weight cutoff        WCut        ... 1.0000e-14
Partially contracted basis set               ... on
Rotationally invariant grid construction     ... off
Angular grids for H and He will be reduced by one unit

Total number of grid points                  ...     8773
Total number of batches                      ...       80
Average number of points per batch           ...      109
Average number of grid points per atom       ...      548
UseSFitting                                  ... on

GRIDX 2
-------
General Integration Accuracy     IntAcc      ... 4.020
Radial Grid Type                 RadialGrid  ... OptM3 with GC (2021)
Angular Grid (max. ang.)         AngularGrid ... 2 (Lebedev-110)
Angular grid pruning method      GridPruning ... 4 (adaptive)
Weight generation scheme         WeightScheme... mBecke (2022)
Basis function cutoff            BFCut       ... 1.0000e-11
Integration weight cutoff        WCut        ... 1.0000e-14
Partially contracted basis set               ... on
Rotationally invariant grid construction     ... off
Angular grids for H and He will be reduced by one unit

Total number of grid points                  ...    18455
Total number of batches                      ...      151
Average number of points per batch           ...      122
Average number of grid points per atom       ...     1153
UseSFitting                                  ... on

GRIDX 3
-------
General Integration Accuracy     IntAcc      ... 4.338
Radial Grid Type                 RadialGrid  ... OptM3 with GC (2021)
Angular Grid (max. ang.)         AngularGrid ... 3 (Lebedev-194)
Angular grid pruning method      GridPruning ... 4 (adaptive)
Weight generation scheme         WeightScheme... mBecke (2022)
Basis function cutoff            BFCut       ... 1.0000e-11
Integration weight cutoff        WCut        ... 1.0000e-14
Partially contracted basis set               ... on
Rotationally invariant grid construction     ... off
Angular grids for H and He will be reduced by one unit

Total number of grid points                  ...    40515
Total number of batches                      ...      325
Average number of points per batch           ...      124
Average number of grid points per atom       ...     2532
UseSFitting                                  ... on
Initializing property integral containers    ... done (  0.0 sec)

SHARK setup successfully completed in   1.6 seconds

Maximum memory used throughout the entire STARTUP-calculation: 37.1 MB
-------------------------------------------------------------------------------
                                 ORCA GUESS
                   Start orbitals & Density for SCF / CASSCF
-------------------------------------------------------------------------------

------------
SCF SETTINGS
------------
Hamiltonian:
 Density Functional     Method          .... DFT(GTOs)
 Exchange Functional    Exchange        .... WB97X-V
 Correlation Functional Correlation     .... WB97X-V
 Gradients option       PostSCFGGA      .... off
 Hybrid DFT is turned on
   Fraction HF Exchange ScalHFX         ....  0.167000
   Scaling of DF-GGA-X  ScalDFX         ....  0.000000
   Scaling of DF-GGA-C  ScalDFC         ....  1.000000
   Scaling of DF-LDA-C  ScalLDAC        ....  1.000000
   Perturbative correction              ....  0.000000
 Long-range corrected/Screened/Range-Separated Hybrid DFT is turned on
   Amount of maximum screened exact exchange              ....  0.833000
   Range separation parameter mu (erf(mu*r12)/r12)        ....  0.300000
   NL short-range parameter             ....  6.000000
   NL long-range parameter              ....  0.010000
 RI-approximation to the Coulomb term is turned on
   Number of AuxJ basis functions       .... 404
   RIJ-COSX (HFX calculated with COS-X)).... on


General Settings:
 Integral files         IntName         .... sp_gas
 Hartree-Fock type      HFTyp           .... RHF
 Total Charge           Charge          ....    0
 Multiplicity           Mult            ....    1
 Number of Electrons    NEL             ....   48
 Basis Dimension        Dim             ....  246
 Nuclear Repulsion      ENuc            ....    239.1407964395 Eh

Convergence Acceleration:
 AO-DIIS                CNVDIIS         .... on
   Start iteration      DIISMaxIt       ....    12
   Startup error        DIISStart       ....  0.200000
   # of expansion vecs  DIISMaxEq       ....     5
   Bias factor          DIISBfac        ....   1.050
   Max. coefficient     DIISMaxC        ....  10.000
 MO-DIIS                CNVKDIIS        .... off
 Trust-Rad. Augm. Hess. CNVTRAH         .... auto
   Auto Start mean grad. ratio tolernc. ....  1.125000
   Auto Start start iteration           ....     1
   Auto Start num. interpolation iter.  ....    10
   Max. Number of Micro iterations      ....    24
   Max. Number of Macro iterations      .... Maxiter - #DIIS iter
   Number of Davidson start vectors     ....     2
   Converg. threshold    (grad. norm)   ....   1.000e-04
   Grad. Scal. Fac. for Micro threshold ....   0.100
   Minimum threshold for Micro iter.    ....   1.000e-02
   NR start threshold (gradient norm)   ....   1.000e-04
   Initial trust radius                 ....   0.400
   Minimum AH scaling param. (alpha)    ....   1.000
   Maximum AH scaling param. (alpha)    .... 1000.000
   Quad. conv. algorithm                .... NR
   White noise on init. David. guess    .... on
   Maximum white noise                  ....   0.010
   Pseudo random numbers                .... off
   Inactive MOs                         .... canonical
   Orbital update algorithm             .... Taylor
   Preconditioner                       .... Diag
   Full preconditioner red. dimension   ....   250
 SOSCF                  CNVSOSCF        .... on
   Start iteration      SOSCFMaxIt      ....   150
   Startup grad/error   SOSCFStart      ....  0.003300
   Hessian update       SOSCFHessUp     .... L-BFGS
 Level Shifting         CNVShift        .... on
   Level shift para.    LevelShift      ....    0.2500
   Turn off err/grad.   ShiftErr        ....    0.0010
 Zerner damping         CNVZerner       .... off
 Static damping         CNVDamp         .... on
   Fraction old density DampFac         ....    0.7000
   Max. Damping (<1)    DampMax         ....    0.9800
   Min. Damping (>=0)   DampMin         ....    0.0000
   Turn off err/grad.   DampErr         ....    0.1000

SCF Procedure:
 Maximum # iterations   MaxIter         ....   125
 SCF integral mode      SCFMode         .... Direct
   Integral package                     .... SHARK and LIBINT hybrid scheme
 Reset frequency        DirectResetFreq ....    20
 Integral Threshold     Thresh          ....  3.000e-11 Eh
 Primitive CutOff       TCut            ....  1.000e-12 Eh

Convergence Tolerance:
 Convergence Check Mode ConvCheckMode   .... Total+1el-Energy
 Convergence forced     ConvForced      .... 0
 Energy Change          TolE            ....  1.000e-07 Eh
 1-El. energy change                    ....  1.000e-04 Eh
 Orbital Gradient       TolG            ....  1.000e-04
 Orbital Rotation angle TolX            ....  1.000e-04
 DIIS Error             TolErr          ....  1.000e-07

---------------------
INITIAL GUESS: MOREAD
---------------------
Guess MOs are being read from file: sp_gas.ges
Input Geometry matches current geometry (good)
Atom 0: N(Shells)= 11 and 9 - projection required
Input basis set needs projection
NBasis(read)= 169
NBasis(calc)= 246
Basis set overlap was calculated
Using GuessMode=FMatrix for the initial guess
C*T matrix was formed
Effective Fockian was calculated
Effective Fockian was diagonalized
Initial density was built
                      ------------------
                      INITIAL GUESS DONE (   0.0 sec)
                      ------------------
             **** ENERGY FILE WAS UPDATED (sp_gas.en.tmp) ****
Finished Guess after   0.2 sec
Maximum memory used throughout the entire GUESS-calculation: 19.9 MB

-------------------------------------------------------------------------------------------
                                      ORCA LEAN-SCF
                              memory conserving SCF solver
-------------------------------------------------------------------------------------------

----------------------------------------D-I-I-S--------------------------------------------
Iteration    Energy (Eh)           Delta-E    RMSDP     MaxDP     DIISErr   Damp  Time(sec)
-------------------------------------------------------------------------------------------
               ***  Starting incremental Fock matrix formation  ***
    1    -271.9735807727248584     0.00e+00  8.14e-04  1.74e-02  5.49e-02  0.700   9.8
    2    -271.9785060635741729    -4.93e-03  7.12e-04  1.65e-02  3.93e-02  0.700   5.0
                               ***Turning on AO-DIIS***
    3    -271.9820656094135529    -3.56e-03  5.82e-04  1.40e-02  2.78e-02  0.700   4.9
    4    -271.9846048540224501    -2.54e-03  1.48e-03  3.62e-02  1.98e-02  0.000   4.9
                              *** Initializing SOSCF ***
---------------------------------------S-O-S-C-F--------------------------------------
Iteration    Energy (Eh)           Delta-E    RMSDP     MaxDP     MaxGrad    Time(sec)
--------------------------------------------------------------------------------------
    5    -271.9911957756789889    -6.59e-03  1.06e-04  2.60e-03  3.19e-03     5.1
               *** Restarting incremental Fock matrix formation ***
    6    -271.9912305921274083    -3.48e-05  8.94e-05  4.22e-03  6.68e-04     9.8
    7    -271.9912403957474680    -9.80e-06  4.74e-05  1.84e-03  1.05e-03     7.8
    8    -271.9912459545046204    -5.56e-06  1.20e-05  3.43e-04  1.77e-04     7.6
    9    -271.9912462342113031    -2.80e-07  2.28e-06  7.83e-05  1.39e-05     7.1
                  *** Gradient check signals convergence ***

               *****************************************************
               *                     SUCCESS                       *
               *           SCF CONVERGED AFTER   9 CYCLES          *
               *****************************************************


------------------
NL GRID GENERATION
------------------

General Integration Accuracy     IntAcc      ... 4.004
Radial Grid Type                 RadialGrid  ... OptM3 with GC (2021)
Angular Grid (max. ang.)         AngularGrid ... 2 (Lebedev-110)
Angular grid pruning method      GridPruning ... 4 (adaptive)
Weight generation scheme         WeightScheme... mBecke (2022)
Basis function cutoff            BFCut       ... 1.0000e-10
Integration weight cutoff        WCut        ... 1.0000e-14
Partially contracted basis set               ... off
Rotationally invariant grid construction     ... off
Angular grids for H and He will be reduced by one unit

Total number of grid points                  ...    20544
Total number of batches                      ...      330
Average number of points per batch           ...       62
Average number of grid points per atom       ...     1284
Final grid set up in    0.1 sec

-------------------------------------------------------------------------------
                    post-SCF DFT-NL dispersion correction                      
-------------------------------------------------------------------------------

SCF Energy:     -271.991246234 
NL    Energy:      0.185847754 
SC+NL Energy:   -271.805398480 
NL done in  :              1.5 sec
-------------------------------------------------------------------------------
Recomputing exchange energy using gridx3       ... done (   17.237 sec)
Old exchange energy                            :    -12.546479329 Eh
New exchange energy                            :    -12.546493443 Eh
Exchange energy change after final integration :     -0.000014114 Eh
Total energy after final integration           :   -271.805412594 Eh
             **** ENERGY FILE WAS UPDATED (sp_gas.en.tmp) ****

----------------
TOTAL SCF ENERGY
----------------

Total Energy       :       -271.80541259430925 Eh           -7396.20129 eV

Components:
Nuclear Repulsion  :        239.14079643949461 Eh            6507.35190 eV
Electronic Energy  :       -511.13204267370588 Eh          -13908.60998 eV
One Electron Energy:       -840.53613672065842 Eh          -22872.15108 eV
Two Electron Energy:        329.40409404695254 Eh            8963.54110 eV

Virial components:
Potential Energy   :       -542.46992103932894 Eh          -14761.35700 eV
Kinetic Energy     :        270.66450844501975 Eh            7365.15571 eV
Virial Ratio       :          2.00421519672396

DFT components:
N(Alpha)           :       24.000022494018 electrons
N(Beta)            :       24.000022494018 electrons
N(Total)           :       48.000044988036 electrons
E(X)               :      -25.119771950228 Eh       
E(C)               :       -1.941995567979 Eh       
NL Energy, E(C,NL) :        0.185847754046 Eh       
E(XC)              :      -26.875919764161 Eh       

---------------
SCF CONVERGENCE
---------------

  Last Energy change         ...    2.7971e-07  Tolerance :   1.0000e-07
  Last MAX-Density change    ...    7.8256e-05  Tolerance :   1.0000e-05
  Last RMS-Density change    ...    2.2828e-06  Tolerance :   1.0000e-06
  Last DIIS Error            ...    3.1865e-03  Tolerance :   1.0000e-07
  Last Orbital Gradient      ...    1.3873e-05  Tolerance :   1.0000e-04
  Last Orbital Rotation      ...    2.3219e-05  Tolerance :   1.0000e-04


----------------
ORBITAL ENERGIES
----------------

  NO   OCC          E(Eh)            E(eV) 
   0   2.0000     -21.657789      -589.3384 
   1   2.0000     -12.134216      -330.1888 
   2   2.0000     -12.058065      -328.1166 
   3   2.0000     -12.057612      -328.1043 
   4   2.0000     -12.037920      -327.5685 
   5   2.0000     -12.037842      -327.5663 
   6   2.0000      -1.701331       -46.2956 
   7   2.0000      -1.313892       -35.7528 
   8   2.0000      -1.274363       -34.6772 
   9   2.0000      -1.174814       -31.9683 
  10   2.0000      -1.109542       -30.1922 
  11   2.0000      -1.071534       -29.1579 
  12   2.0000      -0.969843       -26.3908 
  13   2.0000      -0.946969       -25.7683 
  14   2.0000      -0.921028       -25.0625 
  15   2.0000      -0.869311       -23.6552 
  16   2.0000      -0.855690       -23.2845 
  17   2.0000      -0.850740       -23.1498 
  18   2.0000      -0.838164       -22.8076 
  19   2.0000      -0.819975       -22.3126 
  20   2.0000      -0.800355       -21.7788 
  21   2.0000      -0.782754       -21.2998 
  22   2.0000      -0.773711       -21.0537 
  23   2.0000      -0.771539       -20.9946 
  24   0.0000      -0.301986        -8.2175 
  25   0.0000      -0.059077        -1.6076 
  26   0.0000      -0.049010        -1.3336 
  27   0.0000      -0.027010        -0.7350 
  28   0.0000      -0.003552        -0.0966 
  29   0.0000       0.012028         0.3273 
  30   0.0000       0.027909         0.7594 
  31   0.0000       0.035693         0.9712 
  32   0.0000       0.043033         1.1710 
  33   0.0000       0.050302         1.3688 
  34   0.0000       0.059264         1.6126 
*Only the first 10 virtual orbitals were printed.

                    ********************************
                    * MULLIKEN POPULATION ANALYSIS *
                    ********************************

-----------------------
MULLIKEN ATOMIC CHARGES
-----------------------
   0 C :   -0.314994
   1 C :   -0.177505
   2 C :    0.171852
   3 O :   -0.327600
   4 C :   -0.177479
   5 C :   -0.314985
   6 H :    0.119852
   7 H :    0.112210
   8 H :    0.114563
   9 H :    0.110667
  10 H :    0.113067
  11 H :    0.110607
  12 H :    0.113119
  13 H :    0.112205
  14 H :    0.119862
  15 H :    0.114559
Sum of atomic charges:   -0.0000000

--------------------------------
MULLIKEN REDUCED ORBITAL CHARGES
--------------------------------
  0 C s       :     3.219253  s :     3.219253
      pz      :     1.075443  p :     3.035141
      px      :     0.956123
      py      :     1.003576
      dz2     :     0.006642  d :     0.057164
      dxz     :     0.006650
      dyz     :     0.017748
      dx2y2   :     0.011868
      dxy     :     0.014257
      f0      :     0.000365  f :     0.003436
      f+1     :     0.000063
      f-1     :     0.000948
      f+2     :     0.000039
      f-2     :     0.000461
      f+3     :     0.000782
      f-3     :     0.000778

  1 C s       :     3.145625  s :     3.145625
      pz      :     1.022653  p :     2.936124
      px      :     0.916985
      py      :     0.996486
      dz2     :     0.007553  d :     0.090532
      dxz     :     0.013587
      dyz     :     0.023275
      dx2y2   :     0.028912
      dxy     :     0.017204
      f0      :     0.000520  f :     0.005223
      f+1     :     0.000206
      f-1     :     0.000957
      f+2     :     0.000031
      f-2     :     0.000805
      f+3     :     0.001582
      f-3     :     0.001123

  2 C s       :     3.179959  s :     3.179959
      pz      :     0.686936  p :     2.414171
      px      :     0.965348
      py      :     0.761887
      dz2     :     0.005236  d :     0.216561
      dxz     :     0.014083
      dyz     :     0.054291
      dx2y2   :     0.039412
      dxy     :     0.103540
      f0      :     0.002058  f :     0.017458
      f+1     :     0.000723
      f-1     :     0.001170
      f+2     :     0.002173
      f-2     :     0.001228
      f+3     :     0.007468
      f-3     :     0.002638

  3 O s       :     3.810235  s :     3.810235
      pz      :     1.316423  p :     4.483290
      px      :     1.815174
      py      :     1.351693
      dz2     :     0.002714  d :     0.032264
      dxz     :     0.000070
      dyz     :     0.011734
      dx2y2   :     0.009308
      dxy     :     0.008438
      f0      :     0.000148  f :     0.001810
      f+1     :     0.000020
      f-1     :     0.000149
      f+2     :     0.000467
      f-2     :     0.000005
      f+3     :     0.000553
      f-3     :     0.000469

  4 C s       :     3.145605  s :     3.145605
      pz      :     1.022643  p :     2.936128
      px      :     0.917006
      py      :     0.996478
      dz2     :     0.007542  d :     0.090524
      dxz     :     0.013587
      dyz     :     0.023283
      dx2y2   :     0.028904
      dxy     :     0.017208
      f0      :     0.000519  f :     0.005223
      f+1     :     0.000206
      f-1     :     0.000958
      f+2     :     0.000031
      f-2     :     0.000805
      f+3     :     0.001582
      f-3     :     0.001123

  5 C s       :     3.219234  s :     3.219234
      pz      :     1.075450  p :     3.035149
      px      :     0.956129
      py      :     1.003570
      dz2     :     0.006637  d :     0.057166
      dxz     :     0.006649
      dyz     :     0.017755
      dx2y2   :     0.011866
      dxy     :     0.014259
      f0      :     0.000364  f :     0.003436
      f+1     :     0.000063
      f-1     :     0.000949
      f+2     :     0.000038
      f-2     :     0.000461
      f+3     :     0.000782
      f-3     :     0.000778

  6 H s       :     0.858973  s :     0.858973
      pz      :     0.008788  p :     0.021176
      px      :     0.004118
      py      :     0.008270

  7 H s       :     0.866816  s :     0.866816
      pz      :     0.004241  p :     0.020974
      px      :     0.010085
      py      :     0.006648

  8 H s       :     0.864335  s :     0.864335
      pz      :     0.010279  p :     0.021102
      px      :     0.004110
      py      :     0.006713

  9 H s       :     0.867837  s :     0.867837
      pz      :     0.008621  p :     0.021496
      px      :     0.004133
      py      :     0.008741

 10 H s       :     0.865378  s :     0.865378
      pz      :     0.010215  p :     0.021555
      px      :     0.004142
      py      :     0.007198

 11 H s       :     0.867896  s :     0.867896
      pz      :     0.008627  p :     0.021496
      px      :     0.004134
      py      :     0.008735

 12 H s       :     0.865327  s :     0.865327
      pz      :     0.010210  p :     0.021554
      px      :     0.004140
      py      :     0.007203

 13 H s       :     0.866821  s :     0.866821
      pz      :     0.004241  p :     0.020974
      px      :     0.010084
      py      :     0.006649

 14 H s       :     0.858962  s :     0.858962
      pz      :     0.008794  p :     0.021176
      px      :     0.004118
      py      :     0.008264

 15 H s       :     0.864339  s :     0.864339
      pz      :     0.010273  p :     0.021102
      px      :     0.004110
      py      :     0.006718


------------------------
MULLIKEN OVERLAP CHARGES
------------------------
B(  0-C ,  1-C ) :   0.5833 B(  0-C ,  2-C ) :  -0.0652 B(  0-C ,  6-H ) :   0.8233 
B(  0-C ,  7-H ) :   0.8440 B(  0-C ,  8-H ) :   0.8255 B(  0-C ,  9-H ) :  -0.0642 
B(  1-C ,  2-C ) :   0.5944 B(  1-C ,  3-O ) :  -0.2244 B(  1-C ,  4-C ) :  -0.3644 
B(  1-C ,  6-H ) :  -0.0546 B(  1-C ,  7-H ) :  -0.1080 B(  1-C ,  8-H ) :  -0.0579 
B(  1-C ,  9-H ) :   0.8053 B(  1-C , 10-H ) :   0.7809 B(  2-C ,  3-O ) :   1.3564 
B(  2-C ,  4-C ) :   0.5945 B(  2-C ,  5-C ) :  -0.0652 B(  2-C ,  9-H ) :  -0.0780 
B(  2-C , 10-H ) :  -0.0571 B(  2-C , 11-H ) :  -0.0780 B(  2-C , 12-H ) :  -0.0571 
B(  3-O ,  4-C ) :  -0.2244 B(  4-C ,  5-C ) :   0.5834 B(  4-C , 11-H ) :   0.8052 
B(  4-C , 12-H ) :   0.7810 B(  4-C , 13-H ) :  -0.1080 B(  4-C , 14-H ) :  -0.0545 
B(  4-C , 15-H ) :  -0.0579 B(  5-C , 11-H ) :  -0.0642 B(  5-C , 13-H ) :   0.8440 
B(  5-C , 14-H ) :   0.8233 B(  5-C , 15-H ) :   0.8255 B(  6-H ,  7-H ) :  -0.0543 
B(  7-H ,  8-H ) :  -0.0543 B(  9-H , 10-H ) :  -0.0585 B( 11-H , 12-H ) :  -0.0585 
B( 13-H , 14-H ) :  -0.0543 B( 13-H , 15-H ) :  -0.0543 


                     *******************************
                     * LOEWDIN POPULATION ANALYSIS *
                     *******************************

----------------------
LOEWDIN ATOMIC CHARGES
----------------------
   0 C :   -0.296704
   1 C :   -0.260932
   2 C :   -0.315620
   3 O :    0.113122
   4 C :   -0.260929
   5 C :   -0.296704
   6 H :    0.123933
   7 H :    0.116476
   8 H :    0.122803
   9 H :    0.146522
  10 H :    0.149150
  11 H :    0.146514
  12 H :    0.149155
  13 H :    0.116476
  14 H :    0.123930
  15 H :    0.122806

-------------------------------
LOEWDIN REDUCED ORBITAL CHARGES
-------------------------------
  0 C s       :     2.824701  s :     2.824701
      pz      :     1.079929  p :     3.185294
      px      :     1.039430
      py      :     1.065934
      dz2     :     0.038742  d :     0.261596
      dxz     :     0.027448
      dyz     :     0.070300
      dx2y2   :     0.054690
      dxy     :     0.070416
      f0      :     0.002351  f :     0.025112
      f+1     :     0.002768
      f-1     :     0.003500
      f+2     :     0.003452
      f-2     :     0.002826
      f+3     :     0.005462
      f-3     :     0.004753

  1 C s       :     2.773762  s :     2.773762
      pz      :     1.019484  p :     3.071788
      px      :     1.023810
      py      :     1.028494
      dz2     :     0.043967  d :     0.378300
      dxz     :     0.048033
      dyz     :     0.091482
      dx2y2   :     0.105117
      dxy     :     0.089702
      f0      :     0.003409  f :     0.037082
      f+1     :     0.003536
      f-1     :     0.004394
      f+2     :     0.004078
      f-2     :     0.004844
      f+3     :     0.010260
      f-3     :     0.006562

  2 C s       :     2.769021  s :     2.769021
      pz      :     0.660798  p :     2.671753
      px      :     1.015293
      py      :     0.995662
      dz2     :     0.047175  d :     0.767606
      dxz     :     0.058480
      dyz     :     0.137828
      dx2y2   :     0.207067
      dxy     :     0.317055
      f0      :     0.007040  f :     0.107239
      f+1     :     0.003573
      f-1     :     0.009458
      f+2     :     0.014949
      f-2     :     0.007131
      f+3     :     0.048725
      f-3     :     0.016363

  3 O s       :     3.402963  s :     3.402963
      pz      :     1.250941  p :     4.411054
      px      :     1.663884
      py      :     1.496228
      dz2     :     0.007474  d :     0.067180
      dxz     :     0.000058
      dyz     :     0.012171
      dx2y2   :     0.024251
      dxy     :     0.023225
      f0      :     0.000302  f :     0.005681
      f+1     :     0.000139
      f-1     :     0.000817
      f+2     :     0.000646
      f-2     :     0.000010
      f+3     :     0.002097
      f-3     :     0.001671

  4 C s       :     2.773762  s :     2.773762
      pz      :     1.019484  p :     3.071786
      px      :     1.023809
      py      :     1.028493
      dz2     :     0.043938  d :     0.378298
      dxz     :     0.048032
      dyz     :     0.091523
      dx2y2   :     0.105100
      dxy     :     0.089705
      f0      :     0.003406  f :     0.037083
      f+1     :     0.003535
      f-1     :     0.004397
      f+2     :     0.004077
      f-2     :     0.004844
      f+3     :     0.010261
      f-3     :     0.006562

  5 C s       :     2.824699  s :     2.824699
      pz      :     1.079931  p :     3.185293
      px      :     1.039432
      py      :     1.065930
      dz2     :     0.038724  d :     0.261599
      dxz     :     0.027443
      dyz     :     0.070326
      dx2y2   :     0.054683
      dxy     :     0.070424
      f0      :     0.002349  f :     0.025113
      f+1     :     0.002768
      f-1     :     0.003503
      f+2     :     0.003451
      f-2     :     0.002825
      f+3     :     0.005463
      f-3     :     0.004753

  6 H s       :     0.815296  s :     0.815296
      pz      :     0.025691  p :     0.060771
      px      :     0.012284
      py      :     0.022795

  7 H s       :     0.823213  s :     0.823213
      pz      :     0.013590  p :     0.060310
      px      :     0.026113
      py      :     0.020607

  8 H s       :     0.816744  s :     0.816744
      pz      :     0.029376  p :     0.060453
      px      :     0.012271
      py      :     0.018806

  9 H s       :     0.795099  s :     0.795099
      pz      :     0.024152  p :     0.058379
      px      :     0.012242
      py      :     0.021985

 10 H s       :     0.792483  s :     0.792483
      pz      :     0.027584  p :     0.058366
      px      :     0.012369
      py      :     0.018414

 11 H s       :     0.795106  s :     0.795106
      pz      :     0.024166  p :     0.058380
      px      :     0.012245
      py      :     0.021970

 12 H s       :     0.792480  s :     0.792480
      pz      :     0.027573  p :     0.058364
      px      :     0.012366
      py      :     0.018426

 13 H s       :     0.823214  s :     0.823214
      pz      :     0.013589  p :     0.060310
      px      :     0.026113
      py      :     0.020609

 14 H s       :     0.815298  s :     0.815298
      pz      :     0.025708  p :     0.060772
      px      :     0.012285
      py      :     0.022779

 15 H s       :     0.816742  s :     0.816742
      pz      :     0.029361  p :     0.060452
      px      :     0.012271
      py      :     0.018819


---------------------------------
LOEWDIN BOND ORDERS (THRESH 0.050000)
---------------------------------
B(  0-C ,  1-C ) :   1.2824 B(  0-C ,  2-C ) :   0.1445 B(  0-C ,  6-H ) :   0.9039 
B(  0-C ,  7-H ) :   0.9063 B(  0-C ,  8-H ) :   0.9047 B(  0-C ,  9-H ) :   0.0711 
B(  0-C , 10-H ) :   0.0715 B(  1-C ,  2-C ) :   1.1825 B(  1-C ,  3-O ) :   0.1707 
B(  1-C ,  4-C ) :   0.1454 B(  1-C ,  6-H ) :   0.0787 B(  1-C ,  7-H ) :   0.0844 
B(  1-C ,  8-H ) :   0.0787 B(  1-C ,  9-H ) :   0.8297 B(  1-C , 10-H ) :   0.8260 
B(  2-C ,  3-O ) :   2.6023 B(  2-C ,  4-C ) :   1.1825 B(  2-C ,  5-C ) :   0.1445 
B(  2-C ,  9-H ) :   0.0881 B(  2-C , 10-H ) :   0.0911 B(  2-C , 11-H ) :   0.0882 
B(  2-C , 12-H ) :   0.0911 B(  3-O ,  4-C ) :   0.1707 B(  4-C ,  5-C ) :   1.2824 
B(  4-C , 11-H ) :   0.8297 B(  4-C , 12-H ) :   0.8260 B(  4-C , 13-H ) :   0.0844 
B(  4-C , 14-H ) :   0.0787 B(  4-C , 15-H ) :   0.0787 B(  5-C , 11-H ) :   0.0711 
B(  5-C , 12-H ) :   0.0715 B(  5-C , 13-H ) :   0.9062 B(  5-C , 14-H ) :   0.9039 
B(  5-C , 15-H ) :   0.9047 

------------------------------------------
LOEWDIN REDUCED ORBITAL POPULATIONS PER MO
-------------------------------------------
THRESHOLD FOR PRINTING IS 0.1%%
                      0         1         2         3         4         5   
                 -21.65779 -12.13422 -12.05806 -12.05761 -12.03792 -12.03784
                   2.00000   2.00000   2.00000   2.00000   2.00000   2.00000
                  --------  --------  --------  --------  --------  --------
 0 C  s               0.0       0.0       0.0       0.1      50.1      49.4
 1 C  s               0.0       0.0      49.4      49.8       0.0       0.1
 2 C  s               0.0      99.1       0.0       0.0       0.0       0.0
 2 C  dxy             0.0       0.0       0.2       0.0       0.0       0.0
 3 O  s              99.7       0.0       0.0       0.0       0.0       0.0
 3 O  py              0.0       0.1       0.0       0.0       0.0       0.0
 3 O  dx2y2           0.0       0.2       0.0       0.0       0.0       0.0
 4 C  s               0.0       0.0      49.8      49.5       0.0       0.1
 5 C  s               0.0       0.0       0.0       0.1      49.4      50.1

                      6         7         8         9        10        11   
                  -1.70133  -1.31389  -1.27436  -1.17481  -1.10954  -1.07153
                   2.00000   2.00000   2.00000   2.00000   2.00000   2.00000
                  --------  --------  --------  --------  --------  --------
 0 C  s               0.1       5.6      11.1      13.7       9.5       0.9
 0 C  px              0.3       1.8       1.6       0.3       2.9       0.7
 0 C  py              0.0       0.7       0.7       0.0       0.9       0.6
 0 C  dz2             0.0       0.1       0.1       0.0       0.2       0.0
 0 C  dx2y2           0.0       0.1       0.1       0.1       0.1       0.0
 0 C  dxy             0.0       0.3       0.3       0.0       0.3       0.1
 1 C  s               0.5      15.7      13.1       0.1       5.1       2.1
 1 C  px              0.7       0.5       1.9      11.6       3.4       0.1
 1 C  py              0.9       0.5       0.7       0.4       1.2       2.6
 1 C  dz2             0.1       0.2       0.1       0.0       0.2       0.2
 1 C  dx2y2           0.0       0.5       0.0       0.0       0.4       0.0
 1 C  dxy             0.4       0.0       0.2       1.3       0.7       0.1
 1 C  f-3             0.0       0.1       0.1       0.0       0.0       0.0
 2 C  s              13.5      10.5       0.0       6.7       0.0       3.6
 2 C  px              0.0       0.0      12.8       0.0       9.6       0.0
 2 C  py             16.5       9.5       0.0       3.7       0.0       5.7
 2 C  dz2             1.1       0.3       0.0       0.0       0.0       0.6
 2 C  dx2y2           3.8       1.7       0.0       0.0       0.0       1.0
 2 C  dxy             0.0       0.0       1.2       0.0       1.5       0.0
 2 C  f-1             0.3       0.1       0.0       0.0       0.0       0.0
 2 C  f+3             0.0       0.0       0.0       0.0       0.1       0.0
 2 C  f-3             0.6       0.1       0.0       0.0       0.0       0.0
 3 O  s              52.3       2.7       0.0       2.0       0.0      12.2
 3 O  px              0.0       0.0       0.5       0.0       1.5       0.0
 3 O  py              4.8       2.5       0.0       4.8       0.0      50.5
 3 O  dz2             0.1       0.0       0.0       0.0       0.0       0.2
 3 O  dx2y2           0.3       0.1       0.0       0.1       0.0       0.5
 3 O  dxy             0.0       0.0       0.1       0.0       0.1       0.0
 4 C  s               0.5      15.7      13.1       0.1       5.1       2.1
 4 C  px              0.7       0.5       1.9      11.6       3.4       0.1
 4 C  py              0.9       0.5       0.7       0.4       1.2       2.6
 4 C  dz2             0.1       0.2       0.1       0.0       0.2       0.2
 4 C  dx2y2           0.0       0.5       0.0       0.0       0.4       0.0
 4 C  dxy             0.4       0.0       0.2       1.3       0.7       0.1
 4 C  f-3             0.0       0.1       0.1       0.0       0.0       0.0
 5 C  s               0.1       5.6      11.1      13.7       9.5       0.9
 5 C  px              0.3       1.8       1.6       0.3       2.9       0.7
 5 C  py              0.0       0.7       0.7       0.0       0.9       0.6
 5 C  dz2             0.0       0.1       0.1       0.0       0.2       0.0
 5 C  dx2y2           0.0       0.1       0.1       0.1       0.1       0.0
 5 C  dxy             0.0       0.3       0.3       0.0       0.3       0.1
 6 H  s               0.0       0.9       2.1       3.9       3.8       0.5
 6 H  pz              0.0       0.0       0.1       0.2       0.2       0.0
 6 H  py              0.0       0.1       0.1       0.2       0.1       0.0
 7 H  s               0.0       1.0       2.2       4.3       4.1       0.3
 7 H  px              0.0       0.1       0.2       0.3       0.2       0.0
 7 H  py              0.0       0.0       0.0       0.1       0.2       0.0
 8 H  s               0.0       0.9       2.1       3.9       3.9       0.5
 8 H  pz              0.0       0.1       0.1       0.3       0.3       0.0
 8 H  py              0.0       0.0       0.1       0.1       0.1       0.0
 9 H  s               0.1       3.1       2.5       0.1       2.4       1.8
 9 H  pz              0.0       0.1       0.1       0.0       0.2       0.1
 9 H  py              0.0       0.2       0.1       0.0       0.1       0.0
10 H  s               0.1       3.1       2.6       0.1       2.5       1.6
10 H  pz              0.0       0.2       0.2       0.0       0.2       0.1
10 H  py              0.0       0.1       0.1       0.0       0.0       0.0
11 H  s               0.1       3.1       2.5       0.1       2.4       1.8
11 H  pz              0.0       0.1       0.1       0.0       0.2       0.1
11 H  py              0.0       0.2       0.1       0.0       0.1       0.0
12 H  s               0.1       3.1       2.6       0.1       2.5       1.6
12 H  pz              0.0       0.2       0.2       0.0       0.2       0.1
12 H  py              0.0       0.1       0.1       0.0       0.0       0.0
13 H  s               0.0       1.0       2.2       4.3       4.1       0.3
13 H  px              0.0       0.1       0.2       0.3       0.2       0.0
13 H  py              0.0       0.0       0.0       0.1       0.2       0.0
14 H  s               0.0       0.9       2.1       3.9       3.8       0.5
14 H  pz              0.0       0.0       0.1       0.2       0.2       0.0
14 H  py              0.0       0.1       0.1       0.2       0.1       0.0
15 H  s               0.0       0.9       2.1       3.9       3.9       0.5
15 H  pz              0.0       0.1       0.1       0.3       0.3       0.0
15 H  py              0.0       0.0       0.1       0.1       0.1       0.0

                     12        13        14        15        16        17   
                  -0.96984  -0.94697  -0.92103  -0.86931  -0.85569  -0.85074
                   2.00000   2.00000   2.00000   2.00000   2.00000   2.00000
                  --------  --------  --------  --------  --------  --------
 0 C  s               0.0       0.4       0.0       0.0       0.0       0.2
 0 C  pz              0.0       0.1       2.8      13.7       9.3       0.1
 0 C  px              0.2       1.7       0.0       0.0       0.0      19.6
 0 C  py              2.7       5.8       0.0       0.1       0.1       0.2
 0 C  dz2             0.0       0.1       0.0       0.0       0.0       0.0
 0 C  dxz             0.0       0.0       0.2       0.2       0.0       0.0
 0 C  dx2y2           0.2       0.1       0.0       0.0       0.0       0.1
 0 C  dxy             0.2       0.4       0.0       0.0       0.0       0.5
 1 C  s               0.7       1.2       0.0       0.0       0.0       0.3
 1 C  pz              0.0       0.1      11.2      16.5       7.7       0.2
 1 C  px              2.4      10.3       0.0       0.0       0.0       3.1
 1 C  py              7.7       5.5       0.0       0.3       0.1      10.9
 1 C  dz2             0.3       0.3       0.0       0.0       0.0       0.1
 1 C  dxz             0.0       0.0       0.4       0.3       0.7       0.0
 1 C  dyz             0.0       0.0       0.0       0.2       0.5       0.0
 1 C  dx2y2           0.0       0.9       0.0       0.0       0.0       0.0
 1 C  dxy             0.3       0.1       0.0       0.0       0.0       0.2
 1 C  f-2             0.0       0.0       0.0       0.0       0.1       0.0
 2 C  s               0.0       4.0       0.0       0.0       0.0       0.0
 2 C  pz              0.0       0.0      27.0       0.0       5.7       0.0
 2 C  px             15.4       0.0       0.0       0.0       0.0       0.0
 2 C  py              0.0      12.3       0.0       0.0       0.0       0.9
 2 C  dxz             0.0       0.0       0.0       1.9       0.0       0.0
 2 C  dyz             0.0       0.0       0.5       0.0       4.5       0.0
 2 C  dx2y2           0.0       0.2       0.0       0.0       0.0       3.0
 2 C  dxy             3.3       0.0       0.0       0.0       0.0       0.0
 2 C  f0              0.0       0.0       0.3       0.0       0.0       0.0
 2 C  f+2             0.0       0.0       0.2       0.0       0.5       0.0
 2 C  f-2             0.0       0.0       0.0       0.2       0.0       0.0
 2 C  f+3             0.4       0.0       0.0       0.0       0.0       0.0
 3 O  s               0.0       1.0       0.0       0.0       0.0       0.0
 3 O  pz              0.0       0.0      29.6       0.0      29.5       0.0
 3 O  px             39.7       0.0       0.0       0.0       0.0       0.0
 3 O  py              0.0      10.5       0.0       0.0       0.0       0.8
 3 O  dyz             0.0       0.0       0.5       0.0       0.1       0.0
 3 O  dxy             0.3       0.0       0.0       0.0       0.0       0.0
 4 C  s               0.7       1.2       0.0       0.0       0.0       0.3
 4 C  pz              0.0       0.1      11.2      16.5       7.7       0.2
 4 C  px              2.4      10.3       0.0       0.0       0.0       3.1
 4 C  py              7.7       5.5       0.0       0.3       0.1      11.0
 4 C  dz2             0.3       0.3       0.0       0.0       0.0       0.1
 4 C  dxz             0.0       0.0       0.4       0.3       0.7       0.0
 4 C  dyz             0.0       0.0       0.0       0.2       0.5       0.0
 4 C  dx2y2           0.0       0.9       0.0       0.0       0.0       0.0
 4 C  dxy             0.3       0.1       0.0       0.0       0.0       0.2
 4 C  f-2             0.0       0.0       0.0       0.0       0.1       0.0
 5 C  s               0.0       0.4       0.0       0.0       0.0       0.2
 5 C  pz              0.0       0.1       2.8      13.7       9.3       0.1
 5 C  px              0.2       1.7       0.0       0.0       0.0      19.6
 5 C  py              2.7       5.8       0.0       0.1       0.1       0.2
 5 C  dz2             0.0       0.1       0.0       0.0       0.0       0.0
 5 C  dxz             0.0       0.0       0.2       0.2       0.0       0.0
 5 C  dx2y2           0.2       0.1       0.0       0.0       0.0       0.1
 5 C  dxy             0.2       0.4       0.0       0.0       0.0       0.5
 6 H  s               0.3       1.5       0.7       3.4       2.3       0.2
 6 H  pz              0.0       0.1       0.0       0.0       0.0       0.0
 6 H  px              0.0       0.0       0.0       0.0       0.0       0.3
 6 H  py              0.0       0.0       0.0       0.2       0.1       0.0
 7 H  s               0.2       0.1       0.0       0.0       0.0       7.4
 7 H  pz              0.0       0.0       0.0       0.1       0.1       0.0
 7 H  py              0.0       0.1       0.0       0.0       0.0       0.2
 8 H  s               0.3       1.5       0.5       3.5       2.5       0.0
 8 H  pz              0.0       0.1       0.0       0.0       0.0       0.0
 8 H  px              0.0       0.0       0.0       0.0       0.0       0.3
 8 H  py              0.0       0.0       0.0       0.1       0.1       0.0
 9 H  s               2.3       2.3       2.2       5.1       3.0       1.4
 9 H  pz              0.2       0.1       0.0       0.0       0.0       0.1
 9 H  px              0.0       0.2       0.0       0.0       0.0       0.1
 9 H  py              0.0       0.0       0.1       0.2       0.1       0.0
10 H  s               2.0       2.5       2.3       4.5       3.0       1.8
10 H  pz              0.2       0.1       0.0       0.0       0.0       0.1
10 H  px              0.0       0.2       0.0       0.0       0.0       0.0
10 H  py              0.0       0.0       0.1       0.2       0.1       0.0
11 H  s               2.3       2.3       2.2       5.1       3.0       1.4
11 H  pz              0.2       0.1       0.0       0.0       0.0       0.1
11 H  px              0.0       0.2       0.0       0.0       0.0       0.1
11 H  py              0.0       0.0       0.1       0.2       0.1       0.0
12 H  s               2.0       2.5       2.3       4.5       3.0       1.8
12 H  pz              0.2       0.1       0.0       0.0       0.0       0.1
12 H  px              0.0       0.2       0.0       0.0       0.0       0.0
12 H  py              0.0       0.0       0.1       0.2       0.1       0.0
13 H  s               0.2       0.1       0.0       0.0       0.0       7.4
13 H  pz              0.0       0.0       0.0       0.1       0.1       0.0
13 H  py              0.0       0.1       0.0       0.0       0.0       0.2
14 H  s               0.3       1.5       0.7       3.4       2.3       0.2
14 H  pz              0.0       0.1       0.0       0.0       0.0       0.0
14 H  px              0.0       0.0       0.0       0.0       0.0       0.3
14 H  py              0.0       0.0       0.0       0.2       0.1       0.0
15 H  s               0.3       1.5       0.5       3.5       2.5       0.0
15 H  pz              0.0       0.1       0.0       0.0       0.0       0.0
15 H  px              0.0       0.0       0.0       0.0       0.0       0.3
15 H  py              0.0       0.0       0.0       0.1       0.1       0.0

                     18        19        20        21        22        23   
                  -0.83816  -0.81997  -0.80036  -0.78275  -0.77371  -0.77154
                   2.00000   2.00000   2.00000   2.00000   2.00000   2.00000
                  --------  --------  --------  --------  --------  --------
 0 C  s               0.1       0.1       0.0       0.0       0.0       0.0
 0 C  pz              0.0       0.2       0.1      14.5      13.1       0.3
 0 C  px             11.4       4.7       1.2       0.0       0.0       5.4
 0 C  py              3.0      14.8      19.0       0.4       0.1       4.1
 0 C  dz2             0.1       0.3       0.6       0.0       0.1       0.2
 0 C  dxz             0.0       0.0       0.0       0.3       0.5       0.0
 0 C  dyz             0.0       0.0       0.0       1.6       1.8       0.0
 0 C  dx2y2           0.0       0.1       0.7       0.0       0.0       1.2
 0 C  dxy             0.5       0.0       0.4       0.0       0.0       0.4
 0 C  f+3             0.0       0.0       0.0       0.0       0.0       0.1
 1 C  s               0.2       0.0       0.1       0.0       0.0       0.1
 1 C  pz              0.0       0.0       0.0       6.1       8.8       0.2
 1 C  px              0.2      11.3       0.3       0.0       0.0       5.3
 1 C  py              8.2       3.1       4.1       0.2       0.0       4.9
 1 C  dz2             0.0       0.3       0.2       0.0       0.1       0.0
 1 C  dxz             0.0       0.0       0.0       0.7       0.4       0.0
 1 C  dyz             0.0       0.0       0.0       1.8       1.9       0.0
 1 C  dx2y2           0.0       0.8       2.0       0.0       0.0       0.5
 1 C  dxy             0.3       0.1       0.3       0.0       0.0       0.4
 1 C  f+3             0.1       0.0       0.0       0.0       0.0       0.1
 2 C  s               0.0       0.0       0.9       0.0       0.0       0.0
 2 C  pz              0.0       0.0       0.0       0.2       0.0       0.0
 2 C  px              0.3       1.3       0.0       0.1       0.0      11.1
 2 C  py              0.0       0.0       1.0       0.0       0.0       0.0
 2 C  dxz             0.0       0.0       0.0       0.0       1.0       0.0
 2 C  dyz             0.0       0.1       0.0       1.8       0.0       0.0
 2 C  dx2y2           0.0       0.0       0.5       0.0       0.0       0.0
 2 C  dxy             2.2       3.0       0.0       0.0       0.0       4.4
 2 C  f-2             0.0       0.0       0.0       0.0       0.2       0.0
 2 C  f+3             1.4       0.1       0.0       0.0       0.0       0.4
 3 O  s               0.0       0.0       0.1       0.0       0.0       0.0
 3 O  pz              0.0       0.1       0.0       3.3       0.0       0.0
 3 O  px             24.1       3.2       0.0       0.1       0.0      14.1
 3 O  py              0.0       0.0       0.8       0.0       0.0       0.0
 3 O  dxy             0.1       0.0       0.0       0.0       0.0       0.5
 4 C  s               0.2       0.0       0.1       0.0       0.0       0.1
 4 C  pz              0.0       0.0       0.0       6.1       8.9       0.2
 4 C  px              0.2      11.3       0.3       0.0       0.0       5.3
 4 C  py              8.2       3.1       4.1       0.2       0.0       4.9
 4 C  dz2             0.0       0.3       0.2       0.0       0.1       0.0
 4 C  dxz             0.0       0.0       0.0       0.7       0.4       0.0
 4 C  dyz             0.0       0.0       0.0       1.8       1.9       0.0
 4 C  dx2y2           0.0       0.8       2.0       0.0       0.0       0.5
 4 C  dxy             0.3       0.1       0.3       0.0       0.0       0.4
 4 C  f+3             0.1       0.0       0.0       0.0       0.0       0.1
 5 C  s               0.1       0.1       0.0       0.0       0.0       0.0
 5 C  pz              0.0       0.2       0.1      14.4      13.1       0.2
 5 C  px             11.3       4.7       1.2       0.0       0.0       5.4
 5 C  py              3.0      14.9      19.0       0.4       0.0       4.1
 5 C  dz2             0.1       0.3       0.6       0.0       0.1       0.2
 5 C  dxz             0.0       0.0       0.0       0.3       0.5       0.0
 5 C  dyz             0.0       0.0       0.0       1.6       1.8       0.0
 5 C  dx2y2           0.0       0.1       0.7       0.0       0.0       1.2
 5 C  dxy             0.5       0.0       0.4       0.0       0.0       0.4
 5 C  f+3             0.0       0.0       0.0       0.0       0.0       0.1
 6 H  s               0.4       2.9       4.1       7.2       5.9       0.6
 6 H  pz              0.0       0.2       0.2       0.0       0.0       0.0
 6 H  px              0.1       0.1       0.0       0.0       0.0       0.1
 6 H  py              0.0       0.0       0.0       0.1       0.1       0.0
 7 H  s               7.8       0.2       7.3       0.1       0.0       6.2
 7 H  pz              0.0       0.0       0.0       0.2       0.2       0.0
 7 H  px              0.1       0.1       0.2       0.0       0.0       0.1
 7 H  py              0.1       0.2       0.0       0.0       0.0       0.0
 8 H  s               0.4       3.5       3.6       5.8       6.3       1.5
 8 H  pz              0.0       0.2       0.2       0.0       0.0       0.0
 8 H  px              0.1       0.1       0.0       0.0       0.0       0.1
 8 H  py              0.0       0.0       0.1       0.2       0.1       0.0
 9 H  s               1.3       1.0       1.7       4.2       4.5       0.8
 9 H  px              0.0       0.2       0.0       0.0       0.0       0.1
 9 H  py              0.0       0.0       0.0       0.1       0.1       0.0
10 H  s               1.1       1.1       1.5       3.2       4.9       1.6
10 H  px              0.0       0.2       0.0       0.0       0.0       0.1
11 H  s               1.3       1.0       1.7       4.3       4.4       0.8
11 H  px              0.0       0.2       0.0       0.0       0.0       0.1
11 H  py              0.0       0.0       0.0       0.1       0.1       0.0
12 H  s               1.1       1.1       1.5       3.2       5.0       1.5
12 H  px              0.0       0.2       0.0       0.0       0.0       0.1
13 H  s               7.8       0.2       7.3       0.1       0.0       6.2
13 H  pz              0.0       0.0       0.0       0.2       0.2       0.0
13 H  px              0.1       0.1       0.2       0.0       0.0       0.1
13 H  py              0.1       0.2       0.0       0.0       0.0       0.0
14 H  s               0.4       2.9       4.1       7.2       5.8       0.7
14 H  pz              0.0       0.2       0.2       0.0       0.0       0.0
14 H  px              0.1       0.1       0.0       0.0       0.0       0.1
14 H  py              0.0       0.0       0.0       0.1       0.1       0.0
15 H  s               0.4       3.5       3.7       5.8       6.3       1.4
15 H  pz              0.0       0.2       0.2       0.0       0.0       0.0
15 H  px              0.1       0.1       0.0       0.0       0.0       0.1
15 H  py              0.0       0.0       0.1       0.2       0.1       0.0

                     24        25        26        27        28        29   
                  -0.30199  -0.05908  -0.04901  -0.02701  -0.00355   0.01203
                   0.00000   0.00000   0.00000   0.00000   0.00000   0.00000
                  --------  --------  --------  --------  --------  --------
 0 C  s               0.0       4.1       1.2       0.1       7.0       0.3
 0 C  pz              0.0       0.0       0.0       0.0       0.1       2.7
 0 C  px              0.0       3.5       0.2       2.7       0.3       0.4
 0 C  py              0.0       2.5       0.1       0.6       0.1       0.1
 0 C  dz2             0.0       1.4       0.3       0.3       0.0       0.0
 0 C  dxz             0.0       0.0       0.0       0.0       0.1       1.1
 0 C  dyz             0.1       0.0       0.0       0.0       0.1       3.1
 0 C  dx2y2           0.0       2.4       1.0       0.3       0.0       0.0
 0 C  dxy             0.0       0.4       0.0       4.1       0.0       0.3
 0 C  f-1             0.0       0.0       0.0       0.0       0.1       0.0
 0 C  f+2             0.0       0.0       0.0       0.0       0.0       0.1
 0 C  f+3             0.0       0.0       0.0       0.1       0.0       0.0
 0 C  f-3             0.0       0.3       0.0       0.0       0.0       0.0
 1 C  s               0.0       3.0       4.1       5.8       1.9       0.5
 1 C  pz              0.2       0.1       0.0       0.0       0.6      11.7
 1 C  px              0.0       0.1       5.7       3.5       4.2       0.1
 1 C  py              0.0       5.8       0.4       4.4       1.6       0.1
 1 C  dz2             0.1       4.5       0.0       0.7       0.3       0.2
 1 C  dxz             2.4       0.0       0.0       0.0       0.2       1.2
 1 C  dyz             2.8       0.0       0.0       0.0       0.4       3.3
 1 C  dx2y2           0.0       4.3       0.1       0.6       0.4       0.0
 1 C  dxy             0.0       1.3       6.6       3.3       3.8       0.0
 1 C  f0              0.2       0.0       0.0       0.0       0.0       0.0
 1 C  f+1             0.0       0.0       0.1       0.1       0.1       0.0
 1 C  f-1             0.0       0.0       0.1       0.1       0.0       0.0
 1 C  f+2             0.2       0.0       0.0       0.0       0.0       0.1
 1 C  f-2             0.2       0.0       0.0       0.0       0.0       0.0
 1 C  f+3             0.0       0.1       0.0       0.0       0.0       0.0
 1 C  f-3             0.0       0.5       0.3       0.0       0.0       0.0
 2 C  s               0.0       1.9      13.1       2.6       0.0       0.0
 2 C  pz             45.8       0.0       0.0       0.0       0.1       1.5
 2 C  px              0.1       0.0       0.0       0.0       4.7       0.1
 2 C  py              0.0       6.4       2.2       0.9       0.0       0.0
 2 C  dz2             0.0       0.2      12.0       0.1       0.0       0.0
 2 C  dyz             2.0       0.0       0.0       0.0       0.0       0.0
 2 C  dx2y2           0.0       9.3       0.7       0.0       0.0       0.0
 2 C  dxy             0.0       0.0       0.0       0.0       2.6       0.0
 2 C  f0              0.6       0.0       0.0       0.0       0.0       0.2
 2 C  f+1             0.0       0.0       0.0       0.0       0.2       0.0
 2 C  f-1             0.0       0.1       0.0       0.0       0.0       0.0
 2 C  f+2             0.6       0.0       0.0       0.0       0.0       0.1
 2 C  f+3             0.0       0.0       0.0       0.0       0.9       0.0
 2 C  f-3             0.0       0.3       2.5       0.0       0.0       0.0
 3 O  s               0.0       0.5       3.4       0.0       0.0       0.0
 3 O  pz             30.3       0.0       0.0       0.0       0.0       0.2
 3 O  px              0.0       0.0       0.0       0.0       3.9       0.3
 3 O  py              0.0       1.3       6.0       0.1       0.0       0.0
 3 O  dz2             0.0       0.1       0.1       0.0       0.0       0.0
 3 O  dyz             2.6       0.0       0.0       0.0       0.0       0.0
 3 O  dx2y2           0.0       0.0       1.5       0.2       0.0       0.0
 3 O  dxy             0.0       0.0       0.0       0.0       0.7       0.0
 3 O  f0              0.1       0.0       0.0       0.0       0.0       0.0
 3 O  f+2             0.2       0.0       0.0       0.0       0.0       0.0
 4 C  s               0.0       3.0       4.1       5.8       1.9       0.5
 4 C  pz              0.2       0.1       0.0       0.0       0.6      11.7
 4 C  px              0.0       0.1       5.7       3.5       4.2       0.1
 4 C  py              0.0       5.8       0.4       4.4       1.6       0.1
 4 C  dz2             0.1       4.5       0.0       0.7       0.3       0.2
 4 C  dxz             2.4       0.0       0.0       0.0       0.2       1.2
 4 C  dyz             2.8       0.0       0.0       0.0       0.4       3.3
 4 C  dx2y2           0.0       4.3       0.1       0.6       0.4       0.0
[...]
 4 C  dyz             0.0       0.0       0.2       0.0       0.1       0.0
 4 C  dx2y2           0.0       0.1       0.0       0.3       0.0       0.1
 4 C  dxy             0.0       0.2       0.0       0.7       0.0       0.0
 4 C  f0              0.1       0.1       0.1       0.0       0.0       0.0
 4 C  f-1             0.0       0.8       0.0       0.1       0.0       0.0
 4 C  f+2             0.0       0.0       1.2       0.0       0.1       0.0
 4 C  f-2             0.2       0.0       0.1       0.0       0.3       0.0
 4 C  f+3             0.0       0.1       0.0       0.2       0.0       0.1
 4 C  f-3             0.0       0.5       0.0       0.1       0.0       0.0
 5 C  s               0.0       0.4       0.0       0.2       0.0       0.0
 5 C  px              0.0       0.2       0.0       0.1       0.0       0.0
 5 C  dx2y2           0.0       0.1       0.0       0.0       0.0       0.0
 5 C  dxy             0.0       0.3       0.0       0.0       0.0       0.0
 5 C  f+3             0.0       0.1       0.0       0.0       0.0       0.0
 5 C  f-3             0.0       0.2       0.0       0.0       0.0       0.0
 9 H  s               0.0       0.1       0.1       0.0       0.0       0.0
11 H  s               0.0       0.1       0.1       0.0       0.0       0.0

                    234       235       236       237       238       239   
                   5.93359   6.09943   6.11991   6.40934   6.61658   6.63332
                   0.00000   0.00000   0.00000   0.00000   0.00000   0.00000
                  --------  --------  --------  --------  --------  --------
 1 C  s               0.0       0.6       0.1       0.0       0.0       0.0
 1 C  pz              0.2       0.0       0.0       0.0       0.0       0.0
 1 C  px              0.0       0.2       0.4       0.0       0.1       0.0
 1 C  py              0.0       0.4       0.0       0.0       0.0       0.0
 1 C  dx2y2           0.0       0.0       0.7       0.0       0.0       0.2
 1 C  dxy             0.0       0.1       0.4       0.0       0.0       0.1
 1 C  f+3             0.0       0.0       1.4       0.0       0.0       0.0
 1 C  f-3             0.0       0.0       0.0       0.0       0.0       0.1
 2 C  s               0.0       1.3       0.0       0.0       4.0       0.0
 2 C  pz              0.0       0.0       0.0       1.9       0.0       0.0
 2 C  px              0.0       0.0       0.7       0.0       0.0       2.3
 2 C  py              0.0       0.4       0.0       0.0       2.0       0.0
 2 C  dz2             0.0       0.3       0.0       0.0       0.2       0.0
 2 C  dxz             0.8       0.0       0.0       0.0       0.0       0.0
 2 C  dyz             0.0       0.0       0.0       3.1       0.0       0.0
 2 C  dx2y2           0.0       1.2       0.0       0.0       0.5       0.0
 2 C  dxy             0.0       0.0       5.2       0.0       0.0       4.2
 2 C  f0              0.0       0.0       0.0       0.3       0.0       0.0
 2 C  f+1             0.0       0.0       0.4       0.0       0.0       0.2
 2 C  f-1             0.0       0.1       0.0       0.0       0.4       0.0
 2 C  f+2             0.0       0.0       0.0       0.4       0.0       0.0
 2 C  f-2             0.2       0.0       0.0       0.0       0.0       0.0
 2 C  f+3             0.0       0.0      15.8       0.0       0.0       1.4
 2 C  f-3             0.0       0.0       0.0       0.0       2.1       0.0
 3 O  s               0.0       0.3       0.0       0.0       1.9       0.0
 3 O  pz              0.0       0.0       0.0       2.2       0.0       0.0
 3 O  px              0.0       0.0       1.8       0.0       0.0       3.6
 3 O  py              0.0       0.0       0.0       0.0       2.7       0.0
 3 O  dz2             0.2      66.4       0.0       0.0      17.9       0.0
 3 O  dxz            94.0       0.3       0.0       0.0       0.0       0.0
 3 O  dyz             0.0       0.0       0.0      67.6       0.0       0.0
 3 O  dx2y2           0.2      21.6       0.0       0.0      53.5       0.0
 3 O  dxy             0.0       0.0      35.7       0.1       0.0      59.9
 3 O  f0              0.0       0.0       0.0       9.1       0.0       0.0
 3 O  f+1             0.0       0.0       1.9       0.0       0.0       1.8
 3 O  f-1             0.0       2.7       0.0       0.0       6.5       0.0
 3 O  f+2             0.0       0.0       0.0      15.1       0.0       0.0
 3 O  f-2             3.6       0.0       0.0       0.0       0.0       0.0
 3 O  f+3             0.0       0.0      31.8       0.0       0.0      24.8
 3 O  f-3             0.0       1.8       0.0       0.0       7.6       0.0
 4 C  s               0.0       0.6       0.1       0.0       0.0       0.0
 4 C  pz              0.2       0.0       0.0       0.0       0.0       0.0
 4 C  px              0.0       0.2       0.4       0.0       0.1       0.0
 4 C  py              0.0       0.4       0.0       0.0       0.0       0.0
 4 C  dx2y2           0.0       0.0       0.7       0.0       0.0       0.2
 4 C  dxy             0.0       0.1       0.4       0.0       0.0       0.1
 4 C  f+3             0.0       0.0       1.4       0.0       0.0       0.0
 4 C  f-3             0.0       0.0       0.0       0.0       0.0       0.1

                    240       241       242       243       244       245   
                  20.73517  20.76518  20.87363  20.89775  21.40478  41.54221
                   0.00000   0.00000   0.00000   0.00000   0.00000   0.00000
                  --------  --------  --------  --------  --------  --------
 0 C  s              47.5      48.5       1.7       0.7       0.0       0.0
 1 C  s               1.7       0.8      46.8      48.5       0.8       0.0
 2 C  s               0.0       0.0       1.4       0.0      95.4       0.0
 2 C  px              0.0       0.0       0.0       0.3       0.0       0.0
 2 C  py              0.0       0.0       0.2       0.0       0.4       0.0
 2 C  dx2y2           0.0       0.0       0.1       0.0       0.1       0.0
 2 C  dxy             0.0       0.0       0.0       0.2       0.0       0.0
 3 O  s               0.0       0.0       0.1       0.0       1.1      99.9
 3 O  py              0.0       0.0       0.0       0.0       0.7       0.0
 4 C  s               1.7       0.8      46.9      48.4       0.8       0.0
 5 C  s              47.5      48.5       1.7       0.7       0.0       0.0
 6 H  s               0.1       0.1       0.0       0.0       0.0       0.0
 7 H  s               0.1       0.1       0.0       0.0       0.0       0.0
 8 H  s               0.1       0.1       0.0       0.0       0.0       0.0
 9 H  s               0.0       0.0       0.1       0.1       0.0       0.0
10 H  s               0.0       0.0       0.1       0.1       0.0       0.0
11 H  s               0.0       0.0       0.1       0.1       0.0       0.0
12 H  s               0.0       0.0       0.1       0.1       0.0       0.0
13 H  s               0.1       0.1       0.0       0.0       0.0       0.0
14 H  s               0.1       0.1       0.0       0.0       0.0       0.0
15 H  s               0.1       0.1       0.0       0.0       0.0       0.0



                      *****************************
                      * MAYER POPULATION ANALYSIS *
                      *****************************

  NA   - Mulliken gross atomic population
  ZA   - Total nuclear charge
  QA   - Mulliken gross atomic charge
  VA   - Mayer's total valence
  BVA  - Mayer's bonded valence
  FA   - Mayer's free valence

  ATOM       NA         ZA         QA         VA         BVA        FA
  0 C      6.3150     6.0000    -0.3150     3.9642     3.9642    -0.0000
  1 C      6.1775     6.0000    -0.1775     3.8154     3.8154    -0.0000
  2 C      5.8281     6.0000     0.1719     4.0307     4.0307    -0.0000
  3 O      8.3276     8.0000    -0.3276     2.1441     2.1441    -0.0000
  4 C      6.1775     6.0000    -0.1775     3.8155     3.8155     0.0000
  5 C      6.3150     6.0000    -0.3150     3.9642     3.9642     0.0000
  6 H      0.8801     1.0000     0.1199     0.9810     0.9810    -0.0000
  7 H      0.8878     1.0000     0.1122     0.9680     0.9680     0.0000
  8 H      0.8854     1.0000     0.1146     0.9803     0.9803    -0.0000
  9 H      0.8893     1.0000     0.1107     0.9703     0.9703    -0.0000
 10 H      0.8869     1.0000     0.1131     0.9713     0.9713     0.0000
 11 H      0.8894     1.0000     0.1106     0.9703     0.9703    -0.0000
 12 H      0.8869     1.0000     0.1131     0.9713     0.9713     0.0000
 13 H      0.8878     1.0000     0.1122     0.9680     0.9680     0.0000
 14 H      0.8801     1.0000     0.1199     0.9811     0.9811    -0.0000
 15 H      0.8854     1.0000     0.1146     0.9803     0.9803    -0.0000

  Mayer bond orders larger than 0.100000
B(  0-C ,  1-C ) :   1.0053 B(  0-C ,  6-H ) :   0.9752 B(  0-C ,  7-H ) :   0.9805 
B(  0-C ,  8-H ) :   0.9771 B(  1-C ,  2-C ) :   0.9778 B(  1-C ,  9-H ) :   0.9592 
B(  1-C , 10-H ) :   0.9495 B(  2-C ,  3-O ) :   2.0920 B(  2-C ,  4-C ) :   0.9779 
B(  4-C ,  5-C ) :   1.0053 B(  4-C , 11-H ) :   0.9592 B(  4-C , 12-H ) :   0.9495 
B(  5-C , 13-H ) :   0.9805 B(  5-C , 14-H ) :   0.9752 B(  5-C , 15-H ) :   0.9771 


-------
TIMINGS
-------

Total SCF time: 0 days 0 hours 1 min 21 sec 

Total time                  ....      81.371 sec
Sum of individual times     ....      79.430 sec  ( 97.6%)

SCF preparation             ....       0.192 sec  (  0.2%)
Fock matrix formation       ....      78.318 sec  ( 96.2%)
  Startup                   ....       0.057 sec  (  0.1% of F)
  Split-RI-J                ....       2.890 sec  (  3.7% of F)
  Chain of spheres X        ....      66.623 sec  ( 85.1% of F)
  XC integration            ....       9.807 sec  ( 12.5% of F)
    XC Preparation          ....       0.000 sec  (  0.0% of XC)
    Basis function eval.    ....       2.297 sec  ( 23.4% of XC)
    Density eval.           ....       1.760 sec  ( 17.9% of XC)
    XC-Functional eval.     ....       2.296 sec  ( 23.4% of XC)
    XC-Potential eval.      ....       2.841 sec  ( 29.0% of XC)
Diagonalization             ....       0.000 sec  (  0.0%)
Density matrix formation    ....       0.160 sec  (  0.2%)
Total Energy calculation    ....       0.035 sec  (  0.0%)
Population analysis         ....       0.119 sec  (  0.1%)
Orbital Transformation      ....       0.059 sec  (  0.1%)
Orbital Orthonormalization  ....       0.000 sec  (  0.0%)
DIIS solution               ....       0.249 sec  (  0.3%)
  MO trafo                  ....       0.000 sec  (  0.0 % of DIIS)
  Orb grad                  ....       0.000 sec  (  0.0 % of DIIS)
  Energy W gradient         ....       0.000 sec  (  0.0 % of DIIS)
  DIIS error                ....       0.007 sec  (  2.6 % of DIIS)
  DIIS work                 ....       0.202 sec  ( 81.1 % of DIIS)
  Form Q                    ....       0.000 sec  (  0.0 % of DIIS)
  Form QpQm                 ....       0.000 sec  (  0.0 % of DIIS)
  Exp/Cayley                ....       0.000 sec  (  0.0 % of DIIS)
  Orb update                ....       0.000 sec  (  0.0 % of DIIS)
  Wake-sleep                ....       0.011 sec  (  4.6 % of DIIS)
SOSCF solution              ....       0.159 sec  (  0.2%)
  MO trafo                  ....       0.063 sec  ( 39.6 % of SOSCF)
  Orb grad                  ....       0.002 sec  (  1.3 % of SOSCF)
  Rot update                ....       0.051 sec  ( 32.4 % of SOSCF)
  Step                      ....       0.042 sec  ( 26.7 % of SOSCF)
Grid generation             ....       0.140 sec  (  0.2%)
Finished LeanSCF after  81.5 sec

Maximum memory used throughout the entire LEANSCF-calculation: 29.6 MB
------------------   -----------------
gCP correction             0.010638343
------------------   -----------------

-------------------------   --------------------
FINAL SINGLE POINT ENERGY      -271.794774250909
-------------------------   --------------------


------------------------------------------------------------------------------
                              ORCA PROPERTY CALCULATIONS
------------------------------------------------------------------------------

GBWName                                 ... sp_gas.gbw
Number of atoms                         ...     16
Number of basis functions               ...    246
Max core memory                         ...   1024 MB

Electric properties:
Dipole moment                           ... YES
Quadrupole moment                       ...  NO
Static polarizability (Dipole/Dipole)   ...  NO
Static polarizability (Dipole/Quad.)    ...  NO
Static polarizability (Quad./Quad.)     ...  NO
Static polarizability (Velocity)        ...  NO

Atomic electric properties:
Dipole moment                           ...  NO
Quadrupole moment                       ...  NO
Static polarizability                   ...  NO

Choice of electric origin               ... Center of mass
Position of electric origin             ...    -0.000006    -0.005402     0.000367

General magnetic properties:
Magnetizability                         ...  NO

EPR properties:
g-Tensor (aka g-matrix)                 ...  NO
Zero-Field splitting spin-orbit         ...  NO
Zero-field splitting spin-spin          ...  NO
Hyperfine couplings                     ...  NO (   0 nuclei)
Quadrupole couplings                    ...  NO (   0 nuclei)
Contact density                         ...  NO (   0 nuclei)

NMR properties:
Chemical shifts                         ...  NO (   0 nuclei)
Spin-rotation constants                 ...  NO (   0 nuclei)
Spin-spin couplings                     ...  NO (   0 nuclei,    0 pairs)

Choice of magnetic origin               ... GIAO
Position of magnetic origin             ...     0.000000     0.000000     0.000000

Properties with geometric perturbations:
SCF Hessian                             ...  NO
IR spectrum                             ...  NO
VCD spectrum                            ...  NO
X-ray spectroscopy properties:
SCF XES/XAS/RIXS spectra                ...  NO


-------------
DIPOLE MOMENT
-------------

Method             : SCF
Type of density    : Electron Density
Multiplicity       :   1
Irrep              :   0
Energy             :  -271.8054125943092458 Eh
Relativity type    : 
Basis              : AO
                                X                 Y                 Z
Electronic contribution:     -0.000097325      -2.567298952       0.000923014
Nuclear contribution   :      0.000104372       3.704361297      -0.001548199
                        -----------------------------------------
Total Dipole Moment    :      0.000007047       1.137062345      -0.000625184
                        -----------------------------------------
Magnitude (a.u.)       :      1.137062517
Magnitude (Debye)      :      2.890183231



--------------------
Rotational spectrum 
--------------------
 
Rotational constants in cm-1:             0.297135             0.065262             0.055748 
Rotational constants in MHz :          8907.869183          1956.517760          1671.283848 

Dipole components along the rotational axes: 
x,y,z [a.u.] :     0.000009     1.137063    -0.000101 
x,y,z [Debye]:     0.000023     2.890183    -0.000256 

 

Dipole moment calculation done in   0.0 sec 

Maximum memory used throughout the entire PROP-calculation: 17.6 MB

--------------------------------
SUGGESTED CITATIONS FOR THIS RUN
--------------------------------

Below you find a list of papers that are relevant to this ORCA run
We neither can nor want to force you to cite these papers, but we appreciate if you do
You receive ORCA, which is the product of decades of hard work by many enthusiastic individuals, for free
The only thing we kindly ask in return is that you cite our papers,
We deeply appreciate it, if you show your appreciation for ORCA by not just citing the generic ORCA reference.

Please note that relegating all ORCA citations to the supporting information does *not* help us.
SI sections are not indexed - citations you put there will not count into any citation statistics
But we need these citations in order to attract the funding resources that allow us to do what we are doing

Therefore, if you are a happy ORCA user, please consider citing a few of the papers listed below in the main body of your paper

In addition to the list printed below, the program has created the file sp_gas.bibtex that contains the list in bibtex format
You can import this file easily into all common literature databanks and citation aid programs


List of essential papers. We consider these as the minimum necessary citations

  1. Neese,F.
     Software update: the ORCA program system, version 5.0
     WIRES Comput. Molec. Sci., 2022 12(1)e1606
     doi.org/10.1002/wcms.1606

List of papers to cite with high priority. The work reported in these papers was absolutely
necessary for this run to complete.
Our perspective: the developers of density functionals and basis sets usually get cited in chemistry papers
Good! But without the algorithms to do something with them, the functionals or basis sets would not do anything.
Hence, in our opinion, the algorithm design and method developments papers are equally worthy of getting cited

  1. Neese,F.
     An improvement of the resolution of the identity approximation for the formation of the Coulomb matrix
     J. Comp. Chem., 2003 24(14)1740-1747
     doi.org/10.1002/jcc.10318
  2. Neese,F.; Wennmohs,F.; Hansen,A.; Becker,U.
     Efficient, approximate and parallel Hartree-Fock and hybrid DFT calculations. A 'chain-of-spheres' algorithm for the Hartree-Fock exchange
     Chem. Phys., 2009 356(1-3)98-109
     doi.org/10.1016/j.chemphys.2008.10.036
  3. Helmich-Paris,B.; de Souza,B.; Neese,F.; Izsák,R.
     An improved chain of spheres for exchange algorithm
     J. Chem. Phys., 2021 155 104109
     doi.org/doi: 10.1063/5.0058766.
  4. Neese,F.
     The SHARK Integral Generation and Digestion System
     J. Comp. Chem., 2022  1-16
     doi.org/10.1002/jcc.26942

List of suggested additional citations. These are papers that are important in the 'surrounding' of 
of this run, or papers that preceded the highly important papers. If you like your results we are grateful for a citation.

  1. Izsak,R.; Neese,F.
     An overlap fitted chain of spheres exchange method
     J. Chem. Phys., 2011 135 144105
     doi.org/10.1063/1.3646921
  2. Izsak,R.; Hansen,A.; Neese,F.
     The resolution of identity and chain of spheres approximations for the LPNO-CCSD singles Fock term
     Molec. Phys., 2012 110 2413-2417
     doi.org/10.1080/00268976.2012.687466
  3. Neese,F.
     The ORCA program system
     WIRES Comput. Molec. Sci., 2012 2(1)73-78
     doi.org/10.1002/wcms.81
  4. Izsak,R.; Neese,F.; Klopper,W.
     Robust fitting techniques in the chain of spheres approximation to the Fock exchange: The role of the complementary space
     J. Chem. Phys., 2013 139 
     doi.org/10.1063/1.4819264
  5. Neese,F.
     Software update: the ORCA program system, version 4.0
     WIRES Comput. Molec. Sci., 2018 8(1)1-6
     doi.org/10.1002/wcms.1327
  6. Neese,F.; Wennmohs,F.; Becker,U.; Riplinger,C.
     The ORCA quantum chemistry program package
     J. Chem. Phys., 2020 152 Art. No. L224108
     doi.org/10.1063/5.0004608

List of optional additional citations

  1. Neese,F.
     Approximate second-order SCF convergence for spin unrestricted wavefunctions
     Chem. Phys. Lett., 2000 325(1-3)93-98
     doi.org/10.1016/s0009-2614(00)00662-x

Timings for individual modules:

Sum of individual times          ...       83.434 sec (=   1.391 min)
Startup calculation              ...        1.598 sec (=   0.027 min)   1.9 %
SCF iterations                   ...       81.746 sec (=   1.362 min)  98.0 %
Property calculations            ...        0.090 sec (=   0.001 min)   0.1 %
                             ****ORCA TERMINATED NORMALLY****
TOTAL RUN TIME: 0 days 0 hours 1 minutes 24 seconds 52 msec
