 Entering Gaussian System
 *********************************************
 Gaussian 98:
 frequency output generated by the xtb code
 *********************************************
                         Standard orientation:
 --------------------------------------------------------------------
  Center     Atomic     Atomic              Coordinates (Angstroms)
  Number     Number      Type              X           Y           Z
 --------------------------------------------------------------------
    1          6             0       -1.143505    0.206340   -0.512835
    2          6             0       -0.038327    0.520820    0.498458
    3          6             0        0.936120   -0.657891    0.619733
    4          8             0        1.549186   -0.901892   -0.627145
    5          8             0        0.580551    1.712333    0.075798
    6          8             0       -1.943833   -0.832481    0.002889
    7          1             0       -0.669616   -0.078776   -1.458916
    8          1             0       -1.728502    1.121337   -0.667998
    9          1             0       -0.508663    0.661928    1.485770
   10          1             0        0.354565   -1.525478    0.952789
   11          1             0        1.694542   -0.420883    1.379034
   12          1             0        2.096694   -1.695692   -0.560982
   13          1             0        1.382874    1.860392    0.596374
   14          1             0       -2.618615   -1.061011   -0.651060
 --------------------------------------------------------------------
     1 basis functions        1 primitive gaussians
     1 alpha electrons        1 beta electrons
 
 Harmonic frequencies (cm**-1), IR intensities (km*mol⁻¹),
 Raman scattering activities (A**4/amu), Raman depolarization ratios,
 reduced masses (AMU), force constants (mDyne/A) and normal coordinates:
                      1                      2                      3
                        a                      a                      a 
 Frequencies --    77.4436               116.0752               216.2530
 Red. masses --    13.2638                 9.9436                 6.2361
 Frc consts  --     0.0000                 0.0000                 0.0000
 IR Inten    --     4.4914                16.0054                52.5557
 Raman Activ --     0.0000                 0.0000                 0.0000
 Depolar     --     0.0000                 0.0000                 0.0000
 Atom AN      X      Y      Z        X      Y      Z        X      Y      Z
   1   6     0.02   0.16   0.08     0.24  -0.21  -0.19     0.05  -0.06  -0.07
   2   6     0.02   0.17   0.07     0.04  -0.07  -0.02    -0.04   0.04  -0.01
   3   6    -0.02   0.13   0.08     0.30   0.14   0.01    -0.19  -0.08   0.01
   4   8    -0.51  -0.33  -0.06    -0.18  -0.31  -0.16    -0.26   0.22  -0.06
   5   8     0.04   0.17   0.04    -0.24   0.17   0.26     0.31  -0.20  -0.12
   6   8     0.45  -0.30  -0.22    -0.19   0.25   0.06     0.08   0.03   0.16
   7   1     0.01   0.17  -0.01     0.11  -0.21   0.01     0.04  -0.06   0.01
   8   1    -0.08   0.01   0.12     0.15  -0.03  -0.20     0.00  -0.03  -0.08
   9   1     0.02   0.06   0.02    -0.04  -0.09  -0.02    -0.04   0.05  -0.03
  10   1     0.00   0.08   0.14     0.16   0.04   0.16    -0.07  -0.04  -0.06
  11   1     0.07   0.08  -0.07     0.16   0.16  -0.11    -0.06  -0.07   0.02
  12   1    -0.14  -0.09   0.00     0.07   0.01   0.02     0.27   0.29   0.05
  13   1    -0.01   0.07   0.04    -0.16   0.15   0.19    -0.28   0.25   0.44
  14   1     0.13  -0.09  -0.07     0.01   0.00  -0.03     0.20  -0.23  -0.06
                      4                      5                      6
                        a                      a                      a 
 Frequencies --   223.2041               234.3100               257.5928
 Red. masses --     7.0942                 8.7408                 5.2096
 Frc consts  --     0.0000                 0.0000                 0.0000
 IR Inten    --   182.7782               120.3410               206.6972
 Raman Activ --     0.0000                 0.0000                 0.0000
 Depolar     --     0.0000                 0.0000                 0.0000
 Atom AN      X      Y      Z        X      Y      Z        X      Y      Z
   1   6     0.22  -0.24  -0.19     0.01  -0.02  -0.21    -0.14   0.13  -0.02
   2   6    -0.05   0.04   0.03    -0.05   0.10  -0.21    -0.03   0.03  -0.11
   3   6    -0.14   0.03   0.07    -0.26  -0.10  -0.19    -0.09  -0.03  -0.15
   4   8    -0.32   0.32  -0.05     0.23  -0.13   0.03     0.14  -0.30  -0.02
   5   8     0.13   0.00   0.17    -0.05   0.25   0.20    -0.09   0.18   0.18
   6   8     0.08   0.01   0.12     0.31   0.01   0.30     0.01   0.11   0.15
   7   1     0.14  -0.21   0.03    -0.02  -0.07  -0.05    -0.07   0.05  -0.02
   8   1     0.09  -0.09  -0.23    -0.03  -0.04  -0.11    -0.07   0.03   0.03
   9   1    -0.07   0.04  -0.02    -0.06  -0.03  -0.07     0.00  -0.04  -0.02
  10   1    -0.04   0.00  -0.00    -0.18   0.01  -0.16    -0.05   0.00  -0.05
  11   1    -0.02  -0.02   0.02    -0.13  -0.13   0.04    -0.06  -0.01  -0.01
  12   1    -0.19  -0.01  -0.13    -0.31  -0.29  -0.05     0.39   0.19   0.20
  13   1     0.33  -0.33  -0.32    -0.13   0.12   0.22     0.19  -0.19  -0.22
  14   1     0.12  -0.14  -0.02    -0.03  -0.01   0.19     0.35  -0.41  -0.17
                      7                      8                      9
                        a                      a                      a 
 Frequencies --   262.6411               374.7983               459.6004
 Red. masses --     3.2855                 9.5875                12.7025
 Frc consts  --     0.0000                 0.0000                 0.0000
 IR Inten    --   128.9090                29.8956                 6.1711
 Raman Activ --     0.0000                 0.0000                 0.0000
 Depolar     --     0.0000                 0.0000                 0.0000
 Atom AN      X      Y      Z        X      Y      Z        X      Y      Z
   1   6     0.01  -0.03  -0.14     0.34  -0.02   0.17     0.00   0.27  -0.21
   2   6    -0.05   0.02  -0.10     0.18   0.02   0.25    -0.14  -0.28  -0.05
   3   6    -0.10   0.00  -0.03    -0.14  -0.30  -0.00     0.09  -0.07   0.12
   4   8    -0.14  -0.08  -0.01    -0.07  -0.03  -0.02    -0.06   0.10   0.06
   5   8     0.04   0.06   0.14    -0.44   0.16  -0.24    -0.33  -0.39  -0.06
   6   8     0.23  -0.11   0.03     0.13   0.13  -0.06     0.43   0.35   0.12
   7   1    -0.02  -0.03  -0.05     0.18  -0.03   0.09    -0.06   0.14  -0.11
   8   1    -0.01  -0.02  -0.04     0.14   0.01  -0.02     0.01   0.11   0.05
   9   1    -0.05  -0.01  -0.04     0.09   0.02   0.09    -0.10  -0.11  -0.03
  10   1    -0.03  -0.00  -0.00    -0.19  -0.05  -0.16     0.14  -0.06   0.11
  11   1    -0.04   0.01  -0.00    -0.06  -0.30   0.08     0.03   0.11  -0.01
  12   1     0.43   0.32   0.18     0.11   0.08  -0.00    -0.04  -0.00  -0.06
  13   1     0.10  -0.11  -0.06    -0.05   0.17  -0.19    -0.06  -0.07  -0.06
  14   1    -0.42   0.43   0.34     0.04   0.10  -0.04     0.08  -0.04   0.11
                     10                     11                     12
                        a                      a                      a 
 Frequencies --   619.6701               838.7671               939.7525
 Red. masses --    10.5013                 8.7702                 6.7420
 Frc consts  --     0.0000                 0.0000                 0.0000
 IR Inten    --    38.1446                 6.0757                22.3798
 Raman Activ --     0.0000                 0.0000                 0.0000
 Depolar     --     0.0000                 0.0000                 0.0000
 Atom AN      X      Y      Z        X      Y      Z        X      Y      Z
   1   6     0.09   0.04   0.14    -0.29   0.16  -0.20    -0.08  -0.02  -0.28
   2   6    -0.36   0.18   0.37    -0.25   0.18   0.28     0.11   0.15   0.21
   3   6    -0.18   0.30  -0.27     0.19  -0.40   0.25     0.28   0.33   0.19
   4   8     0.24  -0.17  -0.19     0.11  -0.06  -0.13    -0.02  -0.09  -0.16
   5   8    -0.01  -0.34  -0.04     0.09   0.20  -0.07    -0.06  -0.24   0.05
   6   8     0.12   0.05  -0.02     0.03  -0.03  -0.02    -0.05  -0.00  -0.00
   7   1     0.24  -0.06   0.17     0.10  -0.07   0.07    -0.12   0.06  -0.14
   8   1     0.02  -0.04  -0.19    -0.14  -0.04  -0.30    -0.04   0.01   0.07
   9   1    -0.03   0.06   0.13    -0.04   0.15   0.07    -0.11   0.03   0.00
  10   1     0.02   0.05  -0.04     0.17  -0.18   0.07    -0.29   0.19  -0.28
  11   1    -0.04   0.14  -0.10     0.11  -0.08  -0.01     0.07  -0.42   0.19
  12   1    -0.01  -0.07   0.16     0.08   0.00  -0.21    -0.00  -0.01   0.07
  13   1    -0.02  -0.08   0.02     0.03   0.06  -0.04    -0.00   0.01  -0.03
  14   1     0.01   0.06  -0.00    -0.07  -0.10   0.11    -0.07  -0.13   0.11
                     13                     14                     15
                        a                      a                      a 
 Frequencies --   984.9564              1029.2435              1075.0596
 Red. masses --     7.5746                 6.4506                12.3468
 Frc consts  --     0.0000                 0.0000                 0.0000
 IR Inten    --    44.1672                14.1409               245.9979
 Raman Activ --     0.0000                 0.0000                 0.0000
 Depolar     --     0.0000                 0.0000                 0.0000
 Atom AN      X      Y      Z        X      Y      Z        X      Y      Z
   1   6    -0.28   0.24  -0.08     0.11  -0.05  -0.34    -0.27  -0.43   0.13
   2   6     0.31  -0.05  -0.00     0.10  -0.19   0.41    -0.24  -0.23   0.16
   3   6     0.13   0.05  -0.31    -0.25  -0.01  -0.14     0.21   0.04  -0.22
   4   8    -0.17   0.08   0.32     0.04   0.06  -0.01    -0.12   0.01   0.18
   5   8    -0.05  -0.15   0.08     0.13   0.11  -0.02     0.15   0.27  -0.13
   6   8     0.01  -0.08  -0.05    -0.12  -0.04   0.03     0.24   0.36  -0.19
   7   1     0.15  -0.17   0.15    -0.08   0.16  -0.19    -0.04   0.00  -0.00
   8   1    -0.06  -0.00  -0.38     0.03   0.03   0.18    -0.02  -0.06   0.09
   9   1     0.36  -0.17   0.16    -0.02  -0.05   0.07     0.04  -0.05   0.07
  10   1    -0.05   0.08  -0.03     0.12  -0.07   0.09     0.02  -0.03  -0.17
  11   1    -0.02   0.01  -0.01     0.01   0.15  -0.15     0.01  -0.12   0.03
  12   1    -0.04   0.02   0.06    -0.07  -0.02   0.23    -0.05  -0.00   0.12
  13   1     0.02   0.13  -0.07     0.09   0.37  -0.20    -0.00  -0.10   0.08
  14   1    -0.07  -0.12   0.10    -0.12  -0.21   0.17    -0.01  -0.04   0.06
                     16                     17                     18
                        a                      a                      a 
 Frequencies --  1100.6782              1122.3621              1147.7088
 Red. masses --    11.2351                 9.0148                 2.0260
 Frc consts  --     0.0000                 0.0000                 0.0000
 IR Inten    --    68.9460               141.2522               180.5689
 Raman Activ --     0.0000                 0.0000                 0.0000
 Depolar     --     0.0000                 0.0000                 0.0000
 Atom AN      X      Y      Z        X      Y      Z        X      Y      Z
   1   6     0.35   0.28  -0.13    -0.05   0.29   0.10     0.10  -0.03  -0.00
   2   6    -0.30  -0.01   0.07    -0.08  -0.51  -0.04     0.04  -0.03  -0.04
   3   6     0.31  -0.06  -0.33    -0.04   0.19   0.28    -0.12   0.03   0.07
   4   8    -0.15  -0.01   0.31     0.01  -0.00  -0.26     0.06  -0.03  -0.03
   5   8     0.04   0.12  -0.13     0.11   0.24  -0.11    -0.06   0.08  -0.07
   6   8    -0.20  -0.26   0.19     0.01  -0.15   0.01    -0.08   0.04  -0.11
   7   1     0.11   0.16  -0.04     0.07  -0.18   0.14     0.23   0.20   0.03
   8   1     0.04   0.05   0.07     0.25   0.20  -0.16     0.12   0.07   0.10
   9   1    -0.16  -0.07  -0.02    -0.05  -0.12  -0.03     0.28   0.07   0.10
  10   1     0.06  -0.05  -0.18    -0.02  -0.03  -0.15    -0.10   0.10   0.13
  11   1     0.01  -0.10   0.03    -0.10  -0.03   0.16    -0.02   0.06  -0.02
  12   1    -0.00   0.01  -0.02    -0.08  -0.03   0.26     0.07   0.02  -0.22
  13   1    -0.03  -0.19   0.09     0.00  -0.01   0.03    -0.10  -0.38   0.23
  14   1    -0.01   0.01  -0.02    -0.02  -0.05   0.03    -0.25  -0.44   0.37
                     19                     20                     21
                        a                      a                      a 
 Frequencies --  1170.6914              1198.4533              1224.1448
 Red. masses --     2.8439                 2.7643                 3.7485
 Frc consts  --     0.0000                 0.0000                 0.0000
 IR Inten    --   103.0634                 5.6522                 8.8832
 Raman Activ --     0.0000                 0.0000                 0.0000
 Depolar     --     0.0000                 0.0000                 0.0000
 Atom AN      X      Y      Z        X      Y      Z        X      Y      Z
   1   6     0.00  -0.03  -0.01     0.06  -0.05  -0.16    -0.07   0.04  -0.21
   2   6    -0.14  -0.17   0.07     0.02  -0.12  -0.08    -0.00  -0.20   0.21
   3   6    -0.03   0.21   0.01     0.01   0.04   0.18    -0.13   0.02   0.01
   4   8     0.03  -0.16   0.07    -0.02   0.01  -0.15     0.10   0.05   0.01
   5   8     0.13   0.03  -0.01    -0.00   0.04  -0.01     0.02   0.14  -0.13
   6   8     0.01   0.01   0.03    -0.08   0.05   0.14     0.02  -0.06   0.13
   7   1     0.04   0.04   0.01     0.34   0.36   0.00    -0.11  -0.07  -0.07
   8   1    -0.03  -0.03   0.03    -0.47  -0.33  -0.01    -0.05  -0.01  -0.03
   9   1    -0.03  -0.26   0.05     0.31  -0.07   0.13     0.13  -0.15   0.13
  10   1    -0.14   0.13  -0.04     0.07  -0.09  -0.11    -0.29   0.30   0.34
  11   1    -0.26   0.16   0.21    -0.13   0.05   0.16     0.28  -0.16  -0.26
  12   1     0.20   0.04  -0.67    -0.07  -0.02   0.19     0.04   0.02  -0.07
  13   1     0.08   0.28  -0.15    -0.01  -0.05   0.03    -0.05  -0.24   0.14
  14   1     0.03   0.05  -0.04     0.07   0.18  -0.12     0.16   0.27  -0.22
                     22                     23                     24
                        a                      a                      a 
 Frequencies --  1252.8478              1301.8037              1326.0822
 Red. masses --     2.6339                 3.2311                 4.6230
 Frc consts  --     0.0000                 0.0000                 0.0000
 IR Inten    --     3.5111                50.8389                62.1452
 Raman Activ --     0.0000                 0.0000                 0.0000
 Depolar     --     0.0000                 0.0000                 0.0000
 Atom AN      X      Y      Z        X      Y      Z        X      Y      Z
   1   6    -0.01  -0.01  -0.22     0.12   0.05   0.10    -0.07  -0.14  -0.09
   2   6     0.10   0.08   0.22     0.12   0.29   0.09    -0.34   0.28  -0.23
   3   6    -0.04   0.07  -0.00    -0.06  -0.05   0.10     0.01  -0.04   0.13
   4   8    -0.04  -0.07  -0.01    -0.00   0.01  -0.06     0.00   0.02  -0.03
   5   8    -0.08   0.02  -0.04     0.01   0.04  -0.15     0.06  -0.07   0.06
   6   8     0.03  -0.07   0.05    -0.01   0.05  -0.10     0.01  -0.05   0.07
   7   1    -0.35  -0.21  -0.16    -0.22  -0.14  -0.05     0.11   0.10   0.00
   8   1     0.16   0.12   0.04    -0.17  -0.13  -0.06     0.38   0.26   0.16
   9   1     0.36   0.21   0.18    -0.15  -0.75   0.07     0.38  -0.35   0.23
  10   1     0.23  -0.21  -0.20     0.09  -0.09  -0.00     0.05  -0.06  -0.00
  11   1    -0.26   0.19   0.21    -0.06   0.06   0.05     0.12  -0.14  -0.05
  12   1     0.02  -0.01  -0.09    -0.03  -0.01   0.07    -0.03  -0.00   0.09
  13   1    -0.07  -0.24   0.15    -0.04  -0.20   0.09     0.05   0.18  -0.10
  14   1     0.09   0.14  -0.13    -0.07  -0.11   0.08     0.04   0.05  -0.05
                     25                     26                     27
                        a                      a                      a 
 Frequencies --  1348.9934              1368.6859              1462.0470
 Red. masses --     4.6166                 5.1683                 1.7705
 Frc consts  --     0.0000                 0.0000                 0.0000
 IR Inten    --     5.7172                 2.2007                 2.8030
 Raman Activ --     0.0000                 0.0000                 0.0000
 Depolar     --     0.0000                 0.0000                 0.0000
 Atom AN      X      Y      Z        X      Y      Z        X      Y      Z
   1   6     0.12   0.01   0.02    -0.37  -0.16  -0.15    -0.01  -0.02   0.01
   2   6    -0.21   0.05   0.01     0.31   0.14   0.16     0.01   0.00   0.02
   3   6     0.32  -0.33  -0.06     0.05  -0.12  -0.07     0.04  -0.13   0.21
   4   8    -0.01   0.09  -0.16    -0.01   0.01  -0.04    -0.02  -0.01   0.06
   5   8     0.02  -0.02   0.02    -0.03   0.02  -0.06     0.00   0.00  -0.01
   6   8    -0.00   0.01  -0.03     0.02  -0.05   0.10    -0.00  -0.00   0.01
   7   1    -0.16  -0.08  -0.06     0.36   0.24   0.10    -0.03   0.06  -0.04
   8   1    -0.01  -0.01   0.02     0.28   0.21   0.04     0.03   0.01  -0.07
   9   1     0.11   0.06   0.07    -0.32  -0.13  -0.13     0.00  -0.02   0.01
  10   1    -0.39   0.32   0.25    -0.04   0.04   0.07    -0.34   0.00  -0.59
  11   1    -0.30   0.30   0.24    -0.19   0.20   0.13     0.23   0.50  -0.39
  12   1    -0.08  -0.01   0.24    -0.02  -0.00   0.05     0.00   0.00  -0.02
  13   1     0.02   0.06  -0.03    -0.04  -0.15   0.08    -0.00  -0.02   0.01
  14   1    -0.02  -0.04   0.03     0.08   0.14  -0.10     0.01   0.01  -0.01
                     28                     29                     30
                        a                      a                      a 
 Frequencies --  1473.3932              2837.8322              2869.4421
 Red. masses --     1.7663                 1.7019                 1.8434
 Frc consts  --     0.0000                 0.0000                 0.0000
 IR Inten    --     1.9030               101.4932               116.2696
 Raman Activ --     0.0000                 0.0000                 0.0000
 Depolar     --     0.0000                 0.0000                 0.0000
 Atom AN      X      Y      Z        X      Y      Z        X      Y      Z
   1   6     0.04  -0.11   0.22     0.01  -0.01  -0.00     0.01  -0.01  -0.01
   2   6    -0.01  -0.02   0.01    -0.10   0.05   0.22     0.00   0.01   0.02
   3   6    -0.01   0.03  -0.02    -0.01   0.01  -0.00     0.21   0.11   0.14
   4   8     0.00  -0.00  -0.01     0.00   0.00  -0.00     0.00   0.00   0.01
   5   8     0.00   0.00   0.00    -0.01  -0.01   0.01    -0.00  -0.00   0.00
   6   8    -0.02  -0.04   0.03     0.00   0.00  -0.00     0.00  -0.00  -0.00
   7   1    -0.27   0.55  -0.30    -0.02   0.01   0.06    -0.01   0.01   0.02
   8   1     0.19   0.02  -0.64    -0.02   0.02  -0.01    -0.02   0.03  -0.00
   9   1     0.02   0.00   0.01     0.41  -0.13  -0.86     0.02  -0.01  -0.04
  10   1     0.04   0.00   0.06    -0.02  -0.02   0.01    -0.10  -0.20   0.10
  11   1    -0.02  -0.06   0.04     0.04   0.01   0.04    -0.65  -0.20  -0.64
  12   1     0.00   0.00  -0.01    -0.00   0.00   0.00    -0.01  -0.00  -0.00
  13   1     0.00   0.01  -0.00    -0.00  -0.00  -0.01     0.00  -0.00   0.00
  14   1     0.01   0.01  -0.01     0.00   0.00   0.00    -0.00   0.00   0.00
                     31                     32                     33
                        a                      a                      a 
 Frequencies --  2897.4480              2919.2879              2930.2927
 Red. masses --     1.9187                 1.5686                 1.4986
 Frc consts  --     0.0000                 0.0000                 0.0000
 IR Inten    --    94.0868                55.6436                71.2578
 Raman Activ --     0.0000                 0.0000                 0.0000
 Depolar     --     0.0000                 0.0000                 0.0000
 Atom AN      X      Y      Z        X      Y      Z        X      Y      Z
   1   6     0.18  -0.22  -0.07    -0.00   0.00   0.01     0.04   0.02  -0.21
   2   6     0.01  -0.01  -0.01     0.01   0.00  -0.01     0.00  -0.00  -0.02
   3   6    -0.01  -0.00  -0.01     0.08   0.18  -0.10     0.00   0.01  -0.01
   4   8     0.00   0.00  -0.00     0.01   0.00  -0.02     0.00  -0.00   0.00
   5   8    -0.00   0.00  -0.00    -0.00   0.00  -0.00     0.00   0.00   0.00
   6   8    -0.00  -0.01   0.00     0.00  -0.00   0.00     0.01   0.01  -0.01
   7   1    -0.15   0.08   0.36     0.02  -0.01  -0.04    -0.39   0.25   0.75
   8   1    -0.47   0.72  -0.13    -0.00   0.01   0.00     0.23  -0.35   0.02
   9   1    -0.02   0.01   0.05    -0.02   0.01   0.03    -0.02   0.01   0.04
  10   1    -0.00   0.00  -0.00    -0.50  -0.74   0.26    -0.02  -0.03   0.01
  11   1     0.03   0.01   0.03     0.19   0.09   0.16     0.01   0.00   0.01
  12   1    -0.00   0.00   0.00    -0.00  -0.00  -0.00    -0.00   0.00   0.00
  13   1     0.00   0.00   0.00     0.00   0.00   0.00    -0.00  -0.00  -0.00
  14   1    -0.01   0.00   0.00    -0.00  -0.00  -0.00    -0.00   0.00   0.00
                     34                     35                     36
                        a                      a                      a 
 Frequencies --  3484.0977              3497.2149              3502.3429
 Red. masses --     1.8728                 1.8796                 1.8796
 Frc consts  --     0.0000                 0.0000                 0.0000
 IR Inten    --    74.6601               100.4295                87.0062
 Raman Activ --     0.0000                 0.0000                 0.0000
 Depolar     --     0.0000                 0.0000                 0.0000
 Atom AN      X      Y      Z        X      Y      Z        X      Y      Z
   1   6    -0.00   0.00  -0.00     0.00   0.00   0.00     0.00  -0.00  -0.00
   2   6    -0.01  -0.00  -0.00    -0.00   0.00   0.00     0.00   0.00   0.00
   3   6     0.00  -0.00   0.00    -0.00  -0.00   0.00    -0.00   0.00   0.00
   4   8    -0.01   0.01  -0.00    -0.01   0.02  -0.00    -0.14   0.20  -0.02
   5   8    -0.20  -0.04  -0.13     0.01   0.00   0.00     0.01   0.00   0.01
   6   8     0.00   0.00   0.00     0.17   0.06   0.16    -0.02  -0.01  -0.02
   7   1    -0.00   0.00   0.00    -0.00   0.00  -0.00    -0.00   0.00   0.00
   8   1     0.00  -0.00   0.00     0.00  -0.00  -0.00    -0.00  -0.00   0.00
   9   1     0.00  -0.00  -0.00     0.00  -0.00  -0.00    -0.00   0.00  -0.00
  10   1     0.00   0.00  -0.00     0.00   0.00  -0.00     0.00  -0.00   0.00
  11   1     0.00  -0.00   0.00    -0.00  -0.00  -0.00    -0.00  -0.00  -0.00
  12   1     0.03  -0.05   0.00     0.05  -0.07   0.01     0.55  -0.79   0.06
  13   1     0.80   0.15   0.52    -0.03  -0.01  -0.02    -0.05  -0.01  -0.03
  14   1    -0.02  -0.01  -0.02    -0.67  -0.23  -0.65     0.06   0.02   0.06
