      -----------------------------------------------------------      
     |                   =====================                   |     
     |                           x T B                           |     
     |                   =====================                   |     
     |                         S. Grimme                         |     
     |          Mulliken Center for Theoretical Chemistry        |     
     |                    University of Bonn                     |     
      -----------------------------------------------------------      

   * xtb version 6.7.1 (edcfbbe) compiled by 'albert@albert-system' on 2024-07-22

   xtb is free software: you can redistribute it and/or modify it under
   the terms of the GNU Lesser General Public License as published by
   the Free Software Foundation, either version 3 of the License, or
   (at your option) any later version.
   
   xtb is distributed in the hope that it will be useful,
   but WITHOUT ANY WARRANTY; without even the implied warranty of
   MERCHANTABILITY or FITNESS FOR A PARTICULAR PURPOSE.  See the
   GNU Lesser General Public License for more details.
   
   Cite this work as:
   * C. Bannwarth, E. Caldeweyher, S. Ehlert, A. Hansen, P. Pracht,
     J. Seibert, S. Spicher, S. Grimme, WIREs Comput. Mol. Sci., 2020, 11,
     e01493. DOI: 10.1002/wcms.1493
   
   for GFN2-xTB:
   * C. Bannwarth, S. Ehlert and S. Grimme., J. Chem. Theory Comput., 2019,
     15, 1652-1671. DOI: 10.1021/acs.jctc.8b01176
   for GFN1-xTB:
   * S. Grimme, C. Bannwarth, P. Shushkov, J. Chem. Theory Comput., 2017,
     13, 1989-2009. DOI: 10.1021/acs.jctc.7b00118
   for GFN0-xTB:
   * P. Pracht, E. Caldeweyher, S. Ehlert, S. Grimme, ChemRxiv, 2019, preprint.
     DOI: 10.26434/chemrxiv.8326202.v1
   for GFN-FF:
   * S. Spicher and S. Grimme, Angew. Chem. Int. Ed., 2020, 59, 15665-15673.
     DOI: 10.1002/anie.202004239
   
   for ALPB and GBSA implicit solvation:
   * S. Ehlert, M. Stahn, S. Spicher, S. Grimme, J. Chem. Theory Comput.,
     2021, 17, 4250-4261. DOI: 10.1021/acs.jctc.1c00471
   
   for ddCOSMO and CPCM-X implicit solvation:
   * M. Stahn, S. Ehlert, S. Grimme, J. Phys. Chem. A,
     2023, XX, XXXX-XXXX. DOI: 10.1021/acs.jpca.3c04382
   
   for DFT-D4:
   * E. Caldeweyher, C. Bannwarth and S. Grimme, J. Chem. Phys., 2017,
     147, 034112. DOI: 10.1063/1.4993215
   * E. Caldeweyher, S. Ehlert, A. Hansen, H. Neugebauer, S. Spicher,
     C. Bannwarth and S. Grimme, J. Chem. Phys., 2019, 150, 154122.
     DOI: 10.1063/1.5090222
   * E. Caldeweyher, J.-M. Mewes, S. Ehlert and S. Grimme, Phys. Chem. Chem. Phys.
     2020, 22, 8499-8512. DOI: 10.1039/D0CP00502A
   
   for sTDA-xTB:
   * S. Grimme and C. Bannwarth, J. Chem. Phys., 2016, 145, 054103.
     DOI: 10.1063/1.4959605
   
   in the mass-spec context:
   * V. Asgeirsson, C. Bauer and S. Grimme, Chem. Sci., 2017, 8, 4879.
     DOI: 10.1039/c7sc00601b
   * J. Koopman and S. Grimme, ACS Omega 2019, 4, 12, 15120-15133.
     DOI: 10.1021/acsomega.9b02011
   
   for metadynamics refer to:
   * S. Grimme, J. Chem. Theory Comput., 2019, 155, 2847-2862
     DOI: 10.1021/acs.jctc.9b00143
   
   for SPH calculations refer to:
   * S. Spicher and S. Grimme, J. Chem. Theory Comput., 2021, 17, 1701-1714
     DOI: 10.1021/acs.jctc.0c01306
   
   for ONIOM refer to:
   * C. Plett, A. Katbashev, S. Ehlert, S. Grimme, M. Bursch,
     Phys. Chem. Chem. Phys., 2023, 25, 17860-17868. DOI: 10.1039/D3CP02178E
   
   for DIPRO refer to:
   * J. Kohn, N. Gildemeister, S. Grimme, D. Fazzi, A. Hansen,
     J. Chem. Phys., 2023, just accepted.
   
   for PTB refer to:
   * S. Grimme, M. Mueller, A. Hansen, J. Chem. Phys., 2023, 158, 124111.
     DOI: 10.1063/5.0137838
   
   with help from (in alphabetical order)
   P. Atkinson, C. Bannwarth, F. Bohle, G. Brandenburg, E. Caldeweyher
   M. Checinski, S. Dohm, S. Ehlert, S. Ehrlich, I. Gerasimov, C. Hölzer
   A. Katbashev, J. Kohn, J. Koopman, C. Lavigne, S. Lehtola, F. März, M. Müller,
   F. Musil, H. Neugebauer, J. Pisarek, C. Plett, P. Pracht, F. Pultar,
   J. Seibert, P. Shushkov, S. Spicher, M. Stahn, M. Steiner, T. Strunk,
   J. Stückrath, T. Rose, and J. Unsleber
   
 * started run on 2025/04/11 at 11:19:19.814     
   ID    Z sym.   atoms
    1    6 C      1-3
    2    8 O      4-6
    3    1 H      7-14

           -------------------------------------------------
          |                Calculation Setup                |
           -------------------------------------------------

          program call               : /srv/scratch/z5358697/.xtb/bin/xtb gas.coord --gfn2 --sp --chrg 0 --norestart --parallel 1
          hostname                   : k022
          coordinate file            : gas.coord
          omp threads                :                     1


           -------------------------------------------------
          |                 G F N 2 - x T B                 |
           -------------------------------------------------

        Reference                      10.1021/acs.jctc.8b01176
      * Hamiltonian:
        H0-scaling (s, p, d)           1.850000    2.230000    2.230000
        zeta-weighting                 0.500000
      * Dispersion:
        s8                             2.700000
        a1                             0.520000
        a2                             5.000000
        s9                             5.000000
      * Repulsion:
        kExp                           1.500000    1.000000
        rExp                           1.000000
      * Coulomb:
        alpha                          2.000000
        third order                    shell-resolved
        anisotropic                    true
        a3                             3.000000
        a5                             4.000000
        cn-shift                       1.200000
        cn-exp                         4.000000
        max-rad                        5.000000


          ...................................................
          :                      SETUP                      :
          :.................................................:
          :  # basis functions                  32          :
          :  # atomic orbitals                  32          :
          :  # shells                           20          :
          :  # electrons                        38          :
          :  max. iterations                   250          :
          :  Hamiltonian                  GFN2-xTB          :
          :  restarted?                      false          :
          :  GBSA solvation                  false          :
          :  PC potential                    false          :
          :  electronic temp.          300.0000000     K    :
          :  accuracy                    1.0000000          :
          :  -> integral cutoff          0.2500000E+02      :
          :  -> integral neglect         0.1000000E-07      :
          :  -> SCF convergence          0.1000000E-05 Eh   :
          :  -> wf. convergence          0.1000000E-03 e    :
          :  Broyden damping             0.4000000          :
          :  net charge                          0          :
          :  unpaired electrons                  0          :
          ...................................................

 iter      E             dE          RMSdq      gap      omega  full diag
   1    -22.8310794 -0.228311E+02  0.452E+00   10.82       0.0  T
   2    -22.8497614 -0.186821E-01  0.250E+00   10.55       1.0  T
   3    -22.8506009 -0.839500E-03  0.626E-01   10.48       1.0  T
   4    -22.8507673 -0.166372E-03  0.134E-01   10.47       1.0  T
   5    -22.8507812 -0.138994E-04  0.405E-02   10.51       1.0  T
   6    -22.8507872 -0.597070E-05  0.182E-02   10.51       1.5  T
   7    -22.8507876 -0.418212E-06  0.493E-03   10.50       5.4  T
   8    -22.8507877 -0.837772E-07  0.177E-03   10.50      15.1  T
   9    -22.8507877 -0.168598E-08  0.309E-04   10.50      86.4  T
  10    -22.8507877 -0.348106E-09  0.837E-05   10.50     319.4  T

   *** convergence criteria satisfied after 10 iterations ***

         #    Occupation            Energy/Eh            Energy/eV
      -------------------------------------------------------------
         1        2.0000           -0.7080010             -19.2657
       ...           ...                  ...                  ...
        13        2.0000           -0.5123933             -13.9429
        14        2.0000           -0.4928508             -13.4112
        15        2.0000           -0.4889945             -13.3062
        16        2.0000           -0.4395519             -11.9608
        17        2.0000           -0.4369925             -11.8912
        18        2.0000           -0.4239582             -11.5365
        19        2.0000           -0.4007351             -10.9046 (HOMO)
        20                         -0.0147119              -0.4003 (LUMO)
        21                          0.0609472               1.6585
        22                          0.0730105               1.9867
        23                          0.1011085               2.7513
        24                          0.1082042               2.9444
       ...                                ...                  ...
        32                          0.2808094               7.6412
      -------------------------------------------------------------
                  HL-Gap            0.3860233 Eh           10.5042 eV
             Fermi-level           -0.2077235 Eh           -5.6524 eV

 SCC (total)                   0 d,  0 h,  0 min,  0.023 sec
 SCC setup                      ...        0 min,  0.000 sec (  0.729%)
 Dispersion                     ...        0 min,  0.000 sec (  0.265%)
 classical contributions        ...        0 min,  0.000 sec (  0.065%)
 integral evaluation            ...        0 min,  0.001 sec (  4.422%)
 iterations                     ...        0 min,  0.019 sec ( 81.076%)
 molecular gradient             ...        0 min,  0.003 sec ( 12.694%)
 printout                       ...        0 min,  0.000 sec (  0.698%)

         :::::::::::::::::::::::::::::::::::::::::::::::::::::
         ::                     SUMMARY                     ::
         :::::::::::::::::::::::::::::::::::::::::::::::::::::
         :: total energy             -22.677515305928 Eh    ::
         :: gradient norm              0.010278492673 Eh/a0 ::
         :: HOMO-LUMO gap             10.504227841240 eV    ::
         ::.................................................::
         :: SCC energy               -22.850776126751 Eh    ::
         :: -> isotropic ES            0.071617794522 Eh    ::
         :: -> anisotropic ES          0.000077011421 Eh    ::
         :: -> anisotropic XC         -0.002806589949 Eh    ::
         :: -> dispersion             -0.007172147351 Eh    ::
         :: repulsion energy           0.173260820824 Eh    ::
         :: add. restraining           0.000000000000 Eh    ::
         :: total charge               0.000000000000 e     ::
         :::::::::::::::::::::::::::::::::::::::::::::::::::::

           -------------------------------------------------
          |                Property Printout                |
           -------------------------------------------------

    * Orbital Energies and Occupations

         #    Occupation            Energy/Eh            Energy/eV
      -------------------------------------------------------------
         1        2.0000           -0.7080010             -19.2657
       ...           ...                  ...                  ...
         7        2.0000           -0.5955384             -16.2054
         8        2.0000           -0.5731612             -15.5965
         9        2.0000           -0.5631157             -15.3232
        10        2.0000           -0.5382848             -14.6475
        11        2.0000           -0.5300834             -14.4243
        12        2.0000           -0.5144331             -13.9984
        13        2.0000           -0.5123933             -13.9429
        14        2.0000           -0.4928508             -13.4112
        15        2.0000           -0.4889945             -13.3062
        16        2.0000           -0.4395519             -11.9608
        17        2.0000           -0.4369925             -11.8912
        18        2.0000           -0.4239582             -11.5365
        19        2.0000           -0.4007351             -10.9046 (HOMO)
        20                         -0.0147119              -0.4003 (LUMO)
        21                          0.0609472               1.6585
        22                          0.0730105               1.9867
        23                          0.1011085               2.7513
        24                          0.1082042               2.9444
        25                          0.1235307               3.3614
        26                          0.1256018               3.4178
        27                          0.1601997               4.3593
        28                          0.1960706               5.3354
        29                          0.2118070               5.7636
        30                          0.2274438               6.1891
       ...                                ...                  ...
        32                          0.2808094               7.6412
      -------------------------------------------------------------
                  HL-Gap            0.3860233 Eh           10.5042 eV
             Fermi-level           -0.2077235 Eh           -5.6524 eV

     #   Z          covCN         q      C6AA      α(0)
     1   6 C        3.675     0.080    19.469     6.322
     2   6 C        3.722     0.100    19.035     6.231
     3   6 C        3.674     0.069    19.656     6.353
     4   8 O        1.655    -0.446    21.758     6.297
     5   8 O        1.656    -0.448    21.812     6.305
     6   8 O        1.655    -0.445    21.751     6.296
     7   1 H        0.924     0.036     2.503     2.474
     8   1 H        0.924     0.037     2.486     2.466
     9   1 H        0.923     0.038     2.470     2.458
    10   1 H        0.924     0.045     2.387     2.416
    11   1 H        0.923     0.029     2.601     2.522
    12   1 H        0.804     0.312     0.687     1.302
    13   1 H        0.805     0.298     0.728     1.340
    14   1 H        0.805     0.297     0.732     1.344

 Mol. C6AA /au·bohr⁶  :       1408.030891
 Mol. C8AA /au·bohr⁸  :      28813.545682
 Mol. α(0) /au        :         54.125077


Wiberg/Mayer (AO) data.
largest (>0.10) Wiberg bond orders for each atom

 ---------------------------------------------------------------------------
     #   Z sym  total        # sym  WBO       # sym  WBO       # sym  WBO
 ---------------------------------------------------------------------------
     1   6 C    3.953 --     6 O    0.994     2 C    0.987     8 H    0.971
                             7 H    0.969
     2   6 C    3.953 --     5 O    0.992     1 C    0.987     3 C    0.973
                             9 H    0.960
     3   6 C    3.964 --     4 O    1.014     2 C    0.973    10 H    0.971
                            11 H    0.967
     4   8 O    1.955 --     3 C    1.014    12 H    0.875
     5   8 O    1.955 --     2 C    0.992    13 H    0.895
     6   8 O    1.961 --     1 C    0.994    14 H    0.896
     7   1 H    0.999 --     1 C    0.969
     8   1 H    0.999 --     1 C    0.971
     9   1 H    0.999 --     2 C    0.960
    10   1 H    0.998 --     3 C    0.971
    11   1 H    0.999 --     3 C    0.967
    12   1 H    0.903 --     4 O    0.875
    13   1 H    0.911 --     5 O    0.895
    14   1 H    0.912 --     6 O    0.896
 ---------------------------------------------------------------------------

Topologies differ in total number of bonds
Writing topology from bond orders to xtbtopo.mol

molecular dipole:
                 x           y           z       tot (Debye)
 q only:       -0.515       0.229      -0.109
   full:       -0.742       0.333      -0.155       2.105
molecular quadrupole (traceless):
                xx          xy          yy          xz          yz          zz
 q only:        3.863       6.686      -2.786       0.942       2.109      -1.078
  q+dip:        6.241       8.758      -6.847       1.415       4.311       0.606
   full:        6.131       9.195      -5.531       1.513       3.669      -0.600


           -------------------------------------------------
          | TOTAL ENERGY              -22.677515305928 Eh   |
          | GRADIENT NORM               0.010278492673 Eh/α |
          | HOMO-LUMO GAP              10.504227841240 eV   |
           -------------------------------------------------

------------------------------------------------------------------------
 * finished run on 2025/04/11 at 11:19:19.896     
------------------------------------------------------------------------
 total:
 * wall-time:     0 d,  0 h,  0 min,  0.081 sec
 *  cpu-time:     0 d,  0 h,  0 min,  0.018 sec
 * ratio c/w:     0.219 speedup
 SCF:
 * wall-time:     0 d,  0 h,  0 min,  0.023 sec
 *  cpu-time:     0 d,  0 h,  0 min,  0.009 sec
 * ratio c/w:     0.392 speedup

