      -----------------------------------------------------------      
     |                   =====================                   |     
     |                           x T B                           |     
     |                   =====================                   |     
     |                         S. Grimme                         |     
     |          Mulliken Center for Theoretical Chemistry        |     
     |                    University of Bonn                     |     
      -----------------------------------------------------------      

   * xtb version 6.7.1 (edcfbbe) compiled by 'albert@albert-system' on 2024-07-22

   xtb is free software: you can redistribute it and/or modify it under
   the terms of the GNU Lesser General Public License as published by
   the Free Software Foundation, either version 3 of the License, or
   (at your option) any later version.
   
   xtb is distributed in the hope that it will be useful,
   but WITHOUT ANY WARRANTY; without even the implied warranty of
   MERCHANTABILITY or FITNESS FOR A PARTICULAR PURPOSE.  See the
   GNU Lesser General Public License for more details.
   
   Cite this work as:
   * C. Bannwarth, E. Caldeweyher, S. Ehlert, A. Hansen, P. Pracht,
     J. Seibert, S. Spicher, S. Grimme, WIREs Comput. Mol. Sci., 2020, 11,
     e01493. DOI: 10.1002/wcms.1493
   
   for GFN2-xTB:
   * C. Bannwarth, S. Ehlert and S. Grimme., J. Chem. Theory Comput., 2019,
     15, 1652-1671. DOI: 10.1021/acs.jctc.8b01176
   for GFN1-xTB:
   * S. Grimme, C. Bannwarth, P. Shushkov, J. Chem. Theory Comput., 2017,
     13, 1989-2009. DOI: 10.1021/acs.jctc.7b00118
   for GFN0-xTB:
   * P. Pracht, E. Caldeweyher, S. Ehlert, S. Grimme, ChemRxiv, 2019, preprint.
     DOI: 10.26434/chemrxiv.8326202.v1
   for GFN-FF:
   * S. Spicher and S. Grimme, Angew. Chem. Int. Ed., 2020, 59, 15665-15673.
     DOI: 10.1002/anie.202004239
   
   for ALPB and GBSA implicit solvation:
   * S. Ehlert, M. Stahn, S. Spicher, S. Grimme, J. Chem. Theory Comput.,
     2021, 17, 4250-4261. DOI: 10.1021/acs.jctc.1c00471
   
   for ddCOSMO and CPCM-X implicit solvation:
   * M. Stahn, S. Ehlert, S. Grimme, J. Phys. Chem. A,
     2023, XX, XXXX-XXXX. DOI: 10.1021/acs.jpca.3c04382
   
   for DFT-D4:
   * E. Caldeweyher, C. Bannwarth and S. Grimme, J. Chem. Phys., 2017,
     147, 034112. DOI: 10.1063/1.4993215
   * E. Caldeweyher, S. Ehlert, A. Hansen, H. Neugebauer, S. Spicher,
     C. Bannwarth and S. Grimme, J. Chem. Phys., 2019, 150, 154122.
     DOI: 10.1063/1.5090222
   * E. Caldeweyher, J.-M. Mewes, S. Ehlert and S. Grimme, Phys. Chem. Chem. Phys.
     2020, 22, 8499-8512. DOI: 10.1039/D0CP00502A
   
   for sTDA-xTB:
   * S. Grimme and C. Bannwarth, J. Chem. Phys., 2016, 145, 054103.
     DOI: 10.1063/1.4959605
   
   in the mass-spec context:
   * V. Asgeirsson, C. Bauer and S. Grimme, Chem. Sci., 2017, 8, 4879.
     DOI: 10.1039/c7sc00601b
   * J. Koopman and S. Grimme, ACS Omega 2019, 4, 12, 15120-15133.
     DOI: 10.1021/acsomega.9b02011
   
   for metadynamics refer to:
   * S. Grimme, J. Chem. Theory Comput., 2019, 155, 2847-2862
     DOI: 10.1021/acs.jctc.9b00143
   
   for SPH calculations refer to:
   * S. Spicher and S. Grimme, J. Chem. Theory Comput., 2021, 17, 1701-1714
     DOI: 10.1021/acs.jctc.0c01306
   
   for ONIOM refer to:
   * C. Plett, A. Katbashev, S. Ehlert, S. Grimme, M. Bursch,
     Phys. Chem. Chem. Phys., 2023, 25, 17860-17868. DOI: 10.1039/D3CP02178E
   
   for DIPRO refer to:
   * J. Kohn, N. Gildemeister, S. Grimme, D. Fazzi, A. Hansen,
     J. Chem. Phys., 2023, just accepted.
   
   for PTB refer to:
   * S. Grimme, M. Mueller, A. Hansen, J. Chem. Phys., 2023, 158, 124111.
     DOI: 10.1063/5.0137838
   
   with help from (in alphabetical order)
   P. Atkinson, C. Bannwarth, F. Bohle, G. Brandenburg, E. Caldeweyher
   M. Checinski, S. Dohm, S. Ehlert, S. Ehrlich, I. Gerasimov, C. Hölzer
   A. Katbashev, J. Kohn, J. Koopman, C. Lavigne, S. Lehtola, F. März, M. Müller,
   F. Musil, H. Neugebauer, J. Pisarek, C. Plett, P. Pracht, F. Pultar,
   J. Seibert, P. Shushkov, S. Spicher, M. Stahn, M. Steiner, T. Strunk,
   J. Stückrath, T. Rose, and J. Unsleber
   
 * started run on 2025/04/11 at 11:50:56.185     
   ID    Z sym.   atoms
    1    6 C      1, 3, 4, 6-11, 13
    2    7 N      2
    3    8 O      5, 12
    4    1 H      14-26

           -------------------------------------------------
          |                Calculation Setup                |
           -------------------------------------------------

          program call               : /srv/scratch/z5358697/.xtb/bin/xtb solv.coord --gfn2 --sp --chrg 0 --norestart --parallel 1 --alpb water reference -I xtb_sp-xcontrol-inp
          hostname                   : k112
          coordinate file            : solv.coord
          omp threads                :                     1


           -------------------------------------------------
          |                 G F N 2 - x T B                 |
           -------------------------------------------------

        Reference                      10.1021/acs.jctc.8b01176
      * Hamiltonian:
        H0-scaling (s, p, d)           1.850000    2.230000    2.230000
        zeta-weighting                 0.500000
      * Dispersion:
        s8                             2.700000
        a1                             0.520000
        a2                             5.000000
        s9                             5.000000
      * Repulsion:
        kExp                           1.500000    1.000000
        rExp                           1.000000
      * Coulomb:
        alpha                          2.000000
        third order                    shell-resolved
        anisotropic                    true
        a3                             3.000000
        a5                             4.000000
        cn-shift                       1.200000
        cn-exp                         4.000000
        max-rad                        5.000000

      * Solvation model:               ALPB
        Solvent                        water
        Parameter file                 internal GFN2-xTB/ALPB
        Dielectric constant                8.0200E+01
        Reference state                gsolv=reference [X=1]
        Free energy shift                  2.8945E-03 Eh       1.8164E+00 kcal/mol
        Temperature                        2.9815E+02 K
        Density                            1.0000E+00 kg/L
        Solvent mass                       1.8000E+01 g/mol
        Interaction kernel             P16
        Born radius scaling (c1)           1.4744E+00
        Born radii integrator          GBOBC
        Born offset                        0.0000E+00 a0       0.0000E+00 AA
        H-bond correction              true
        Ion screening                  false
        Surface tension                    1.0000E-05 Eh       1.5569E+01 dyn/cm
        Grid points                               974 per atom

          ...................................................
          :                      SETUP                      :
          :.................................................:
          :  # basis functions                  65          :
          :  # atomic orbitals                  65          :
          :  # shells                           39          :
          :  # electrons                        70          :
          :  max. iterations                   250          :
          :  Hamiltonian                  GFN2-xTB          :
          :  restarted?                      false          :
          :  GBSA solvation                   true          :
          :  PC potential                    false          :
          :  electronic temp.          300.0000000     K    :
          :  accuracy                    1.0000000          :
          :  -> integral cutoff          0.2500000E+02      :
          :  -> integral neglect         0.1000000E-07      :
          :  -> SCF convergence          0.1000000E-05 Eh   :
          :  -> wf. convergence          0.1000000E-03 e    :
          :  Broyden damping             0.4000000          :
          :  net charge                          0          :
          :  unpaired electrons                  0          :
          ...................................................

 iter      E             dE          RMSdq      gap      omega  full diag
   1    -39.5751212 -0.395751E+02  0.431E+00    3.85       0.0  T
   2    -39.6482194 -0.730982E-01  0.244E+00    3.91       1.0  T
   3    -39.6483264 -0.106978E-03  0.105E+00    3.91       1.0  T
   4    -39.6509087 -0.258228E-02  0.376E-01    3.93       1.0  T
   5    -39.6527368 -0.182806E-02  0.872E-02    3.94       1.0  T
   6    -39.6527542 -0.174156E-04  0.452E-02    3.93       1.0  T
   7    -39.6527595 -0.529054E-05  0.169E-02    3.93       1.2  T
   8    -39.6527615 -0.200818E-05  0.511E-03    3.93       3.8  T
   9    -39.6527616 -0.112340E-06  0.272E-03    3.93       7.2  T
  10    -39.6527616 -0.385724E-07  0.115E-03    3.93      17.0  T
  11    -39.6527616 -0.578164E-08  0.467E-04    3.93      42.0  T
  12    -39.6527616 -0.136052E-08  0.195E-04    3.93     100.7  T

   *** convergence criteria satisfied after 12 iterations ***

         #    Occupation            Energy/Eh            Energy/eV
      -------------------------------------------------------------
         1        2.0000           -0.7212917             -19.6273
       ...           ...                  ...                  ...
        29        2.0000           -0.4554017             -12.3921
        30        2.0000           -0.4495623             -12.2332
        31        2.0000           -0.4259443             -11.5905
        32        2.0000           -0.4126772             -11.2295
        33        2.0000           -0.3954845             -10.7617
        34        2.0000           -0.3899055             -10.6099
        35        2.0000           -0.3831811             -10.4269 (HOMO)
        36                         -0.2386198              -6.4932 (LUMO)
        37                         -0.2303127              -6.2671
        38                         -0.1926121              -5.2412
        39                         -0.0957613              -2.6058
        40                          0.0046282               0.1259
       ...                                ...                  ...
        65                          0.6619127              18.0116
      -------------------------------------------------------------
                  HL-Gap            0.1445613 Eh            3.9337 eV
             Fermi-level           -0.3109004 Eh           -8.4600 eV

 SCC (total)                   0 d,  0 h,  0 min,  0.029 sec
 SCC setup                      ...        0 min,  0.002 sec (  5.865%)
 Dispersion                     ...        0 min,  0.000 sec (  0.743%)
 classical contributions        ...        0 min,  0.000 sec (  0.131%)
 integral evaluation            ...        0 min,  0.003 sec ( 10.493%)
 iterations                     ...        0 min,  0.014 sec ( 49.467%)
 molecular gradient             ...        0 min,  0.009 sec ( 32.486%)
 printout                       ...        0 min,  0.000 sec (  0.746%)

         :::::::::::::::::::::::::::::::::::::::::::::::::::::
         ::                     SUMMARY                     ::
         :::::::::::::::::::::::::::::::::::::::::::::::::::::
         :: total energy             -39.110648254825 Eh    ::
         :: total w/o Gsasa/hb       -39.111554760670 Eh    ::
         :: gradient norm              0.000029662045 Eh/a0 ::
         :: HOMO-LUMO gap              3.933713147936 eV    ::
         ::.................................................::
         :: SCC energy               -39.652769007093 Eh    ::
         :: -> isotropic ES            0.075852982102 Eh    ::
         :: -> anisotropic ES          0.001845719291 Eh    ::
         :: -> anisotropic XC          0.014505698443 Eh    ::
         :: -> dispersion             -0.022282310157 Eh    ::
         :: -> Gsolv                  -0.015217285884 Eh    ::
         ::    -> Gelec               -0.016123791729 Eh    ::
         ::    -> Gsasa                0.000848286268 Eh    ::
         ::    -> Ghb                 -0.002836329583 Eh    ::
         ::    -> Gshift               0.002894549160 Eh    ::
         :: repulsion energy           0.542120752268 Eh    ::
         :: add. restraining           0.000000000000 Eh    ::
         :: total charge              -0.000000000000 e     ::
         :::::::::::::::::::::::::::::::::::::::::::::::::::::

           -------------------------------------------------
          |                Property Printout                |
           -------------------------------------------------

    * Orbital Energies and Occupations

         #    Occupation            Energy/Eh            Energy/eV
      -------------------------------------------------------------
         1        2.0000           -0.7212917             -19.6273
       ...           ...                  ...                  ...
        23        2.0000           -0.4851654             -13.2020
        24        2.0000           -0.4811086             -13.0916
        25        2.0000           -0.4787526             -13.0275
        26        2.0000           -0.4773776             -12.9901
        27        2.0000           -0.4668269             -12.7030
        28        2.0000           -0.4653349             -12.6624
        29        2.0000           -0.4554017             -12.3921
        30        2.0000           -0.4495623             -12.2332
        31        2.0000           -0.4259443             -11.5905
        32        2.0000           -0.4126772             -11.2295
        33        2.0000           -0.3954845             -10.7617
        34        2.0000           -0.3899055             -10.6099
        35        2.0000           -0.3831811             -10.4269 (HOMO)
        36                         -0.2386198              -6.4932 (LUMO)
        37                         -0.2303127              -6.2671
        38                         -0.1926121              -5.2412
        39                         -0.0957613              -2.6058
        40                          0.0046282               0.1259
        41                          0.0234061               0.6369
        42                          0.0775771               2.1110
        43                          0.1143013               3.1103
        44                          0.1216404               3.3100
        45                          0.1322043               3.5975
        46                          0.1456746               3.9640
       ...                                ...                  ...
        65                          0.6619127              18.0116
      -------------------------------------------------------------
                  HL-Gap            0.1445613 Eh            3.9337 eV
             Fermi-level           -0.3109004 Eh           -8.4600 eV

     #   Z          covCN         q      C6AA      α(0)
     1   6 C        3.705    -0.064    21.878     6.687
     2   7 N        2.732    -0.073    22.656     7.069
     3   6 C        3.698    -0.072    22.049     6.716
     4   6 C        2.770     0.262    22.581     7.783
     5   8 O        0.859    -0.554    25.009     6.705
     6   6 C        2.972    -0.030    28.737     8.793
     7   6 C        2.925    -0.028    28.706     8.786
     8   6 C        2.916    -0.070    29.735     8.942
     9   6 C        2.864     0.145    24.835     8.169
    10   6 C        2.919    -0.061    29.522     8.910
    11   6 C        2.921    -0.035    28.862     8.810
    12   8 O        1.705    -0.294    18.885     5.867
    13   6 C        3.642     0.018    20.626     6.530
    14   1 H        0.924     0.068     2.111     2.272
    15   1 H        0.925     0.073     2.056     2.242
    16   1 H        0.925     0.075     2.031     2.229
    17   1 H        0.925     0.072     2.058     2.244
    18   1 H        0.924     0.075     2.029     2.228
    19   1 H        0.924     0.081     1.966     2.193
    20   1 H        0.926     0.042     2.427     2.436
    21   1 H        0.926     0.054     2.273     2.357
    22   1 H        0.926     0.062     2.171     2.304
    23   1 H        0.926     0.055     2.264     2.353
    24   1 H        0.925     0.084     1.938     2.177
    25   1 H        0.924     0.058     2.228     2.334
    26   1 H        0.924     0.056     2.252     2.347

 Mol. C6AA /au·bohr⁶  :       6980.864638
 Mol. C8AA /au·bohr⁸  :     161473.688928
 Mol. α(0) /au        :        129.483127


Wiberg/Mayer (AO) data.
largest (>0.10) Wiberg bond orders for each atom

 ---------------------------------------------------------------------------
     #   Z sym  total        # sym  WBO       # sym  WBO       # sym  WBO
 ---------------------------------------------------------------------------
     1   6 C    3.959 --     2 N    0.993    16 H    0.977    15 H    0.974
                            14 H    0.973
     2   7 N    3.537 --     4 C    1.306     3 C    0.995     1 C    0.993
                             5 O    0.196
     3   6 C    3.957 --     2 N    0.995    17 H    0.975    19 H    0.972
                            18 H    0.972
     4   6 C    3.947 --     5 O    1.566     2 N    1.306     6 C    0.978
     5   8 O    1.895 --     4 C    1.566     2 N    0.196
     6   6 C    3.986 --     7 C    1.409    11 C    1.373     4 C    0.978
     7   6 C    3.991 --     8 C    1.444     6 C    1.409    20 H    0.970
                            10 C    0.106
     8   6 C    3.987 --     7 C    1.444     9 C    1.372    21 H    0.964
     9   6 C    3.936 --     8 C    1.372    10 C    1.341    12 O    1.070
    10   6 C    3.987 --    11 C    1.480     9 C    1.341    22 H    0.966
                             7 C    0.106
    11   6 C    3.990 --    10 C    1.480     6 C    1.373    23 H    0.968
    12   8 O    2.220 --     9 C    1.070    13 C    0.969
    13   6 C    3.929 --    24 H    0.977    26 H    0.977    25 H    0.976
                            12 O    0.969
    14   1 H    0.995 --     1 C    0.973
    15   1 H    0.994 --     1 C    0.974
    16   1 H    0.994 --     1 C    0.977
    17   1 H    0.995 --     3 C    0.975
    18   1 H    0.994 --     3 C    0.972
    19   1 H    0.993 --     3 C    0.972
    20   1 H    0.998 --     7 C    0.970
    21   1 H    0.997 --     8 C    0.964
    22   1 H    0.995 --    10 C    0.966
    23   1 H    0.996 --    11 C    0.968
    24   1 H    0.993 --    13 C    0.977
    25   1 H    0.996 --    13 C    0.976
    26   1 H    0.997 --    13 C    0.977
 ---------------------------------------------------------------------------

Topologies differ in total number of bonds
Writing topology from bond orders to xtbtopo.mol

molecular dipole:
                 x           y           z       tot (Debye)
 q only:       -0.389      -1.686      -1.173
   full:       -0.447      -1.597      -1.246       5.272
molecular quadrupole (traceless):
                xx          xy          yy          xz          yz          zz
 q only:       13.984     -18.357      -8.823      -2.325      -3.160      -5.162
  q+dip:       13.083     -19.757      -8.543      -2.463      -6.184      -4.540
   full:       12.458     -19.941      -9.028      -2.275      -4.666      -3.430


           -------------------------------------------------
          | TOTAL ENERGY              -39.110648254825 Eh   |
          | GRADIENT NORM               0.000029662045 Eh/α |
          | HOMO-LUMO GAP               3.933713147936 eV   |
           -------------------------------------------------

------------------------------------------------------------------------
 * finished run on 2025/04/11 at 11:50:56.247     
------------------------------------------------------------------------
 total:
 * wall-time:     0 d,  0 h,  0 min,  0.062 sec
 *  cpu-time:     0 d,  0 h,  0 min,  0.039 sec
 * ratio c/w:     0.623 speedup
 SCF:
 * wall-time:     0 d,  0 h,  0 min,  0.029 sec
 *  cpu-time:     0 d,  0 h,  0 min,  0.029 sec
 * ratio c/w:     0.989 speedup

