      -----------------------------------------------------------      
     |                   =====================                   |     
     |                           x T B                           |     
     |                   =====================                   |     
     |                         S. Grimme                         |     
     |          Mulliken Center for Theoretical Chemistry        |     
     |                    University of Bonn                     |     
      -----------------------------------------------------------      

   * xtb version 6.7.1 (edcfbbe) compiled by 'albert@albert-system' on 2024-07-22

   xtb is free software: you can redistribute it and/or modify it under
   the terms of the GNU Lesser General Public License as published by
   the Free Software Foundation, either version 3 of the License, or
   (at your option) any later version.
   
   xtb is distributed in the hope that it will be useful,
   but WITHOUT ANY WARRANTY; without even the implied warranty of
   MERCHANTABILITY or FITNESS FOR A PARTICULAR PURPOSE.  See the
   GNU Lesser General Public License for more details.
   
   Cite this work as:
   * C. Bannwarth, E. Caldeweyher, S. Ehlert, A. Hansen, P. Pracht,
     J. Seibert, S. Spicher, S. Grimme, WIREs Comput. Mol. Sci., 2020, 11,
     e01493. DOI: 10.1002/wcms.1493
   
   for GFN2-xTB:
   * C. Bannwarth, S. Ehlert and S. Grimme., J. Chem. Theory Comput., 2019,
     15, 1652-1671. DOI: 10.1021/acs.jctc.8b01176
   for GFN1-xTB:
   * S. Grimme, C. Bannwarth, P. Shushkov, J. Chem. Theory Comput., 2017,
     13, 1989-2009. DOI: 10.1021/acs.jctc.7b00118
   for GFN0-xTB:
   * P. Pracht, E. Caldeweyher, S. Ehlert, S. Grimme, ChemRxiv, 2019, preprint.
     DOI: 10.26434/chemrxiv.8326202.v1
   for GFN-FF:
   * S. Spicher and S. Grimme, Angew. Chem. Int. Ed., 2020, 59, 15665-15673.
     DOI: 10.1002/anie.202004239
   
   for ALPB and GBSA implicit solvation:
   * S. Ehlert, M. Stahn, S. Spicher, S. Grimme, J. Chem. Theory Comput.,
     2021, 17, 4250-4261. DOI: 10.1021/acs.jctc.1c00471
   
   for ddCOSMO and CPCM-X implicit solvation:
   * M. Stahn, S. Ehlert, S. Grimme, J. Phys. Chem. A,
     2023, XX, XXXX-XXXX. DOI: 10.1021/acs.jpca.3c04382
   
   for DFT-D4:
   * E. Caldeweyher, C. Bannwarth and S. Grimme, J. Chem. Phys., 2017,
     147, 034112. DOI: 10.1063/1.4993215
   * E. Caldeweyher, S. Ehlert, A. Hansen, H. Neugebauer, S. Spicher,
     C. Bannwarth and S. Grimme, J. Chem. Phys., 2019, 150, 154122.
     DOI: 10.1063/1.5090222
   * E. Caldeweyher, J.-M. Mewes, S. Ehlert and S. Grimme, Phys. Chem. Chem. Phys.
     2020, 22, 8499-8512. DOI: 10.1039/D0CP00502A
   
   for sTDA-xTB:
   * S. Grimme and C. Bannwarth, J. Chem. Phys., 2016, 145, 054103.
     DOI: 10.1063/1.4959605
   
   in the mass-spec context:
   * V. Asgeirsson, C. Bauer and S. Grimme, Chem. Sci., 2017, 8, 4879.
     DOI: 10.1039/c7sc00601b
   * J. Koopman and S. Grimme, ACS Omega 2019, 4, 12, 15120-15133.
     DOI: 10.1021/acsomega.9b02011
   
   for metadynamics refer to:
   * S. Grimme, J. Chem. Theory Comput., 2019, 155, 2847-2862
     DOI: 10.1021/acs.jctc.9b00143
   
   for SPH calculations refer to:
   * S. Spicher and S. Grimme, J. Chem. Theory Comput., 2021, 17, 1701-1714
     DOI: 10.1021/acs.jctc.0c01306
   
   for ONIOM refer to:
   * C. Plett, A. Katbashev, S. Ehlert, S. Grimme, M. Bursch,
     Phys. Chem. Chem. Phys., 2023, 25, 17860-17868. DOI: 10.1039/D3CP02178E
   
   for DIPRO refer to:
   * J. Kohn, N. Gildemeister, S. Grimme, D. Fazzi, A. Hansen,
     J. Chem. Phys., 2023, just accepted.
   
   for PTB refer to:
   * S. Grimme, M. Mueller, A. Hansen, J. Chem. Phys., 2023, 158, 124111.
     DOI: 10.1063/5.0137838
   
   with help from (in alphabetical order)
   P. Atkinson, C. Bannwarth, F. Bohle, G. Brandenburg, E. Caldeweyher
   M. Checinski, S. Dohm, S. Ehlert, S. Ehrlich, I. Gerasimov, C. Hölzer
   A. Katbashev, J. Kohn, J. Koopman, C. Lavigne, S. Lehtola, F. März, M. Müller,
   F. Musil, H. Neugebauer, J. Pisarek, C. Plett, P. Pracht, F. Pultar,
   J. Seibert, P. Shushkov, S. Spicher, M. Stahn, M. Steiner, T. Strunk,
   J. Stückrath, T. Rose, and J. Unsleber
   
 * started run on 2025/04/11 at 12:38:11.503     
   ID    Z sym.   atoms
    1    6 C      1-7
    2    1 H      8-23

           -------------------------------------------------
          |                Calculation Setup                |
           -------------------------------------------------

          program call               : /srv/scratch/z5358697/.xtb/bin/xtb xtb_rrho.coord --gfn2 --ohess vtight --chrg 0 --enso --norestart -I rrho-xcontrol-inp --parallel 1 --alpb water
          hostname                   : k022
          coordinate file            : xtb_rrho.coord
          omp threads                :                     1


           -------------------------------------------------
          |                 G F N 2 - x T B                 |
           -------------------------------------------------

        Reference                      10.1021/acs.jctc.8b01176
      * Hamiltonian:
        H0-scaling (s, p, d)           1.850000    2.230000    2.230000
        zeta-weighting                 0.500000
      * Dispersion:
        s8                             2.700000
        a1                             0.520000
        a2                             5.000000
        s9                             5.000000
      * Repulsion:
        kExp                           1.500000    1.000000
        rExp                           1.000000
      * Coulomb:
        alpha                          2.000000
        third order                    shell-resolved
        anisotropic                    true
        a3                             3.000000
        a5                             4.000000
        cn-shift                       1.200000
        cn-exp                         4.000000
        max-rad                        5.000000

      * Solvation model:               ALPB
        Solvent                        water
        Parameter file                 internal GFN2-xTB/ALPB
        Dielectric constant                8.0200E+01
        Reference state                gsolv [1 M gas/solution]
        Free energy shift                  1.0808E-03 Eh       6.7819E-01 kcal/mol
        Temperature                        2.9815E+02 K
        Density                            1.0000E+00 kg/L
        Solvent mass                       1.8000E+01 g/mol
        Interaction kernel             P16
        Born radius scaling (c1)           1.4744E+00
        Born radii integrator          GBOBC
        Born offset                        0.0000E+00 a0       0.0000E+00 AA
        H-bond correction              true
        Ion screening                  false
        Surface tension                    1.0000E-05 Eh       1.5569E+01 dyn/cm
        Grid points                               974 per atom

          ...................................................
          :                      SETUP                      :
          :.................................................:
          :  # basis functions                  44          :
          :  # atomic orbitals                  44          :
          :  # shells                           30          :
          :  # electrons                        44          :
          :  max. iterations                   250          :
          :  Hamiltonian                  GFN2-xTB          :
          :  restarted?                      false          :
          :  GBSA solvation                   true          :
          :  PC potential                    false          :
          :  electronic temp.          300.0000000     K    :
          :  accuracy                    1.0000000          :
          :  -> integral cutoff          0.2500000E+02      :
          :  -> integral neglect         0.1000000E-07      :
          :  -> SCF convergence          0.1000000E-05 Eh   :
          :  -> wf. convergence          0.1000000E-03 e    :
          :  Broyden damping             0.4000000          :
          :  net charge                          0          :
          :  unpaired electrons                  0          :
          ...................................................

 iter      E             dE          RMSdq      gap      omega  full diag
   1    -23.4541481 -0.234541E+02  0.229E+00   12.84       0.0  T
   2    -23.4953815 -0.412334E-01  0.123E+00   12.73       1.0  T
   3    -23.4965383 -0.115677E-02  0.599E-01   12.72       1.0  T
   4    -23.4966800 -0.141735E-03  0.119E-01   12.72       1.0  T
   5    -23.4967443 -0.642387E-04  0.540E-02   12.72       1.0  T
   6    -23.4967443 -0.738568E-07  0.352E-03   12.72       5.9  T
   7    -23.4967445 -0.133916E-06  0.969E-04   12.72      21.5  T
   8    -23.4967445 -0.557364E-09  0.394E-04   12.72      52.9  T

   *** convergence criteria satisfied after 8 iterations ***

         #    Occupation            Energy/Eh            Energy/eV
      -------------------------------------------------------------
         1        2.0000           -0.6231041             -16.9555
       ...           ...                  ...                  ...
        16        2.0000           -0.4469676             -12.1626
        17        2.0000           -0.4415738             -12.0158
        18        2.0000           -0.4356424             -11.8544
        19        2.0000           -0.4302259             -11.7070
        20        2.0000           -0.4170186             -11.3477
        21        2.0000           -0.4133868             -11.2488
        22        2.0000           -0.4114826             -11.1970 (HOMO)
        23                          0.0560645               1.5256 (LUMO)
        24                          0.0869491               2.3660
        25                          0.0980016               2.6668
        26                          0.1018895               2.7726
        27                          0.1185450               3.2258
       ...                                ...                  ...
        44                          0.3038338               8.2677
      -------------------------------------------------------------
                  HL-Gap            0.4675472 Eh           12.7226 eV
             Fermi-level           -0.1777091 Eh           -4.8357 eV

 SCC (total)                   0 d,  0 h,  0 min,  0.031 sec
 SCC setup                      ...        0 min,  0.002 sec (  5.024%)
 Dispersion                     ...        0 min,  0.000 sec (  0.496%)
 classical contributions        ...        0 min,  0.000 sec (  0.108%)
 integral evaluation            ...        0 min,  0.002 sec (  5.919%)
 iterations                     ...        0 min,  0.022 sec ( 70.965%)
 molecular gradient             ...        0 min,  0.005 sec ( 16.990%)
 printout                       ...        0 min,  0.000 sec (  0.454%)

         :::::::::::::::::::::::::::::::::::::::::::::::::::::
         ::                     SUMMARY                     ::
         :::::::::::::::::::::::::::::::::::::::::::::::::::::
         :: total energy             -23.160267988358 Eh    ::
         :: total w/o Gsasa/hb       -23.159916467713 Eh    ::
         :: gradient norm              0.024384624060 Eh/a0 ::
         :: HOMO-LUMO gap             12.722605678082 eV    ::
         ::.................................................::
         :: SCC energy               -23.496656431776 Eh    ::
         :: -> isotropic ES            0.005450393289 Eh    ::
         :: -> anisotropic ES          0.008440062913 Eh    ::
         :: -> anisotropic XC          0.014803705169 Eh    ::
         :: -> dispersion             -0.014446566357 Eh    ::
         :: -> Gsolv                  -0.000476431241 Eh    ::
         ::    -> Gelec               -0.000124910596 Eh    ::
         ::    -> Gsasa               -0.000944131346 Eh    ::
         ::    -> Ghb                 -0.000488148997 Eh    ::
         ::    -> Gshift               0.001080759698 Eh    ::
         :: repulsion energy           0.336388443418 Eh    ::
         :: add. restraining           0.000000000000 Eh    ::
         :: total charge              -0.000000000000 e     ::
         :::::::::::::::::::::::::::::::::::::::::::::::::::::

      ----------------------------------------------------------- 
     |                   =====================                   |
     |                        A N C O P T                        |
     |                   =====================                   |
     |               Approximate Normal Coordinate               |
     |                Rational Function Optimizer                |
      ----------------------------------------------------------- 
      ----------------------------------------------------------- 
     |                   =====================                   |
     |                        A N C O P T                        |
     |                   =====================                   |
     |               Approximate Normal Coordinate               |
     |                Rational Function Optimizer                |
      ----------------------------------------------------------- 

          ...................................................
          :                      SETUP                      :
          :.................................................:
          :   optimization level         verytight          :
          :   max. optcycles                   460          :
          :   ANC micro-cycles                  20          :
          :   degrees of freedom                63          :
          :.................................................:
          :   RF solver                   davidson          :
          :   write xtbopt.log                true          :
          :   linear?                        false          :
          :   energy convergence         0.1000000E-06 Eh   :
          :   grad. convergence          0.2000000E-03 Eh/α :
          :   maxmium RF displ.          1.0000000          :
          :   Hlow (freq-cutoff)         0.1000000E-01      :
          :   Hmax (freq-cutoff)         5.0000000          :
          :   S6 in model hess.         20.0000000          :
          ...................................................

generating ANC from exact Hessian ...
Using Lindh-Hessian (1995)
 Shifting diagonal of input Hessian by   8.650274741657965E-003
 Lowest  eigenvalues of input Hessian
    0.000000    0.000000    0.000000    0.000000    0.000000    0.000000
    0.010000    0.011327    0.011753    0.015802    0.017125    0.017234
    0.017512    0.017606    0.019848    0.021265    0.026534    0.027974
 Highest eigenvalues
    1.169250    1.178345    1.185845    1.245953    1.258868    1.284632
 

........................................................................
.............................. CYCLE    1 ..............................
........................................................................

 iter      E             dE          RMSdq      gap      omega  full diag
   1    -23.4967445 -0.234967E+02  0.623E-05   12.72       0.0  T
   2    -23.4967445 -0.238742E-11  0.407E-05   12.72     512.2  T
   3    -23.4967445 -0.176570E-11  0.553E-06   12.72    3768.2  T
     SCC iter.                  ...        0 min,  0.002 sec
     gradient                   ...        0 min,  0.005 sec
 * total energy  :   -23.1602680 Eh     change       -0.1605152E-09 Eh
   gradient norm :     0.0243845 Eh/α   predicted     0.0000000E+00 (-100.00%)
   displ. norm   :     0.1085563 α      lambda       -0.1282233E-02
   maximum displ.:     0.0523661 α      in ANC's #15, #13, #11, ...

........................................................................
.............................. CYCLE    2 ..............................
........................................................................

 iter      E             dE          RMSdq      gap      omega  full diag
   1    -23.5097341 -0.235097E+02  0.870E-02   12.90       0.0  T
   2    -23.5097419 -0.779155E-05  0.485E-02   12.90       1.0  T
   3    -23.5097422 -0.315049E-06  0.910E-03   12.90       2.3  T
   4    -23.5097423 -0.630993E-07  0.161E-03   12.90      12.9  T
   5    -23.5097423 -0.460624E-09  0.571E-04   12.90      36.5  T
   6    -23.5097423 -0.399758E-09  0.597E-05   12.90     349.2  T
     SCC iter.                  ...        0 min,  0.003 sec
     gradient                   ...        0 min,  0.006 sec
 * total energy  :   -23.1610421 Eh     change       -0.7741492E-03 Eh
   gradient norm :     0.0074952 Eh/α   predicted    -0.6486731E-03 ( -16.21%)
   displ. norm   :     0.0416236 α      lambda       -0.1349923E-03
   maximum displ.:     0.0239540 α      in ANC's #1, #3, #11, ...

........................................................................
.............................. CYCLE    3 ..............................
........................................................................

 iter      E             dE          RMSdq      gap      omega  full diag
   1    -23.5143595 -0.235144E+02  0.289E-02   12.92       0.0  T
   2    -23.5143608 -0.132540E-05  0.162E-02   12.92       1.3  T
   3    -23.5143609 -0.439934E-07  0.373E-03   12.92       5.6  T
   4    -23.5143609 -0.143250E-07  0.700E-04   12.92      29.8  T
   5    -23.5143609 -0.173249E-08  0.374E-04   12.92      55.8  T
     SCC iter.                  ...        0 min,  0.002 sec
     gradient                   ...        0 min,  0.005 sec
 * total energy  :   -23.1611107 Eh     change       -0.6859649E-04 Eh
   gradient norm :     0.0013046 Eh/α   predicted    -0.6762107E-04 (  -1.42%)
   displ. norm   :     0.0368101 α      lambda       -0.9081510E-05
   maximum displ.:     0.0305832 α      in ANC's #1, #3, #7, ...

........................................................................
.............................. CYCLE    4 ..............................
........................................................................

 iter      E             dE          RMSdq      gap      omega  full diag
   1    -23.5141379 -0.235141E+02  0.940E-03   12.93       0.0  T
   2    -23.5141379 -0.205200E-07  0.563E-03   12.93       3.7  T
   3    -23.5141379  0.109635E-08  0.568E-04   12.93      36.7  T
   4    -23.5141379 -0.422062E-08  0.173E-04   12.93     120.5  T
     SCC iter.                  ...        0 min,  0.002 sec
     gradient                   ...        0 min,  0.005 sec
 * total energy  :   -23.1611208 Eh     change       -0.1010071E-04 Eh
   gradient norm :     0.0007074 Eh/α   predicted    -0.4684984E-05 ( -53.62%)
   displ. norm   :     0.0507445 α      lambda       -0.7667176E-05
   maximum displ.:     0.0404881 α      in ANC's #1, #3, #7, ...

........................................................................
.............................. CYCLE    5 ..............................
........................................................................

 iter      E             dE          RMSdq      gap      omega  full diag
   1    -23.5136876 -0.235137E+02  0.108E-02   12.92       0.0  T
   2    -23.5136876 -0.977402E-08  0.642E-03   12.92       3.2  T
   3    -23.5136876 -0.136909E-08  0.373E-04   12.92      55.9  T
   4    -23.5136876 -0.116882E-08  0.173E-04   12.92     120.8  T
     SCC iter.                  ...        0 min,  0.002 sec
     gradient                   ...        0 min,  0.005 sec
 * total energy  :   -23.1611303 Eh     change       -0.9435790E-05 Eh
   gradient norm :     0.0009330 Eh/α   predicted    -0.3886089E-05 ( -58.82%)
   displ. norm   :     0.0563751 α      lambda       -0.6915486E-05
   maximum displ.:     0.0451428 α      in ANC's #1, #7, #3, ...

........................................................................
.............................. CYCLE    6 ..............................
........................................................................

 iter      E             dE          RMSdq      gap      omega  full diag
   1    -23.5136670 -0.235137E+02  0.113E-02   12.92       0.0  T
   2    -23.5136670 -0.604685E-08  0.673E-03   12.92       3.1  T
   3    -23.5136670 -0.183109E-08  0.270E-04   12.92      77.1  T
   4    -23.5136670 -0.223125E-09  0.151E-04   12.92     137.6  T
     SCC iter.                  ...        0 min,  0.002 sec
     gradient                   ...        0 min,  0.005 sec
 * total energy  :   -23.1611390 Eh     change       -0.8723256E-05 Eh
   gradient norm :     0.0006859 Eh/α   predicted    -0.3469596E-05 ( -60.23%)
   displ. norm   :     0.0481639 α      lambda       -0.4960410E-05
   maximum displ.:     0.0416384 α      in ANC's #1, #7, #4, ...

........................................................................
.............................. CYCLE    7 ..............................
........................................................................

 iter      E             dE          RMSdq      gap      omega  full diag
   1    -23.5138246 -0.235138E+02  0.914E-03   12.92       0.0  T
   2    -23.5138246 -0.422528E-08  0.544E-03   12.92       3.8  T
   3    -23.5138246 -0.868074E-09  0.254E-04   12.92      82.2  T
   4    -23.5138246 -0.496403E-09  0.130E-04   12.92     159.8  T
     SCC iter.                  ...        0 min,  0.002 sec
     gradient                   ...        0 min,  0.005 sec
 * total energy  :   -23.1611452 Eh     change       -0.6242237E-05 Eh
   gradient norm :     0.0002436 Eh/α   predicted    -0.2483487E-05 ( -60.21%)
   displ. norm   :     0.0329956 α      lambda       -0.2854704E-05
   maximum displ.:     0.0308009 α      in ANC's #1, #7, #4, ...

........................................................................
.............................. CYCLE    8 ..............................
........................................................................

 iter      E             dE          RMSdq      gap      omega  full diag
   1    -23.5138973 -0.235139E+02  0.678E-03   12.93       0.0  T
   2    -23.5138973 -0.147836E-08  0.401E-03   12.93       5.2  T
   3    -23.5138973 -0.586006E-09  0.144E-04   12.93     144.6  T
   4    -23.5138973 -0.580620E-10  0.825E-05   12.93     252.6  T
     SCC iter.                  ...        0 min,  0.002 sec
     gradient                   ...        0 min,  0.006 sec
 * total energy  :   -23.1611491 Eh     change       -0.3818979E-05 Eh
   gradient norm :     0.0002051 Eh/α   predicted    -0.1436805E-05 ( -62.38%)
   displ. norm   :     0.0229146 α      lambda       -0.1922478E-05
   maximum displ.:     0.0221296 α      in ANC's #1, #3, #7, ...

........................................................................
.............................. CYCLE    9 ..............................
........................................................................

 iter      E             dE          RMSdq      gap      omega  full diag
   1    -23.5139698 -0.235140E+02  0.398E-03   12.93       0.0  T
   2    -23.5139698 -0.101174E-08  0.235E-03   12.93       8.9  T
   3    -23.5139698 -0.215167E-09  0.857E-05   12.93     243.4  T
   4    -23.5139698 -0.133014E-10  0.477E-05   12.93     436.8  T
     SCC iter.                  ...        0 min,  0.002 sec
     gradient                   ...        0 min,  0.005 sec
 * total energy  :   -23.1611517 Eh     change       -0.2690248E-05 Eh
   gradient norm :     0.0002466 Eh/α   predicted    -0.9707568E-06 ( -63.92%)
   displ. norm   :     0.0199572 α      lambda       -0.1689478E-05
   maximum displ.:     0.0188376 α      in ANC's #1, #3, #6, ...

........................................................................
.............................. CYCLE   10 ..............................
........................................................................

 iter      E             dE          RMSdq      gap      omega  full diag
   1    -23.5139832 -0.235140E+02  0.428E-03   12.93       0.0  T
   2    -23.5139832 -0.831729E-09  0.253E-03   12.93       8.2  T
   3    -23.5139832 -0.131003E-09  0.107E-04   12.93     194.5  T
   4    -23.5139832 -0.114284E-09  0.502E-05   12.93     415.5  T
     SCC iter.                  ...        0 min,  0.002 sec
     gradient                   ...        0 min,  0.005 sec
 * total energy  :   -23.1611541 Eh     change       -0.2385918E-05 Eh
   gradient norm :     0.0002155 Eh/α   predicted    -0.8504009E-06 ( -64.36%)
   displ. norm   :     0.0215612 α      lambda       -0.1756063E-05
   maximum displ.:     0.0194060 α      in ANC's #1, #6, #7, ...

........................................................................
.............................. CYCLE   11 ..............................
........................................................................

 iter      E             dE          RMSdq      gap      omega  full diag
   1    -23.5139542 -0.235140E+02  0.417E-03   12.93       0.0  T
   2    -23.5139542 -0.578719E-09  0.248E-03   12.93       8.4  T
   3    -23.5139542 -0.236589E-09  0.838E-05   12.93     248.9  T
   4    -23.5139542 -0.958522E-11  0.477E-05   12.93     437.5  T
     SCC iter.                  ...        0 min,  0.002 sec
     gradient                   ...        0 min,  0.006 sec
 * total energy  :   -23.1611566 Eh     change       -0.2461301E-05 Eh
   gradient norm :     0.0001501 Eh/α   predicted    -0.8790885E-06 ( -64.28%)
   displ. norm   :     0.0256859 α      lambda       -0.1905755E-05
   maximum displ.:     0.0223660 α      in ANC's #1, #6, #7, ...

........................................................................
.............................. CYCLE   12 ..............................
........................................................................

 iter      E             dE          RMSdq      gap      omega  full diag
   1    -23.5139569 -0.235140E+02  0.498E-03   12.92       0.0  T
   2    -23.5139569 -0.960622E-09  0.297E-03   12.92       7.0  T
   3    -23.5139569 -0.286445E-09  0.117E-04   12.92     178.1  T
   4    -23.5139569 -0.767635E-10  0.638E-05   12.92     326.8  T
     SCC iter.                  ...        0 min,  0.002 sec
     gradient                   ...        0 min,  0.006 sec
 * total energy  :   -23.1611592 Eh     change       -0.2655380E-05 Eh
   gradient norm :     0.0001153 Eh/α   predicted    -0.9534614E-06 ( -64.09%)
   displ. norm   :     0.0280612 α      lambda       -0.1864819E-05
   maximum displ.:     0.0243212 α      in ANC's #1, #6, #7, ...

........................................................................
.............................. CYCLE   13 ..............................
........................................................................

 iter      E             dE          RMSdq      gap      omega  full diag
   1    -23.5139197 -0.235139E+02  0.552E-03   12.92       0.0  T
   2    -23.5139197 -0.858215E-09  0.329E-03   12.92       6.3  T
   3    -23.5139197 -0.437382E-09  0.111E-04   12.92     187.5  T
   4    -23.5139197 -0.244782E-11  0.477E-05   12.92     437.0  T
     SCC iter.                  ...        0 min,  0.002 sec
     gradient                   ...        0 min,  0.005 sec
 * total energy  :   -23.1611618 Eh     change       -0.2553695E-05 Eh
   gradient norm :     0.0001171 Eh/α   predicted    -0.9343909E-06 ( -63.41%)
   displ. norm   :     0.0265156 α      lambda       -0.1549935E-05
   maximum displ.:     0.0234467 α      in ANC's #1, #6, #7, ...

........................................................................
.............................. CYCLE   14 ..............................
........................................................................

 iter      E             dE          RMSdq      gap      omega  full diag
   1    -23.5139094 -0.235139E+02  0.505E-03   12.92       0.0  T
   2    -23.5139094 -0.663817E-09  0.301E-03   12.92       6.9  T
   3    -23.5139094 -0.338648E-09  0.982E-05   12.92     212.4  T
   4    -23.5139094 -0.103739E-11  0.380E-05   12.92     548.8  T
     SCC iter.                  ...        0 min,  0.002 sec
     gradient                   ...        0 min,  0.006 sec
 * total energy  :   -23.1611639 Eh     change       -0.2137246E-05 Eh
   gradient norm :     0.0001317 Eh/α   predicted    -0.7805661E-06 ( -63.48%)
   displ. norm   :     0.0218673 α      lambda       -0.1184549E-05
   maximum displ.:     0.0200216 α      in ANC's #1, #6, #3, ...

........................................................................
.............................. CYCLE   15 ..............................
........................................................................

 iter      E             dE          RMSdq      gap      omega  full diag
   1    -23.5139195 -0.235139E+02  0.425E-03   12.92       0.0  T
   2    -23.5139195 -0.615024E-09  0.253E-03   12.92       8.3  T
   3    -23.5139195 -0.231438E-09  0.892E-05   12.92     233.9  T
   4    -23.5139195 -0.194653E-10  0.504E-05   12.92     413.5  T
     SCC iter.                  ...        0 min,  0.002 sec
     gradient                   ...        0 min,  0.005 sec
 * total energy  :   -23.1611656 Eh     change       -0.1657156E-05 Eh
   gradient norm :     0.0001299 Eh/α   predicted    -0.5936948E-06 ( -64.17%)
   displ. norm   :     0.0172746 α      lambda       -0.9153686E-06
   maximum displ.:     0.0163978 α      in ANC's #1, #3, #6, ...

........................................................................
.............................. CYCLE   16 ..............................
........................................................................

 iter      E             dE          RMSdq      gap      omega  full diag
   1    -23.5139159 -0.235139E+02  0.337E-03   12.92       0.0  T
   2    -23.5139159 -0.315449E-09  0.200E-03   12.92      10.4  T
   3    -23.5139159 -0.134509E-09  0.640E-05   12.92     326.0  T
   4    -23.5139159 -0.536815E-11  0.356E-05   12.92     586.1  T
     SCC iter.                  ...        0 min,  0.002 sec
     gradient                   ...        0 min,  0.005 sec
 * total energy  :   -23.1611669 Eh     change       -0.1320701E-05 Eh
   gradient norm :     0.0001131 Eh/α   predicted    -0.4590671E-06 ( -65.24%)
   displ. norm   :     0.0146335 α      lambda       -0.7939040E-06
   maximum displ.:     0.0141191 α      in ANC's #1, #3, #6, ...

........................................................................
.............................. CYCLE   17 ..............................
........................................................................

 iter      E             dE          RMSdq      gap      omega  full diag
   1    -23.5139264 -0.235139E+02  0.270E-03   12.92       0.0  T
   2    -23.5139264 -0.174254E-09  0.160E-03   12.92      13.0  T
   3    -23.5139264 -0.855920E-10  0.501E-05   12.92     415.9  T
   4    -23.5139264 -0.497380E-12  0.222E-05   12.92     940.3  T
     SCC iter.                  ...        0 min,  0.002 sec
     gradient                   ...        0 min,  0.005 sec
 * total energy  :   -23.1611681 Eh     change       -0.1151760E-05 Eh
   gradient norm :     0.0001005 Eh/α   predicted    -0.3977749E-06 ( -65.46%)
   displ. norm   :     0.0141935 α      lambda       -0.7595128E-06
   maximum displ.:     0.0136243 α      in ANC's #1, #7, #4, ...

........................................................................
.............................. CYCLE   18 ..............................
........................................................................

 iter      E             dE          RMSdq      gap      omega  full diag
   1    -23.5139376 -0.235139E+02  0.288E-03   12.92       0.0  T
   2    -23.5139376 -0.218026E-09  0.170E-03   12.92      12.2  T
   3    -23.5139376 -0.101775E-09  0.530E-05   12.92     393.2  T
   4    -23.5139376 -0.802913E-12  0.270E-05   12.92     772.0  T
     SCC iter.                  ...        0 min,  0.002 sec
     gradient                   ...        0 min,  0.005 sec
 * total energy  :   -23.1611692 Eh     change       -0.1105126E-05 Eh
   gradient norm :     0.0000851 Eh/α   predicted    -0.3809732E-06 ( -65.53%)
   displ. norm   :     0.0142501 α      lambda       -0.7260693E-06
   maximum displ.:     0.0135573 α      in ANC's #1, #7, #4, ...

........................................................................
.............................. CYCLE   19 ..............................
........................................................................

 iter      E             dE          RMSdq      gap      omega  full diag
   1    -23.5139454 -0.235139E+02  0.257E-03   12.92       0.0  T
   2    -23.5139454 -0.169486E-09  0.152E-03   12.92      13.7  T
   3    -23.5139454 -0.807425E-10  0.505E-05   12.92     412.9  T
   4    -23.5139454 -0.115818E-11  0.251E-05   12.92     829.4  T
     SCC iter.                  ...        0 min,  0.002 sec
     gradient                   ...        0 min,  0.005 sec
 * total energy  :   -23.1611702 Eh     change       -0.1041403E-05 Eh
   gradient norm :     0.0000751 Eh/α   predicted    -0.3634043E-06 ( -65.10%)
   displ. norm   :     0.0138038 α      lambda       -0.6494287E-06
   maximum displ.:     0.0131771 α      in ANC's #1, #7, #4, ...

........................................................................
.............................. CYCLE   20 ..............................
........................................................................

 iter      E             dE          RMSdq      gap      omega  full diag
   1    -23.5139552 -0.235140E+02  0.284E-03   12.92       0.0  T
   2    -23.5139552 -0.224777E-09  0.168E-03   12.92      12.4  T
   3    -23.5139552 -0.999734E-10  0.530E-05   12.92     393.6  T
   4    -23.5139552 -0.226308E-11  0.289E-05   12.92     722.3  T
     SCC iter.                  ...        0 min,  0.002 sec
     gradient                   ...        0 min,  0.005 sec
 * total energy  :   -23.1611711 Eh     change       -0.9262534E-06 Eh
   gradient norm :     0.0000699 Eh/α   predicted    -0.3250693E-06 ( -64.90%)
   displ. norm   :     0.0124992 α      lambda       -0.5389938E-06
   maximum displ.:     0.0121175 α      in ANC's #1, #7, #4, ...
 * RMSD in coord.:     0.1042616 α      energy gain  -0.9031530E-03 Eh

generating ANC from exact Hessian ...
Using Lindh-Hessian (1995)
 Shifting diagonal of input Hessian by   8.653350941017700E-003
 Lowest  eigenvalues of input Hessian
    0.000000    0.000000    0.000000    0.000000    0.000000    0.000000
    0.010000    0.011369    0.011863    0.016020    0.017539    0.017680
    0.017910    0.017972    0.020402    0.021793    0.027179    0.028946
 Highest eigenvalues
    1.198385    1.205569    1.206644    1.258905    1.269091    1.294958
 

........................................................................
.............................. CYCLE   21 ..............................
........................................................................

 iter      E             dE          RMSdq      gap      omega  full diag
   1    -23.5139607 -0.235140E+02  0.225E-03   12.92       0.0  T
   2    -23.5139607 -0.146734E-09  0.133E-03   12.92      15.7  T
   3    -23.5139607 -0.608686E-10  0.445E-05   12.92     468.2  T
   4    -23.5139607 -0.322942E-11  0.251E-05   12.92     832.1  T
     SCC iter.                  ...        0 min,  0.002 sec
     gradient                   ...        0 min,  0.005 sec
 * total energy  :   -23.1611719 Eh     change       -0.7791737E-06 Eh
   gradient norm :     0.0000656 Eh/α   predicted     0.0000000E+00 (-100.00%)
   displ. norm   :     0.0000984 α      lambda        0.0000000E+00
   maximum displ.:     0.0000950 α      in ANC's #1, #7, #46, ...

........................................................................
.............................. CYCLE   22 ..............................
........................................................................

 iter      E             dE          RMSdq      gap      omega  full diag
   1    -23.5139588 -0.235140E+02  0.372E-05   12.92       0.0  T
   2    -23.5139588 -0.724754E-12  0.221E-05   12.92     941.6  T
   3    -23.5139588  0.390799E-13  0.425E-06   12.92    4911.9  T
     SCC iter.                  ...        0 min,  0.001 sec
     gradient                   ...        0 min,  0.005 sec
 * total energy  :   -23.1611719 Eh     change       -0.6381409E-08 Eh
   gradient norm :     0.0000646 Eh/α   predicted    -0.4237891E-08 ( -33.59%)
   displ. norm   :     0.0000984 α      lambda        0.0000000E+00
   maximum displ.:     0.0000950 α      in ANC's #1, #7, #46, ...

   *** GEOMETRY OPTIMIZATION CONVERGED AFTER 22 ITERATIONS ***

------------------------------------------------------------------------
 total energy gain   :        -0.0009039 Eh       -0.5672 kcal/mol
 total RMSD          :         0.1042793 a0        0.0552 Å
 total power (kW/mol):        -0.1078768 (step)   -9.0837 (real)
------------------------------------------------------------------------

 ANCopt (total)                0 d,  0 h,  0 min,  0.261 sec
 optimizer setup                ...        0 min,  0.000 sec (  0.144%)
 model hessian                  ...        0 min,  0.023 sec (  8.868%)
 ANC generation                 ...        0 min,  0.001 sec (  0.374%)
 coordinate transformation      ...        0 min,  0.000 sec (  0.049%)
 single point calculation       ...        0 min,  0.227 sec ( 87.023%)
 optimization log               ...        0 min,  0.007 sec (  2.825%)
 hessian update                 ...        0 min,  0.000 sec (  0.059%)
 rational function              ...        0 min,  0.001 sec (  0.298%)

================
 final structure:
================
$coord
       -3.10948391601970        1.95447272499152       -1.67854179347362      C
       -2.40206589620213        0.23489258566199        0.52833995794813      C
       -4.57849101726767       -1.58015114238280        1.09136534252031      C
        0.00108088450723       -1.29197957306553       -0.00992400181594      C
        2.40160377046670        0.24717860019103       -0.52439122400423      C
        3.10617901672546        1.93343119666703        1.70896061489194      C
        4.58110819507503       -1.55515489230434       -1.11561539898269      C
       -3.29108525613687        0.85862903789193       -3.40869701604638      H
       -4.90601183228806        2.88205768811990       -1.30750847438945      H
       -1.69062584030350        3.40956374240284       -1.97169635551647      H
       -2.09538764661935        1.40389709828636        2.20697623911379      H
       -6.28808622714275       -0.53710131027952        1.55289922077955      H
       -4.96373397417072       -2.76395521179867       -0.54507000208069      H
       -4.11591593700859       -2.80033616804066        2.67922629950052      H
       -0.35653616045032       -2.50338562991877       -1.64519446381732      H
        0.36079636032084       -2.52796987450236        1.60637100003447      H
        2.09286393952511        1.44162098342880       -2.18463431679425      H
        1.68488808181575        3.38140840917052        2.02466887410812      H
        3.28962304249606        0.81113772945671        3.42187981519986      H
        4.90115229596936        2.86968247775771        1.35243040859109      H
        4.12057369850485       -2.75122513080975       -2.72230279975594      H
        6.28891834215488       -0.50213120031296       -1.56082906616220      H
        4.96839609251437       -2.76366500083770        0.50217048908852      H
$end
 
 Bond Distances (Angstroems)
 ---------------------------
C1-C2=1.5271         C1-H8=1.0880         C1-H9=1.0878         C1-H10=1.0866        C2-C1=1.5271         C2-C3=1.5290         
C2-C4=1.5334         C2-H11=1.0946        C3-C2=1.5290         C3-H12=1.0875        C3-H13=1.0881        C3-H14=1.0876        
C4-C2=1.5334         C4-C5=1.5334         C4-H15=1.0934        C4-H16=1.0934        C5-C4=1.5334         C5-C6=1.5271         
C5-C7=1.5290         C5-H17=1.0946        C6-C5=1.5271         C6-H18=1.0866        C6-H19=1.0880        C6-H20=1.0878        
C7-C5=1.5290         C7-H21=1.0876        C7-H22=1.0875        C7-H23=1.0881        H8-C1=1.0880         H9-C1=1.0878         
H10-C1=1.0866        H11-C2=1.0946        H12-C3=1.0875        H13-C3=1.0881        H14-C3=1.0876        H15-C4=1.0934        
H16-C4=1.0934        H17-C5=1.0946        H18-C6=1.0866        H19-C6=1.0880        H20-C6=1.0878        H21-C7=1.0876        
H22-C7=1.0875        H23-C7=1.0881        
 C  H  Rav=1.0892 sigma=0.0028  Rmin=1.0866  Rmax=1.0946    16
 C  C  Rav=1.5298 sigma=0.0026  Rmin=1.5271  Rmax=1.5334     6
 
 selected bond angles (degree)
 --------------------
H8-C1-C2=110.34                H9-C1-C2=110.19                H9-C1-H8=108.37                H10-C1-C2=111.23               
H10-C1-H8=108.58               H10-C1-H9=108.05               C3-C2-C1=109.80                C4-C2-C1=112.04                
C4-C2-C3=109.26                H11-C2-C1=108.68               H11-C2-C3=107.97               H11-C2-C4=109.00               
H12-C3-C2=110.58               H13-C3-C2=110.35               H13-C3-H12=108.37              H14-C3-C2=110.73               
H14-C3-H12=108.36              H14-C3-H13=108.38              C5-C4-C2=116.11                H15-C4-C2=108.20               
H15-C4-C5=108.32               H16-C4-C2=108.32               H16-C4-C5=108.20               H16-C4-H15=107.37              
C6-C5-C4=112.04                C7-C5-C4=109.26                C7-C5-C6=109.80                H17-C5-C4=109.00               
H17-C5-C6=108.68               H17-C5-C7=107.97               H18-C6-C5=111.23               H19-C6-C5=110.34               
H19-C6-H18=108.58              H20-C6-C5=110.19               H20-C6-H18=108.05              H20-C6-H19=108.37              
H21-C7-C5=110.73               H22-C7-C5=110.58               H22-C7-H21=108.36              H23-C7-C5=110.35               
H23-C7-H21=108.38              H23-C7-H22=108.37              
 
 selected dihedral angles (degree)
 ---------------------------------
C3-C2-C1-H8=293.73            C3-C2-C1-H9= 53.37            C3-C2-C1-H10=173.17           C4-C2-C1-H8= 55.33            
C4-C2-C1-H9=174.97            C4-C2-C1-H10=294.77           H11-C2-C1-H8=175.84           H11-C2-C1-H9=295.47           
H11-C2-C1-H10= 55.28          H12-C3-C2-C1=301.00           H12-C3-C2-C4=177.75           H12-C3-C2-H11= 59.33          
H13-C3-C2-C1= 60.88           H13-C3-C2-C4=297.64           H13-C3-C2-H11=179.21          H14-C3-C2-C1=180.87           
H14-C3-C2-C4= 57.63           H14-C3-C2-H11=299.20          C5-C4-C2-C1= 60.14            C5-C4-C2-C3=182.05            
C5-C4-C2-H11=299.83           H15-C4-C2-C1=298.16           H15-C4-C2-C3= 60.06           H15-C4-C2-H11=177.84          
H16-C4-C2-C1=182.06           H16-C4-C2-C3=303.97           H16-C4-C2-H11= 61.75          C6-C5-C4-C2= 60.14            
C6-C5-C4-H15=182.07           C6-C5-C4-H16=298.16           C7-C5-C4-C2=182.05            C7-C5-C4-H15=303.97           
C7-C5-C4-H16= 60.07           H17-C5-C4-C2=299.83           H17-C5-C4-H15= 61.75          H17-C5-C4-H16=177.85          
H18-C6-C5-C4=294.77           H18-C6-C5-C7=173.17           H18-C6-C5-H17= 55.27          H19-C6-C5-C4= 55.33           
H19-C6-C5-C7=293.73           H19-C6-C5-H17=175.84          H20-C6-C5-C4=174.97           H20-C6-C5-C7= 53.37           
H20-C6-C5-H17=295.47          H21-C7-C5-C4= 57.63           H21-C7-C5-C6=180.88           H21-C7-C5-H17=299.20          
H22-C7-C5-C4=177.75           H22-C7-C5-C6=301.00           H22-C7-C5-H17= 59.33          H23-C7-C5-C4=297.64           
H23-C7-C5-C6= 60.89           H23-C7-C5-H17=179.22          
           -------------------------------------------------
          |                Final Singlepoint                |
           -------------------------------------------------

          ...................................................
          :                      SETUP                      :
          :.................................................:
          :  # basis functions                  44          :
          :  # atomic orbitals                  44          :
          :  # shells                           30          :
          :  # electrons                        44          :
          :  max. iterations                   250          :
          :  Hamiltonian                  GFN2-xTB          :
          :  restarted?                      false          :
          :  GBSA solvation                   true          :
          :  PC potential                    false          :
          :  electronic temp.          300.0000000     K    :
          :  accuracy                    1.0000000          :
          :  -> integral cutoff          0.2500000E+02      :
          :  -> integral neglect         0.1000000E-07      :
          :  -> SCF convergence          0.1000000E-05 Eh   :
          :  -> wf. convergence          0.1000000E-03 e    :
          :  Broyden damping             0.4000000          :
          :  net charge                          0          :
          :  unpaired electrons                  0          :
          ...................................................

 iter      E             dE          RMSdq      gap      omega  full diag
   1    -23.5139588 -0.235140E+02  0.106E-06   12.92       0.0  T
   2    -23.5139588 -0.355271E-14  0.677E-07   12.92   30787.7  T
   3    -23.5139588  0.142109E-13  0.101E-07   12.92  100000.0  T

   *** convergence criteria satisfied after 3 iterations ***

         #    Occupation            Energy/Eh            Energy/eV
      -------------------------------------------------------------
         1        2.0000           -0.6239034             -16.9773
       ...           ...                  ...                  ...
        16        2.0000           -0.4465552             -12.1514
        17        2.0000           -0.4412278             -12.0064
        18        2.0000           -0.4354059             -11.8480
        19        2.0000           -0.4304629             -11.7135
        20        2.0000           -0.4168837             -11.3440
        21        2.0000           -0.4131803             -11.2432
        22        2.0000           -0.4117305             -11.2038 (HOMO)
        23                          0.0631721               1.7190 (LUMO)
        24                          0.0922944               2.5115
        25                          0.1042959               2.8380
        26                          0.1131662               3.0794
        27                          0.1235044               3.3607
       ...                                ...                  ...
        44                          0.3140649               8.5461
      -------------------------------------------------------------
                  HL-Gap            0.4749027 Eh           12.9228 eV
             Fermi-level           -0.1742792 Eh           -4.7424 eV

 SCC (total)                   0 d,  0 h,  0 min,  0.010 sec
 SCC setup                      ...        0 min,  0.001 sec ( 13.783%)
 Dispersion                     ...        0 min,  0.000 sec (  0.751%)
 classical contributions        ...        0 min,  0.000 sec (  0.250%)
 integral evaluation            ...        0 min,  0.002 sec ( 15.990%)
 iterations                     ...        0 min,  0.002 sec ( 15.113%)
 molecular gradient             ...        0 min,  0.005 sec ( 52.820%)
 printout                       ...        0 min,  0.000 sec (  1.079%)

         :::::::::::::::::::::::::::::::::::::::::::::::::::::
         ::                     SUMMARY                     ::
         :::::::::::::::::::::::::::::::::::::::::::::::::::::
         :: total energy             -23.161171926921 Eh    ::
         :: total w/o Gsasa/hb       -23.160781507537 Eh    ::
         :: gradient norm              0.000064706944 Eh/a0 ::
         :: HOMO-LUMO gap             12.922759261347 eV    ::
         ::.................................................::
         :: SCC energy               -23.513870243025 Eh    ::
         :: -> isotropic ES            0.005774691474 Eh    ::
         :: -> anisotropic ES          0.007927903788 Eh    ::
         :: -> anisotropic XC          0.014415452470 Eh    ::
         :: -> dispersion             -0.014451479119 Eh    ::
         :: -> Gsolv                  -0.000514555907 Eh    ::
         ::    -> Gelec               -0.000124136522 Eh    ::
         ::    -> Gsasa               -0.000950945389 Eh    ::
         ::    -> Ghb                 -0.000520233693 Eh    ::
         ::    -> Gshift               0.001080759698 Eh    ::
         :: repulsion energy           0.352698316103 Eh    ::
         :: add. restraining           0.000000000000 Eh    ::
         :: total charge               0.000000000000 e     ::
         :::::::::::::::::::::::::::::::::::::::::::::::::::::

           ------------------------------------------------- 
          |                Numerical Hessian                |
           ------------------------------------------------- 
step length          :   0.00500
SCC accuracy         :   0.30000
Hessian scale factor :   1.00000
frozen atoms in %    :   0.00000    0
RMS gradient         :   0.00006
estimated CPU  time      0.02 min
estimated wall time      0.02 min

writing file <hessian>.

 projected vibrational frequencies (cm⁻¹)
eigval :       -0.00    -0.00     0.00     0.00     0.00     0.00
eigval :       49.80    98.69   175.13   209.97   210.31   226.10
eigval :      240.61   307.72   339.76   397.51   426.61   463.91
eigval :      470.99   856.43   862.29   912.93   945.16   951.57
eigval :      968.57   985.84   987.82  1015.36  1063.07  1121.05
eigval :     1177.80  1186.31  1188.91  1192.34  1254.47  1291.01
eigval :     1317.54  1330.84  1342.55  1373.75  1403.88  1409.13
eigval :     1419.26  1420.11  1485.33  1494.05  1498.72  1499.83
eigval :     1499.91  1504.48  1505.37  1510.28  1512.28  2933.74
eigval :     2936.03  2949.61  2963.61  3020.86  3021.02  3022.07
eigval :     3022.54  3023.41  3024.03  3028.19  3028.69  3035.40
eigval :     3036.13  3043.45  3044.25
           -------------------------------------------------
          |                Property Printout                |
           -------------------------------------------------

    * Orbital Energies and Occupations

         #    Occupation            Energy/Eh            Energy/eV
      -------------------------------------------------------------
         1        2.0000           -0.6239034             -16.9773
       ...           ...                  ...                  ...
        10        2.0000           -0.4957223             -13.4893
        11        2.0000           -0.4880203             -13.2797
        12        2.0000           -0.4715620             -12.8319
        13        2.0000           -0.4674825             -12.7208
        14        2.0000           -0.4570856             -12.4379
        15        2.0000           -0.4569920             -12.4354
        16        2.0000           -0.4465552             -12.1514
        17        2.0000           -0.4412278             -12.0064
        18        2.0000           -0.4354059             -11.8480
        19        2.0000           -0.4304629             -11.7135
        20        2.0000           -0.4168837             -11.3440
        21        2.0000           -0.4131803             -11.2432
        22        2.0000           -0.4117305             -11.2038 (HOMO)
        23                          0.0631721               1.7190 (LUMO)
        24                          0.0922944               2.5115
        25                          0.1042959               2.8380
        26                          0.1131662               3.0794
        27                          0.1235044               3.3607
        28                          0.1388160               3.7774
        29                          0.1413934               3.8475
        30                          0.1721442               4.6843
        31                          0.1730742               4.7096
        32                          0.1794311               4.8826
        33                          0.2079437               5.6584
       ...                                ...                  ...
        44                          0.3140649               8.5461
      -------------------------------------------------------------
                  HL-Gap            0.4749027 Eh           12.9228 eV
             Fermi-level           -0.1742792 Eh           -4.7424 eV

     #   Z          covCN         q      C6AA      α(0)
     1   6 C        3.755    -0.111    22.685     6.791
     2   6 C        3.849    -0.013    20.776     6.483
     3   6 C        3.757    -0.113    22.716     6.795
     4   6 C        3.809    -0.070    21.829     6.651
     5   6 C        3.849    -0.013    20.776     6.483
     6   6 C        3.755    -0.111    22.685     6.791
     7   6 C        3.757    -0.113    22.716     6.795
     8   1 H        0.925     0.036     2.501     2.473
     9   1 H        0.925     0.035     2.516     2.481
    10   1 H        0.925     0.035     2.519     2.482
    11   1 H        0.924     0.029     2.600     2.522
    12   1 H        0.925     0.036     2.504     2.475
    13   1 H        0.925     0.036     2.501     2.473
    14   1 H        0.925     0.034     2.530     2.487
    15   1 H        0.924     0.031     2.567     2.505
    16   1 H        0.924     0.031     2.567     2.505
    17   1 H        0.924     0.029     2.600     2.522
    18   1 H        0.925     0.035     2.519     2.482
    19   1 H        0.925     0.036     2.501     2.473
    20   1 H        0.925     0.035     2.516     2.481
    21   1 H        0.925     0.034     2.530     2.487
    22   1 H        0.925     0.036     2.504     2.475
    23   1 H        0.925     0.036     2.501     2.473

 Mol. C6AA /au·bohr⁶  :       3387.621036
 Mol. C8AA /au·bohr⁸  :      70091.548482
 Mol. α(0) /au        :         86.585935


Wiberg/Mayer (AO) data.
largest (>0.10) Wiberg bond orders for each atom

 ---------------------------------------------------------------------------
     #   Z sym  total        # sym  WBO       # sym  WBO       # sym  WBO
 ---------------------------------------------------------------------------
     1   6 C    3.997 --     2 C    1.010     8 H    0.987     9 H    0.986
                            10 H    0.984
     2   6 C    3.996 --     1 C    1.010     3 C    1.007     4 C    0.996
                            11 H    0.967
     3   6 C    3.996 --     2 C    1.007    13 H    0.987    14 H    0.987
                            12 H    0.986
     4   6 C    3.996 --     2 C    0.996     5 C    0.996    16 H    0.975
                            15 H    0.975
     5   6 C    3.996 --     6 C    1.010     7 C    1.007     4 C    0.996
                            17 H    0.967
     6   6 C    3.997 --     5 C    1.010    19 H    0.987    20 H    0.986
                            18 H    0.984
     7   6 C    3.996 --     5 C    1.007    23 H    0.987    21 H    0.987
                            22 H    0.986
     8   1 H    0.999 --     1 C    0.987
     9   1 H    0.999 --     1 C    0.986
    10   1 H    0.999 --     1 C    0.984
    11   1 H    0.999 --     2 C    0.967
    12   1 H    0.998 --     3 C    0.986
    13   1 H    0.999 --     3 C    0.987
    14   1 H    0.999 --     3 C    0.987
    15   1 H    0.999 --     4 C    0.975
    16   1 H    0.999 --     4 C    0.975
    17   1 H    0.999 --     5 C    0.967
    18   1 H    0.999 --     6 C    0.984
    19   1 H    0.999 --     6 C    0.987
    20   1 H    0.999 --     6 C    0.986
    21   1 H    0.999 --     7 C    0.987
    22   1 H    0.998 --     7 C    0.986
    23   1 H    0.999 --     7 C    0.987
 ---------------------------------------------------------------------------

Topologies differ in total number of bonds
Writing topology from bond orders to xtbtopo.mol

molecular dipole:
                 x           y           z       tot (Debye)
 q only:       -0.000       0.003       0.000
   full:       -0.000      -0.006      -0.000       0.014
molecular quadrupole (traceless):
                xx          xy          yy          xz          yz          zz
 q only:        0.164       0.000      -0.030       0.007       0.001      -0.134
  q+dip:       -0.495      -0.002      -0.096       0.244      -0.005       0.591
   full:       -0.144      -0.001      -0.068       0.124      -0.002       0.212

           -------------------------------------------------
          |                Geometry Summary                 |
           -------------------------------------------------

      molecular mass/u    :      100.2022033
   center of mass at/Å    :       -0.0000053      -0.0041237       0.0000160
  moments of inertia/u·Å² :        0.1218781E+03   0.3635726E+03   0.3878115E+03
rotational constants/cm⁻¹ :        0.1383155E+00   0.4636662E-01   0.4346862E-01

 * 22 selected distances

     #   Z          #   Z                                           value/Å
     1   6 C        2   6 C                                       1.5270889
     2   6 C        3   6 C                                       1.5289659
     2   6 C        4   6 C                                       1.5333527
     4   6 C        5   6 C                                       1.5333540 (max)
     5   6 C        6   6 C                                       1.5270899
     5   6 C        7   6 C                                       1.5289644
     1   6 C        8   1 H                                       1.0880082
     1   6 C        9   1 H                                       1.0877897
     1   6 C       10   1 H                                       1.0866044
     2   6 C       11   1 H                                       1.0945713
     3   6 C       12   1 H                                       1.0875439
     3   6 C       13   1 H                                       1.0880642
     3   6 C       14   1 H                                       1.0876015
     4   6 C       15   1 H                                       1.0934272
     4   6 C       16   1 H                                       1.0934237
     5   6 C       17   1 H                                       1.0945683
     6   6 C       18   1 H                                       1.0866031 (min)
     6   6 C       19   1 H                                       1.0880078
     6   6 C       20   1 H                                       1.0877920
     7   6 C       21   1 H                                       1.0876003
     7   6 C       22   1 H                                       1.0875448
     7   6 C       23   1 H                                       1.0880636

 * 2 distinct bonds (by element types)

   Z      Z             #   av. dist./Å        max./Å        min./Å
   1 H    6 C          16     1.0892009     1.0945713     1.0866031
   6 C    6 C           6     1.5298026     1.5333540     1.5270889

           -------------------------------------------------
          |               Frequency Printout                |
           -------------------------------------------------
 projected vibrational frequencies (cm⁻¹)
eigval :       -0.00    -0.00     0.00     0.00     0.00     0.00
eigval :       49.80    98.69   175.13   209.97   210.31   226.10
eigval :      240.61   307.72   339.76   397.51   426.61   463.91
eigval :      470.99   856.43   862.29   912.93   945.16   951.57
eigval :      968.57   985.84   987.82  1015.36  1063.07  1121.05
eigval :     1177.80  1186.31  1188.91  1192.34  1254.47  1291.01
eigval :     1317.54  1330.84  1342.55  1373.75  1403.88  1409.13
eigval :     1419.26  1420.11  1485.33  1494.05  1498.72  1499.83
eigval :     1499.91  1504.48  1505.37  1510.28  1512.28  2933.74
eigval :     2936.03  2949.61  2963.61  3020.86  3021.02  3022.07
eigval :     3022.54  3023.41  3024.03  3028.19  3028.69  3035.40
eigval :     3036.13  3043.45  3044.25
 reduced masses (amu)
   1: 10.08   2:  9.59   3:  9.57   4:  9.24   5:  9.82   6:  9.00   7:  8.15   8:  6.93
   9:  8.08  10:  1.98  11:  1.56  12:  1.98  13:  2.26  14:  7.63  15:  7.87  16:  7.41
  17:  8.02  18:  8.68  19:  6.49  20:  7.73  21:  6.44  22:  5.76  23:  2.75  24:  2.79
  25:  6.53  26:  3.88  27:  3.91  28:  5.52  29:  4.17  30:  8.10  31:  7.65  32:  6.31
  33:  6.60  34:  6.85  35:  4.60  36:  3.17  37:  3.99  38:  5.03  39:  4.38  40:  5.23
  41:  3.34  42:  3.34  43:  3.11  44:  3.08  45:  1.88  46:  1.60  47:  1.56  48:  1.64
  49:  1.54  50:  1.60  51:  1.59  52:  1.54  53:  1.52  54:  1.74  55:  1.75  56:  1.98
  57:  1.48  58:  1.92  59:  1.92  60:  1.95  61:  1.94  62:  1.93  63:  1.92  64:  1.78
  65:  1.77  66:  1.27  67:  1.28  68:  1.42  69:  1.43
 IR intensities (km·mol⁻¹)
   1:  0.00   2:  0.00   3:  0.00   4:  0.00   5:  0.00   6:  0.00   7:  0.00   8:  0.15
   9:  0.17  10:  0.05  11:  0.02  12:  0.01  13:  0.04  14:  0.01  15:  0.38  16:  0.49
  17:  0.65  18:  0.01  19:  2.65  20:  1.65  21:  2.19  22:  1.72  23:  3.85  24:  1.61
  25:  0.37  26:  0.03  27:  0.00  28:  7.18  29:  0.00  30:  2.81  31:  4.11  32:  0.31
  33: 11.73  34:  9.31  35:  3.50  36:  5.66  37:  0.44  38:  8.83  39: 15.07  40:  4.32
  41:  0.86  42:  1.42  43:  0.08  44:  1.00  45:  0.76  46:  0.39  47:  0.07  48:  0.01
  49:  0.54  50:  1.46  51:  0.04  52:  1.37  53:  0.72  54: 49.84  55: 50.72  56:164.45
  57: 75.56  58: 28.38  59:  0.31  60: 16.46  61:142.39  62: 70.93  63:161.35  64:221.80
  65:  3.93  66:100.60  67: 43.04  68: 63.24  69: 17.81
 Raman intensities (Ä⁴*amu⁻¹)
   1:  0.00   2:  0.00   3:  0.00   4:  0.00   5:  0.00   6:  0.00   7:  0.00   8:  0.00
   9:  0.00  10:  0.00  11:  0.00  12:  0.00  13:  0.00  14:  0.00  15:  0.00  16:  0.00
  17:  0.00  18:  0.00  19:  0.00  20:  0.00  21:  0.00  22:  0.00  23:  0.00  24:  0.00
  25:  0.00  26:  0.00  27:  0.00  28:  0.00  29:  0.00  30:  0.00  31:  0.00  32:  0.00
  33:  0.00  34:  0.00  35:  0.00  36:  0.00  37:  0.00  38:  0.00  39:  0.00  40:  0.00
  41:  0.00  42:  0.00  43:  0.00  44:  0.00  45:  0.00  46:  0.00  47:  0.00  48:  0.00
  49:  0.00  50:  0.00  51:  0.00  52:  0.00  53:  0.00  54:  0.00  55:  0.00  56:  0.00
  57:  0.00  58:  0.00  59:  0.00  60:  0.00  61:  0.00  62:  0.00  63:  0.00  64:  0.00
  65:  0.00  66:  0.00  67:  0.00  68:  0.00  69:  0.00
 output can be read by thermo (or use thermo option).
 writing <g98.out> molden fake output.
 recommended (thermochemical) frequency scaling factor: 1.0
           -------------------------------------------------
          |             Thermodynamic Functions             |
           -------------------------------------------------

Molecule has the following symmetry elements: (C2) 
It seems to be the C2 point group
c2  symmetry found (for desy threshold:  0.10E+00) used in thermo

          ...................................................
          :                      SETUP                      :
          :.................................................:
          :  # frequencies                          63      :
          :  # imaginary freq.                       0      :
          :  linear?                             false      :
          :  only rotor calc.                    false      :
          :  symmetry                               c2      :
          :  rotational number                       2      :
          :  scaling factor                  1.0000000      :
          :  rotor cutoff                    0.0000000 cm⁻¹ :
          :  imag. cutoff                 -100.0000000 cm⁻¹ :
          :.................................................:

    mode    ω/cm⁻¹     T·S(HO)/kcal·mol⁻¹    T·S(FR)/kcal·mol⁻¹   T·S(vib)
   ------------------------------------------------------------------------
       1     49.80    -1.43872 (100.00%)    -1.05742 (  0.00%)    -1.43872
       2     98.69    -1.03759 (100.00%)    -0.85495 (  0.00%)    -1.03759
       3    175.13    -0.70950 (100.00%)    -0.68511 (  0.00%)    -0.70950
       4    209.97    -0.60939 (100.00%)    -0.63137 (  0.00%)    -0.60939
       5    210.31    -0.60852 (100.00%)    -0.63090 (  0.00%)    -0.60852
       6    226.10    -0.56939 (100.00%)    -0.60947 (  0.00%)    -0.56939
       7    240.61    -0.53618 (100.00%)    -0.59103 (  0.00%)    -0.53618
   ------------------------------------------------------------------------

   temp. (K)  partition function   enthalpy   heat capacity  entropy
                                   cal/mol     cal/K/mol   cal/K/mol   J/K/mol
 298.15  VIB   363.                 4292.901     29.203     26.112
         ROT  0.158E+06              888.752      2.981     26.773
         INT  0.575E+08             5181.653     32.184     52.886
         TR   0.970E+27             1481.254      4.968     39.706
         TOT                        6662.9070    37.1517    92.5918   387.4041

       T/K    H(0)-H(T)+PV         H(T)/Eh          T*S/Eh         G(T)/Eh
   ------------------------------------------------------------------------
    298.15    0.106180E-01    0.225309E+00    0.439933E-01    0.181315E+00
   ------------------------------------------------------------------------

         :::::::::::::::::::::::::::::::::::::::::::::::::::::
         ::                  THERMODYNAMIC                  ::
         :::::::::::::::::::::::::::::::::::::::::::::::::::::
         :: total free energy         -22.979856431783 Eh   ::
         ::.................................................::
         :: total energy              -23.161171926923 Eh   ::
         :: zero point energy           0.214690824341 Eh   ::
         :: G(RRHO) w/o ZPVE           -0.033375329201 Eh   ::
         :: G(RRHO) contrib.            0.181315495140 Eh   ::
         :::::::::::::::::::::::::::::::::::::::::::::::::::::

optimized geometry written to: xtbopt.coord


           -------------------------------------------------
          | TOTAL ENERGY              -23.161171926923 Eh   |
          | TOTAL ENTHALPY            -22.935863084342 Eh   |
          | TOTAL FREE ENERGY         -22.979856431783 Eh   |
          | GRADIENT NORM               0.000064707006 Eh/α |
          | HOMO-LUMO GAP              12.922759263815 eV   |
           -------------------------------------------------

------------------------------------------------------------------------
 * finished run on 2025/04/11 at 12:38:13.333     
------------------------------------------------------------------------
 total:
 * wall-time:     0 d,  0 h,  0 min,  1.829 sec
 *  cpu-time:     0 d,  0 h,  0 min,  1.735 sec
 * ratio c/w:     0.948 speedup
 SCF:
 * wall-time:     0 d,  0 h,  0 min,  0.032 sec
 *  cpu-time:     0 d,  0 h,  0 min,  0.015 sec
 * ratio c/w:     0.476 speedup
 ANC optimizer:
 * wall-time:     0 d,  0 h,  0 min,  0.283 sec
 *  cpu-time:     0 d,  0 h,  0 min,  0.266 sec
 * ratio c/w:     0.943 speedup
 analytical hessian:
 * wall-time:     0 d,  0 h,  0 min,  1.454 sec
 *  cpu-time:     0 d,  0 h,  0 min,  1.440 sec
 * ratio c/w:     0.990 speedup

