 Entering Gaussian System
 *********************************************
 Gaussian 98:
 frequency output generated by the xtb code
 *********************************************
                         Standard orientation:
 --------------------------------------------------------------------
  Center     Atomic     Atomic              Coordinates (Angstroms)
  Number     Number      Type              X           Y           Z
 --------------------------------------------------------------------
    1          6             0       -2.470970    0.000606    1.292556
    2          8             0       -1.061324   -0.000597    0.963749
    3          6             0       -0.744077   -0.000071   -0.314777
    4          6             0        0.772230   -0.000094   -0.535427
    5         17             0        1.447406    1.454931    0.205353
    6         17             0        1.447535   -1.454882    0.205678
    7          9             0       -1.286569   -1.071292   -0.996939
    8          9             0       -1.286476    1.071529   -0.996201
    9          1             0       -2.492660   -0.003753    2.376868
   10          1             0       -2.946419   -0.892636    0.888489
   11          1             0       -2.943008    0.898880    0.895697
   12          1             0        1.001652   -0.000197   -1.603465
 --------------------------------------------------------------------
     1 basis functions        1 primitive gaussians
     1 alpha electrons        1 beta electrons
 
 Harmonic frequencies (cm**-1), IR intensities (km*mol⁻¹),
 Raman scattering activities (A**4/amu), Raman depolarization ratios,
 reduced masses (AMU), force constants (mDyne/A) and normal coordinates:
                      1                      2                      3
                        a                      a                      a 
 Frequencies --    46.7784                90.8963               134.2049
 Red. masses --    24.1787                10.9564                17.5032
 Frc consts  --     0.0000                 0.0000                 0.0000
 IR Inten    --     1.1141                 3.7948                 1.2584
 Raman Activ --     0.0000                 0.0000                 0.0000
 Depolar     --     0.0000                 0.0000                 0.0000
 Atom AN      X      Y      Z        X      Y      Z        X      Y      Z
   1   6     0.00   0.27  -0.00    -0.00  -0.50  -0.00     0.00  -0.11   0.00
   2   8     0.00   0.33   0.00     0.00   0.28   0.00     0.00   0.02  -0.00
   3   6     0.00   0.00   0.00    -0.00   0.11   0.00     0.00   0.06  -0.00
   4   6     0.00   0.08  -0.00    -0.00   0.07   0.00     0.00   0.16  -0.00
   5  17    -0.08  -0.06   0.45     0.27  -0.00  -0.03     0.40   0.07   0.00
   6  17     0.08  -0.06  -0.45    -0.27  -0.00   0.03    -0.41   0.07  -0.00
   7   9     0.10  -0.25   0.32     0.03   0.06   0.13     0.31  -0.15   0.06
   8   9    -0.10  -0.25  -0.32    -0.03   0.06  -0.13    -0.31  -0.15  -0.07
   9   1     0.00   0.17   0.00     0.00   0.14   0.00     0.00  -0.40  -0.00
  10   1     0.02   0.03   0.07     0.20  -0.36   0.24    -0.05   0.13  -0.30
  11   1    -0.02   0.03  -0.07    -0.20  -0.35  -0.24     0.05   0.13   0.30
  12   1    -0.00   0.08  -0.00    -0.00   0.01   0.00     0.00   0.04  -0.00
                      4                      5                      6
                        a                      a                      a 
 Frequencies --   138.9467               173.4557               213.9685
 Red. masses --    18.8323                13.3239                27.9875
 Frc consts  --     0.0000                 0.0000                 0.0000
 IR Inten    --     1.8874                10.7362                 0.8984
 Raman Activ --     0.0000                 0.0000                 0.0000
 Depolar     --     0.0000                 0.0000                 0.0000
 Atom AN      X      Y      Z        X      Y      Z        X      Y      Z
   1   6    -0.44   0.00  -0.30     0.00   0.29  -0.00     0.00  -0.00  -0.18
   2   8    -0.36  -0.00   0.17     0.00  -0.35   0.00     0.08   0.00   0.13
   3   6    -0.07   0.00   0.21     0.00  -0.06  -0.00     0.16   0.00   0.13
   4   6    -0.07   0.00   0.12     0.00   0.10  -0.00     0.12  -0.00   0.09
   5  17     0.34  -0.02  -0.18     0.21   0.07   0.01    -0.32   0.42  -0.17
   6  17     0.34   0.02  -0.18    -0.21   0.07  -0.01    -0.32  -0.42  -0.17
   7   9    -0.01  -0.01   0.20     0.30  -0.12  -0.25     0.28  -0.04   0.19
   8   9    -0.01   0.01   0.20    -0.30  -0.12   0.26     0.28   0.04   0.19
   9   1    -0.23  -0.00  -0.09     0.00   0.43   0.00    -0.07  -0.00  -0.05
  10   1    -0.09   0.00  -0.13    -0.04  -0.02   0.28     0.03   0.00  -0.09
  11   1    -0.09   0.00  -0.13     0.04  -0.02  -0.28     0.03  -0.00  -0.08
  12   1    -0.09   0.00   0.02     0.00   0.03  -0.00     0.03  -0.00   0.02
                      7                      8                      9
                        a                      a                      a 
 Frequencies --   279.4696               321.0570               348.1346
 Red. masses --    15.3817                22.9957                26.9213
 Frc consts  --     0.0000                 0.0000                 0.0000
 IR Inten    --    22.2196                12.8968                25.3212
 Raman Activ --     0.0000                 0.0000                 0.0000
 Depolar     --     0.0000                 0.0000                 0.0000
 Atom AN      X      Y      Z        X      Y      Z        X      Y      Z
   1   6    -0.21   0.00   0.51    -0.00   0.03   0.00    -0.09   0.00   0.10
   2   8    -0.35  -0.00  -0.02     0.00   0.38   0.00    -0.09   0.00   0.07
   3   6    -0.10  -0.00   0.04    -0.00   0.17  -0.00     0.02   0.00   0.07
   4   6    -0.04   0.00   0.22     0.00  -0.05   0.00    -0.10  -0.00  -0.15
   5  17     0.08   0.22  -0.08    -0.25  -0.27  -0.11    -0.21  -0.46  -0.09
   6  17     0.08  -0.22  -0.08     0.25  -0.27   0.11    -0.21   0.46  -0.09
   7   9     0.21   0.01  -0.27     0.46   0.15  -0.17     0.41  -0.16   0.08
   8   9     0.21  -0.01  -0.27    -0.46   0.15   0.16     0.41   0.16   0.08
   9   1     0.09   0.00   0.15     0.00  -0.03  -0.00    -0.01   0.00   0.03
  10   1    -0.11  -0.00   0.21     0.06  -0.01  -0.03    -0.03  -0.00   0.04
  11   1    -0.11   0.00   0.21    -0.06  -0.01   0.03    -0.03   0.00   0.04
  12   1    -0.04   0.00   0.06     0.00  -0.06   0.00    -0.08  -0.00  -0.06
                     10                     11                     12
                        a                      a                      a 
 Frequencies --   489.3193               509.9798               620.3531
 Red. masses --    17.9591                17.7982                12.9184
 Frc consts  --     0.0000                 0.0000                 0.0000
 IR Inten    --     8.5785                 0.0071                14.6781
 Raman Activ --     0.0000                 0.0000                 0.0000
 Depolar     --     0.0000                 0.0000                 0.0000
 Atom AN      X      Y      Z        X      Y      Z        X      Y      Z
   1   6    -0.03  -0.00   0.03    -0.00   0.04   0.00    -0.30   0.00   0.13
   2   8    -0.14  -0.00  -0.38     0.00   0.54  -0.00    -0.20  -0.00  -0.14
   3   6    -0.09   0.00  -0.31    -0.00  -0.26  -0.00     0.30  -0.00  -0.10
   4   6     0.04   0.00  -0.12     0.00  -0.14  -0.00     0.46  -0.00  -0.44
   5  17     0.08   0.13   0.06     0.08   0.11   0.06    -0.04  -0.01   0.03
   6  17     0.08  -0.13   0.06    -0.08   0.11  -0.06    -0.04   0.01   0.03
   7   9    -0.02  -0.51   0.23    -0.16  -0.25  -0.43    -0.03   0.28   0.17
   8   9    -0.02   0.51   0.23     0.16  -0.25   0.43    -0.03  -0.28   0.17
   9   1     0.11  -0.00   0.01     0.00  -0.05  -0.00     0.05   0.00   0.04
  10   1    -0.05  -0.00   0.06     0.09  -0.02  -0.04    -0.12  -0.00   0.09
  11   1    -0.05   0.00   0.06    -0.09  -0.02   0.04    -0.12   0.00   0.09
  12   1     0.08  -0.00  -0.02     0.00  -0.01  -0.00     0.17  -0.00  -0.12
                     13                     14                     15
                        a                      a                      a 
 Frequencies --   719.3150               729.0684               808.0479
 Red. masses --    14.9884                15.0444                14.7098
 Frc consts  --     0.0000                 0.0000                 0.0000
 IR Inten    --     1.2425                 9.6833                18.8714
 Raman Activ --     0.0000                 0.0000                 0.0000
 Depolar     --     0.0000                 0.0000                 0.0000
 Atom AN      X      Y      Z        X      Y      Z        X      Y      Z
   1   6    -0.00   0.01   0.00     0.10  -0.00  -0.06    -0.21   0.00   0.12
   2   8     0.00   0.04   0.00    -0.10   0.00  -0.34     0.15  -0.00   0.32
   3   6     0.00   0.04   0.00     0.11   0.00  -0.13     0.16   0.00   0.15
   4   6     0.00   0.86  -0.00     0.22   0.00   0.70     0.52  -0.00   0.12
   5  17    -0.07  -0.20  -0.12    -0.08  -0.19  -0.16    -0.06  -0.09  -0.06
   6  17     0.07  -0.20   0.12    -0.08   0.19  -0.16    -0.06   0.09  -0.06
   7   9    -0.15  -0.12  -0.09    -0.05   0.11   0.14    -0.18  -0.32  -0.21
   8   9     0.15  -0.12   0.09    -0.05  -0.11   0.14    -0.18   0.32  -0.21
   9   1    -0.00  -0.01  -0.00     0.16  -0.00  -0.01    -0.19   0.00   0.03
  10   1     0.01  -0.00  -0.00    -0.02  -0.00   0.04     0.01   0.00  -0.04
  11   1    -0.01  -0.00   0.00    -0.02   0.00   0.04     0.01  -0.00  -0.04
  12   1     0.00   0.21  -0.00     0.15   0.00   0.21     0.23  -0.00   0.05
                     16                     17                     18
                        a                      a                      a 
 Frequencies --   863.5466               973.4142              1008.1441
 Red. masses --    13.1872                10.4629                12.4187
 Frc consts  --     0.0000                 0.0000                 0.0000
 IR Inten    --   253.3946               213.5254                68.9533
 Raman Activ --     0.0000                 0.0000                 0.0000
 Depolar     --     0.0000                 0.0000                 0.0000
 Atom AN      X      Y      Z        X      Y      Z        X      Y      Z
   1   6    -0.00  -0.00   0.00    -0.29   0.00   0.19     0.49   0.00  -0.09
   2   8     0.00   0.09   0.00     0.35  -0.00   0.12    -0.51   0.00   0.30
   3   6    -0.00  -0.89  -0.00    -0.37   0.00  -0.54    -0.43   0.00  -0.10
   4   6     0.00   0.14   0.00    -0.07  -0.00   0.07     0.29   0.00  -0.11
   5  17     0.02  -0.01  -0.01     0.02  -0.00  -0.02    -0.00  -0.01  -0.01
   6  17    -0.02  -0.01   0.01     0.02   0.00  -0.02    -0.00   0.01  -0.01
   7   9     0.11   0.25   0.11     0.10   0.12   0.09     0.05   0.03   0.01
   8   9    -0.11   0.25  -0.11     0.10  -0.12   0.09     0.05  -0.03   0.01
   9   1    -0.00   0.01   0.00    -0.33   0.00   0.04    -0.02  -0.00  -0.02
  10   1    -0.02   0.01  -0.00     0.03   0.00  -0.07     0.08   0.01  -0.03
  11   1     0.02   0.01   0.00     0.03  -0.00  -0.07     0.08  -0.01  -0.03
  12   1     0.00   0.08   0.00     0.32  -0.00   0.10     0.28  -0.00   0.01
                     19                     20                     21
                        a                      a                      a 
 Frequencies --  1111.9808              1117.6792              1130.8338
 Red. masses --     3.6794                 2.1301                 4.5825
 Frc consts  --     0.0000                 0.0000                 0.0000
 IR Inten    --     0.1942                23.8646                 3.5828
 Raman Activ --     0.0000                 0.0000                 0.0000
 Depolar     --     0.0000                 0.0000                 0.0000
 Atom AN      X      Y      Z        X      Y      Z        X      Y      Z
   1   6    -0.00   0.41  -0.00    -0.00   0.04   0.00     0.17   0.00   0.32
   2   8     0.00  -0.23   0.00     0.00  -0.02   0.00    -0.15  -0.00  -0.28
   3   6     0.00  -0.04  -0.00     0.00  -0.05   0.00     0.06  -0.00  -0.05
   4   6    -0.00  -0.02   0.00    -0.00   0.26  -0.00     0.20   0.00   0.05
   5  17     0.00  -0.00  -0.01     0.00   0.02   0.07    -0.01   0.00   0.01
   6  17    -0.00  -0.00   0.01    -0.00   0.02  -0.07    -0.01  -0.00   0.01
   7   9     0.01   0.02   0.02    -0.01   0.00   0.00    -0.01   0.02   0.03
   8   9    -0.01   0.02  -0.02     0.01   0.00  -0.00    -0.01  -0.02   0.03
   9   1     0.00  -0.25  -0.00     0.00  -0.02  -0.00    -0.56  -0.00   0.06
  10   1     0.56  -0.16  -0.09     0.05  -0.01  -0.01     0.20   0.04  -0.21
  11   1    -0.57  -0.16   0.09    -0.05  -0.01   0.01     0.19  -0.04  -0.21
  12   1     0.00   0.09   0.00    -0.00  -0.95   0.00    -0.46   0.00  -0.11
                     22                     23                     24
                        a                      a                      a 
 Frequencies --  1176.1199              1219.4175              1373.0074
 Red. masses --     7.6744                11.4405                 2.6205
 Frc consts  --     0.0000                 0.0000                 0.0000
 IR Inten    --    79.8157               254.0649                16.6598
 Raman Activ --     0.0000                 0.0000                 0.0000
 Depolar     --     0.0000                 0.0000                 0.0000
 Atom AN      X      Y      Z        X      Y      Z        X      Y      Z
   1   6     0.15  -0.00   0.15    -0.07   0.00   0.08    -0.28  -0.00   0.15
   2   8    -0.24   0.00  -0.04     0.16  -0.00  -0.48    -0.13   0.00   0.09
   3   6     0.50  -0.00   0.04    -0.42  -0.00   0.62     0.04   0.00  -0.10
   4   6    -0.47   0.00  -0.06     0.07   0.00  -0.11    -0.01   0.00   0.01
   5  17     0.02  -0.00  -0.02    -0.00  -0.00  -0.01     0.00   0.00   0.00
   6  17     0.02   0.00  -0.02    -0.00   0.00  -0.01     0.00  -0.00   0.00
   7   9    -0.04  -0.03  -0.01     0.04   0.03   0.01    -0.00  -0.00   0.00
   8   9    -0.04   0.03  -0.01     0.04  -0.03   0.01    -0.00   0.00   0.00
   9   1    -0.26   0.00   0.03    -0.02  -0.00   0.01     0.53  -0.00   0.03
  10   1     0.08   0.03  -0.09     0.09  -0.00  -0.09     0.43  -0.10  -0.30
  11   1     0.08  -0.03  -0.09     0.08   0.00  -0.09     0.43   0.10  -0.30
  12   1     0.55   0.00   0.14     0.34   0.00   0.05    -0.02  -0.00  -0.00
                     25                     26                     27
                        a                      a                      a 
 Frequencies --  1426.3944              1435.8715              2953.7088
 Red. masses --     1.5090                 1.6107                 1.7980
 Frc consts  --     0.0000                 0.0000                 0.0000
 IR Inten    --    18.1521                12.4681                15.9744
 Raman Activ --     0.0000                 0.0000                 0.0000
 Depolar     --     0.0000                 0.0000                 0.0000
 Atom AN      X      Y      Z        X      Y      Z        X      Y      Z
   1   6     0.00   0.21   0.00    -0.10   0.00  -0.20    -0.00  -0.00   0.00
   2   8     0.00   0.04   0.00    -0.03   0.00  -0.04     0.00  -0.00  -0.00
   3   6     0.00   0.00  -0.00     0.01  -0.00   0.02    -0.00  -0.00   0.01
   4   6    -0.00  -0.00   0.00    -0.00   0.00  -0.00    -0.07   0.00   0.26
   5  17    -0.00  -0.00  -0.00    -0.00   0.00  -0.00     0.00   0.00   0.00
   6  17     0.00  -0.00   0.00    -0.00  -0.00  -0.00     0.00  -0.00   0.00
   7   9     0.00  -0.00  -0.00    -0.00   0.00   0.00     0.00  -0.00  -0.00
   8   9    -0.00  -0.00   0.00    -0.00  -0.00   0.00     0.00   0.00  -0.00
   9   1    -0.00  -0.71  -0.00    -0.25   0.00  -0.03     0.00  -0.00   0.00
  10   1    -0.18  -0.08   0.43     0.35  -0.38   0.41    -0.00  -0.00  -0.00
  11   1     0.18  -0.08  -0.43     0.35   0.38   0.42    -0.00   0.00  -0.00
  12   1    -0.00   0.00   0.00     0.01  -0.00   0.00     0.22  -0.00  -0.94
                     28                     29                     30
                        a                      a                      a 
 Frequencies --  2997.2702              2999.2165              3062.3281
 Red. masses --     1.3707                 1.9901                 1.8182
 Frc consts  --     0.0000                 0.0000                 0.0000
 IR Inten    --    10.7360                 7.6931                 0.3190
 Raman Activ --     0.0000                 0.0000                 0.0000
 Depolar     --     0.0000                 0.0000                 0.0000
 Atom AN      X      Y      Z        X      Y      Z        X      Y      Z
   1   6    -0.15   0.01  -0.10    -0.01  -0.30  -0.00     0.01  -0.00   0.27
   2   8    -0.01   0.00   0.00    -0.00  -0.00   0.00    -0.00  -0.00   0.00
   3   6    -0.00   0.00  -0.00    -0.00   0.00  -0.00     0.00  -0.00   0.00
   4   6    -0.00   0.00   0.00    -0.00  -0.00   0.00    -0.00   0.00   0.00
   5  17     0.00   0.00   0.00    -0.00  -0.00   0.00    -0.00   0.00   0.00
   6  17     0.00  -0.00   0.00     0.00  -0.00  -0.00    -0.00  -0.00   0.00
   7   9     0.00   0.00   0.00     0.00   0.00   0.00    -0.00  -0.00  -0.00
   8   9     0.00  -0.00   0.00    -0.00   0.00  -0.00    -0.00   0.00  -0.00
   9   1    -0.01   0.00  -0.12    -0.00  -0.04  -0.00     0.02   0.00  -0.96
  10   1     0.27   0.56   0.24     0.31   0.56   0.28    -0.03  -0.07   0.00
  11   1     0.29  -0.60   0.25    -0.29   0.53  -0.25    -0.03   0.06   0.00
  12   1     0.00   0.00  -0.00     0.00   0.00  -0.00     0.00  -0.00  -0.00
