15
 energy: -18.188026507587 gnorm: 0.041573623801 xtb: 6.7.1 (edcfbbe)
C           -2.07665496733242        0.70611225949694        0.56962997647451
C           -1.36562700455097        0.26063250807755       -0.70557920570972
C           -0.55288896582029       -1.02266955030400       -0.53974594972950
C            0.55163848194988       -0.93460995110349        0.53223196459095
C            1.47324902143893        0.15438728788416        0.27919483037541
N            2.19778157860344        1.03106777357802        0.05693350867064
H           -2.70245147683337       -0.09895795533777        0.97197322630073
H           -1.36513011311069        1.00006681336944        1.34874656119137
H           -2.72210101124120        1.56825270788587        0.37465794675294
H           -2.10443419791711        0.09160432440702       -1.49732739819059
H           -0.70925130810102        1.06503252364497       -1.06310040762141
H           -0.09276935796558       -1.29818825197540       -1.49415020766053
H           -1.21183787324453       -1.84656176086484       -0.24404773604160
H            0.12464969353970       -0.78507985742332        1.53003375369411
H            1.13040556302638       -1.86386557825630        0.56352047071026
15
 energy: -18.188935974651 gnorm: 0.013040821752 xtb: 6.7.1 (edcfbbe)
C           -2.07568074330664        0.69947358352247        0.56958877517231
C           -1.35974281788517        0.26091398368713       -0.70105751872289
C           -0.55202600619834       -1.02393372294526       -0.53080737015869
C            0.55283903264291       -0.92693526938183        0.53406195485843
C            1.46706334528821        0.15344725800791        0.27547334390460
N            2.18852362550446        1.01162478131778        0.05138009692976
H           -2.69821034594643       -0.10528922723452        0.96132505248793
H           -1.36564469489675        0.99781633973843        1.34016792801935
H           -2.71605995676139        1.55561121371694        0.36369602832621
H           -2.10087499834311        0.09309586236291       -1.48764152426989
H           -0.69969470619486        1.06477235415198       -1.04269167892822
H           -0.09606470300910       -1.28511242686502       -1.48893333022454
H           -1.21937251595268       -1.84059496883090       -0.24327171054097
H            0.12013210464883       -0.77175629738671        1.52595531870037
H            1.12939144285120       -1.85591017078246        0.55572596825382
15
 energy: -18.189014959817 gnorm: 0.003102894460 xtb: 6.7.1 (edcfbbe)
C           -2.07795462608521        0.69772786917565        0.57075931693306
C           -1.35687773121553        0.26236190987519       -0.69901829283090
C           -0.55113247946411       -1.02482062954102       -0.52911413912794
C            0.55262055255857       -0.92565637843656        0.53489512052626
C            1.46733985485412        0.14812988368015        0.26794880938254
N            2.18967379595092        1.00930145443287        0.04609723296513
H           -2.69758745641945       -0.10905431004089        0.95697409793808
H           -1.37099232389853        0.99767731036953        1.34081406830664
H           -2.71879319962773        1.55058670333333        0.36136170998159
H           -2.09515094861109        0.09715470612815       -1.48730025955131
H           -0.69336799538096        1.06500455226233       -1.03208399451862
H           -0.09647938864112       -1.28342696488287       -1.48791382578462
H           -1.22143947016489       -1.83765234650896       -0.24259336157346
H            0.11818417436066       -0.76465419634304        1.52412053568942
H            1.12653530422548       -1.85545627042501        0.55802431547169
15
 energy: -18.189027409278 gnorm: 0.005783259342 xtb: 6.7.1 (edcfbbe)
C           -2.08316734540187        0.69495589730522        0.57198130957421
C           -1.35409780903644        0.26531080932431       -0.69710318803317
C           -0.55015513960450       -1.02470784105440       -0.52823068389452
C            0.55236081303305       -0.92340079219572        0.53632175966034
C            1.46300131678509        0.15017155129536        0.26565447356095
N            2.20327032172390        0.99511344743936        0.03167561016329
H           -2.69922857046540       -0.11585034925248        0.95220561850971
H           -1.38088076094569        0.99712955264982        1.34403345249106
H           -2.72661212263389        1.54415826596727        0.35972170278437
H           -2.08709757634142        0.10482343094918       -1.49012665513018
H           -0.68639742113597        1.06753891772445       -1.01955559482412
H           -0.09564779113393       -1.28137501773988       -1.48721162386949
H           -1.22197830859514       -1.83537939214917       -0.24281966061284
H            0.11523635660925       -0.75832669601608        1.52299038923239
H            1.12597209958409       -1.85293849116838        0.56343442419557
15
 energy: -18.189062500101 gnorm: 0.004282027105 xtb: 6.7.1 (edcfbbe)
C           -2.08798811586489        0.69296234469406        0.57246912566159
C           -1.35144172922905        0.26847073851773       -0.69565700937962
C           -0.55021141435837       -1.02449459804191       -0.52730587075885
C            0.55380056859684       -0.92286802176168        0.53601787561337
C            1.47106814325061        0.14142277539631        0.25341737221167
N            2.20593705465188        0.99260484043151        0.02814825696550
H           -2.70131822288669       -0.12173105743081        0.94830741564725
H           -1.39019286090625        0.99722770680392        1.34762055051138
H           -2.73462099274451        1.53925642355799        0.35833227101381
H           -2.07965686812393        0.11291989510315       -1.49364282070381
H           -0.67991921080380        1.07046221917485       -1.00964766385971
H           -0.09719865319210       -1.28273131852796       -1.48640064630032
H           -1.22367701978241       -1.83278466219904       -0.24045857684544
H            0.11782998948728       -0.74806945147460        1.52144325047285
H            1.12216739434650       -1.85542454116468        0.57032780355789
15
 energy: -18.189083248546 gnorm: 0.002233872720 xtb: 6.7.1 (edcfbbe)
C           -2.09280351162449        0.69052995781850        0.57158339898655
C           -1.35017709282496        0.27086685722586       -0.69433453359453
C           -0.55056761628699       -1.02282969552086       -0.52647394969553
C            0.55475947289149       -0.92144302397150        0.53605954129905
C            1.47748277877266        0.13813432344937        0.24832349729881
N            2.21622529708289        0.98525388858780        0.02261525019345
H           -2.70470430576323       -0.12739695729613        0.94443735394077
H           -1.39891229629757        0.99591300837938        1.35057266634189
H           -2.74241629809445        1.53506363154333        0.35727817387468
H           -2.07462990574071        0.11929278257035       -1.49686315603709
H           -0.67684237721019        1.07410889802754       -1.00240559441106
H           -0.09820217393076       -1.28275111010274       -1.48560179090861
H           -1.22450739432839       -1.83087060541478       -0.23865590406822
H            0.12056426941293       -0.74024563388027        1.52144229564221
H            1.11930921638288       -1.85640302833698        0.57499408494519
15
 energy: -18.189121086442 gnorm: 0.001838730835 xtb: 6.7.1 (edcfbbe)
C           -2.11153448324338        0.68111934312785        0.56887109376544
C           -1.34557577215440        0.27985211176965       -0.68877542591741
C           -0.55054985660182       -1.01585693701171       -0.52283600236638
C            0.55814327599951       -0.91539329423410        0.53672868753077
C            1.49883521776076        0.12616001281401        0.23136018481396
N            2.25720972776040        0.95350917884401       -0.00133236874632
H           -2.71833763776467       -0.14800436806486        0.92838171709981
H           -1.43315782865822        0.98973942431227        1.36167270008038
H           -2.77054306501875        1.51883601048212        0.35304803282446
H           -2.05523327355253        0.14145960356665       -1.50787494258779
H           -0.66568794656273        1.08733689334676       -0.97383978394557
H           -0.10064677248680       -1.28033899005223       -1.48223160929786
H           -1.22622455544933       -1.82220758284614       -0.23197226952513
H            0.12910660141262       -0.71045429861639        1.52059820440430
H            1.10877443100042       -1.85853381435901        0.59117311567490
15
 energy: -18.189135688229 gnorm: 0.001611716425 xtb: 6.7.1 (edcfbbe)
C           -2.11745741033638        0.67844516313109        0.56759554715475
C           -1.34531684890439        0.28208290019175       -0.68654709196435
C           -0.54956913625404       -1.01257940757355       -0.52139491407878
C            0.55957814577446       -0.91308130697936        0.53706595707350
C            1.50560200969944        0.12224420468833        0.22943958719138
N            2.27073034939650        0.94138547341742       -0.00886119114397
H           -2.72457782389428       -0.15222755116320        0.92197605194572
H           -1.44378588179585        0.98525496997911        1.36459264011493
H           -2.77653535753503        1.51562226695738        0.35134858959801
H           -2.05085013115159        0.14532956771967       -1.50906012400164
H           -0.66603039655104        1.09135122268289       -0.96661046222916
H           -0.10046857927431       -1.27734433345607       -1.48113427485729
H           -1.22480250356573       -1.81920194967323       -0.22994138038290
H            0.13242240169311       -0.70184438800070        1.51998423453776
H            1.10563922514019       -1.85821353884267        0.59451816484958
15
 energy: -18.189148670134 gnorm: 0.000555705837 xtb: 6.7.1 (edcfbbe)
C           -2.12305683206747        0.67573755080001        0.56736233722406
C           -1.34495445528221        0.28445948407837       -0.68468842164198
C           -0.54779175751078       -1.00964850392229       -0.51996437584261
C            0.56093975256002       -0.91063838505025        0.53832996712024
C            1.51249090350474        0.11700094744067        0.22646801811119
N            2.28151460117637        0.93075431396924       -0.01857613347324
H           -2.73296055123116       -0.15553495767720        0.91403459099146
H           -1.45386762930238        0.97803723819117        1.36914301519861
H           -2.77941159193495        1.51437507191123        0.35060680881671
H           -2.04662677146288        0.14778949734113       -1.51006500488451
H           -0.66604903014241        1.09535295640944       -0.95965615620158
H           -0.09888436850485       -1.27313235201386       -1.48001422936079
H           -1.22269667962919       -1.81644383088316       -0.22904371193400
H            0.13426391413401       -0.69259297768831        1.51954964571564
H            1.10166855813416       -1.85829275982731        0.59948498396832
15
 energy: -18.189164074675 gnorm: 0.000702272382 xtb: 6.7.1 (edcfbbe)
C           -2.13222482357534        0.67158645823226        0.56658598888917
C           -1.34408808384509        0.28796160930896       -0.68151989425943
C           -0.54489127541963       -1.00528552736451       -0.51810961959349
C            0.56326287045751       -0.90727790723113        0.54070546572922
C            1.52420769723996        0.10871837374187        0.22066489210227
N            2.29729698261316        0.91516574458305       -0.03598216503193
H           -2.74833981778666       -0.16051806481056        0.89995304381782
H           -1.46966100055196        0.96410510812862        1.37736348739568
H           -2.78332026545238        1.51455048605588        0.35088630700391
H           -2.04011228054457        0.15311662875533       -1.51194969214165
H           -0.66560282812919        1.10181122656135       -0.94835218698019
H           -0.09528194254976       -1.26694419657391       -1.47832045687638
H           -1.21925112986017       -1.81296480267999       -0.22853844283793
H            0.13744129450049       -0.67733259553629        1.51953022344580
H            1.09514266534465       -1.85946924809207        0.61005438314463
15
 energy: -18.189176697749 gnorm: 0.001496052650 xtb: 6.7.1 (edcfbbe)
C           -2.14355020503547        0.66518307694424        0.56585721107820
C           -1.34148011344924        0.29295992422010       -0.67754707327173
C           -0.54217511438108       -1.00070046388671       -0.51540186648322
C            0.56556864943403       -0.90288974749102        0.54411818232454
C            1.53677302373610        0.09913291524882        0.21068836094692
N            2.31539938276672        0.89567859834760       -0.06091937105808
H           -2.76824623478482       -0.16782249650987        0.88118204011388
H           -1.49020282071786        0.94482161183766        1.38891443087230
H           -2.78755461695811        1.51403625229964        0.35161829241486
H           -2.02917389487634        0.16332786699276       -1.51604862123683
H           -0.66112925358046        1.10979667522516       -0.93125724597093
H           -0.09129592110852       -1.26005180790831       -1.47558205932305
H           -1.21646246722047       -1.80910757608971       -0.22803858926369
H            0.14108188638332       -0.65707689727483        1.51982646567353
H            1.08702576223319       -1.86006463887663        0.62556117699080
15
 energy: -18.189182341479 gnorm: 0.000890941268 xtb: 6.7.1 (edcfbbe)
C           -2.15559919697936        0.65928503230686        0.56442631914989
C           -1.33854662443702        0.29779137744897       -0.67266208217819
C           -0.53956567474429       -0.99648836024216       -0.51265717791268
C            0.56835687627521       -0.89868150018178        0.54704706405582
C            1.54937492396473        0.08929453650264        0.19917399157980
N            2.33286250912232        0.87608715590516       -0.08541140236568
H           -2.78836241876276       -0.17496054619135        0.86062207981190
H           -1.51202944394758        0.92484825668043        1.40006395929381
H           -2.79283477885238        1.51416871180684        0.35265089113942
H           -2.01704662014707        0.17549060698844       -1.51991290265168
H           -0.65579423694779        1.11721050495863       -0.91176587388228
H           -0.08785297797216       -1.25513972567096       -1.47270160168898
H           -1.21418281024557       -1.80495951623856       -0.22648083062919
H            0.14603782396408       -0.63645081864603        1.51962699099874
H            1.07976071215060       -1.86027242234823        0.64095190908679
15
 energy: -18.189184723779 gnorm: 0.000623645460 xtb: 6.7.1 (edcfbbe)
C           -2.15798520574660        0.65749674675208        0.56368848104566
C           -1.33769411575310        0.29911422090830       -0.67182308766279
C           -0.53985658022076       -0.99569779246996       -0.51150478666702
C            0.56887337579823       -0.89746726099371        0.54757607972601
C            1.55092467360209        0.08834545050891        0.19692919499457
N            2.33714732621144        0.87145547787886       -0.09042998155624
H           -2.79271691640638       -0.17650124844523        0.85552623882903
H           -1.51697055150127        0.91960299855211        1.40210275759653
H           -2.79352113414271        1.51389405930245        0.35278952905491
H           -2.01374750666686        0.17926349298208       -1.52119894236985
H           -0.65401474376484        1.11870861468588       -0.90722624097056
H           -0.08841491895689       -1.25495052523633       -1.47154291128674
H           -1.21461383423228       -1.80407499875948       -0.22499633784258
H            0.14788153996728       -0.63292503249142        1.51974896006297
H            1.07928665425360       -1.85904091009564        0.64333238085360
15
 energy: -18.189186551688 gnorm: 0.000668935990 xtb: 6.7.1 (edcfbbe)
C           -2.16135507670744        0.65560016567127        0.56267137287198
C           -1.33650896248040        0.30065647950571       -0.67027812409274
C           -0.54016191871169       -0.99476064088967       -0.50999888270117
C            0.56997501086784       -0.89599456777005        0.54742312105126
C            1.55329888561357        0.08710936082803        0.19345234003575
N            2.34257439473056        0.86617807375544       -0.09516969248972
H           -2.79871322987856       -0.17832475727126        0.84819476666415
H           -1.52396252075209        0.91304825292389        1.40499956882515
H           -2.79461769049998        1.51380452714468        0.35265350041838
H           -2.00881754191263        0.18383020736036       -1.52279846713988
H           -0.65134431047398        1.12023277008694       -0.90056348813575
H           -0.09020366406422       -1.25624191128194       -1.47016856168772
H           -1.21541882913415       -1.80200651006871       -0.22137469989337
H            0.15078059920772       -0.62795665846045        1.51928618446775
H            1.07905291663640       -1.85795149845535        0.64464239561342
15
 energy: -18.189186974553 gnorm: 0.000531822087 xtb: 6.7.1 (edcfbbe)
C           -2.16564783589685        0.65374772076625        0.56174658553146
C           -1.33560170968917        0.30229960425096       -0.66871929336248
C           -0.53985262917499       -0.99348785095855       -0.50851841452381
C            0.57128371015770       -0.89444113710387        0.54768349835744
C            1.55711417640155        0.08507735513833        0.19020210838776
N            2.34987295729630        0.85996826819463       -0.10140400816916
H           -2.80603180836380       -0.18037975553959        0.84056259712387
H           -1.53172679705656        0.90601779897706        1.40845911063211
H           -2.79616988392565        1.51416921704903        0.35242534286671
H           -2.00450762713414        0.18787962232889       -1.52425607177310
H           -0.64953236183906        1.12259188274792       -0.89400491887350
H           -0.09099790940633       -1.25624797862501       -1.46886250105448
H           -1.21539069159865       -1.80000516875136       -0.21852287079284
H            0.15354381177447       -0.62253914182456        1.51915503941698
H            1.07822266089611       -1.85742714357123        0.64702513004052
15
 energy: -18.189187342459 gnorm: 0.000214376979 xtb: 6.7.1 (edcfbbe)
C           -2.16596937065587        0.65398347237167        0.56150406871486
C           -1.33568293148573        0.30225522012283       -0.66873343187518
C           -0.53996839700935       -0.99362280819118       -0.50814700881354
C            0.57186902988127       -0.89469971086860        0.54728159401337
C            1.55754379258496        0.08503020659408        0.19011890319338
N            2.34961731038004        0.86079658588223       -0.10027868812813
H           -2.80698120588446       -0.17960363923233        0.84002432709746
H           -1.53213297424323        0.90553027110937        1.40835587741404
H           -2.79571534568197        1.51491082707723        0.35215332145014
H           -2.00459988090693        0.18766922833552       -1.52419476699052
H           -0.64971195197429        1.12257241807474       -0.89408910721674
H           -0.09183965841237       -1.25676851400759       -1.46869172169237
H           -1.21557983530652       -1.79981974709642       -0.21745416764488
H            0.15467540578809       -0.62335818959782        1.51911180724503
H            1.07905407536731       -1.85765232749481        0.64601032704056
15
 energy: -18.189187499852 gnorm: 0.000229779649 xtb: 6.7.1 (edcfbbe)
C           -2.16584392102063        0.65433767885032        0.56151188328022
C           -1.33575798887326        0.30203368359834       -0.66872725424352
C           -0.54002012648256       -0.99387720712111       -0.50805585225056
C            0.57210395208769       -0.89491348540819        0.54704793788159
C            1.55729471768832        0.08537139308532        0.19028202582303
N            2.34879314294488        0.86192756210820       -0.09950479698887
H           -2.80777129565960       -0.17865196860060        0.83957265496906
H           -1.53199072964934        0.90507362257185        1.40854863589457
H           -2.79471104539974        1.51589342933114        0.35215714966255
H           -2.00473164957105        0.18705060242857       -1.52411188384275
H           -0.64980157392448        1.12221311058061       -0.89445299661264
H           -0.09229390623825       -1.25726362746781       -1.46871443336850
H           -1.21564789865588       -1.79985250532334       -0.21686262970261
H            0.15524590224443       -0.62439529822668        1.51928767018221
H            1.07971048295041       -1.85772369732774        0.64499322312370
15
 energy: -18.189187644376 gnorm: 0.000135804921 xtb: 6.7.1 (edcfbbe)
C           -2.16581526228073        0.65461132427299        0.56141419084531
C           -1.33571459067388        0.30182364702936       -0.66869175554988
C           -0.54014224867076       -0.99419274176849       -0.50771322169682
C            0.57248511129822       -0.89519149646324        0.54681122370438
C            1.55690798931350        0.08592154460293        0.19028655231299
N            2.34763117214328        0.86346498316881       -0.09910264895559
H           -2.80947845734731       -0.17740139156233        0.83834930330994
H           -1.53196856488275        0.90346048120000        1.40896805296792
H           -2.79289506150235        1.51753937637594        0.35233224691165
H           -2.00473988688531        0.18664241176893       -1.52402544284797
H           -0.64958001190730        1.12181071088042       -0.89463125564934
H           -0.09285283935855       -1.25798879540303       -1.46843788291072
H           -1.21580269711289       -1.79989549146034       -0.21591102700914
H            0.15589984305210       -0.62552662791068        1.51948567403998
H            1.08064356725566       -1.85785464165238        0.64383732433480
15
 energy: -18.189187709429 gnorm: 0.000063455421 xtb: 6.7.1 (edcfbbe)
C           -2.16558524552784        0.65476734279159        0.56135395577981
C           -1.33556914192457        0.30161940167752       -0.66870038752286
C           -0.54027733239614       -0.99453364190491       -0.50758287126256
C            0.57254879958967       -0.89534849652023        0.54675847360629
C            1.55629877732124        0.08650989677232        0.19030801320351
N            2.34647843166324        0.86466721504623       -0.09905817888270
H           -2.81041876607821       -0.17657333355740        0.83757523032362
H           -1.53168632365631        0.90224022483438        1.40930024165222
H           -2.79146942007839        1.51866025439835        0.35265471226509
H           -2.00463997492839        0.18656458629338       -1.52403214674829
H           -0.64923337530460        1.12143404311214       -0.89474054709572
H           -0.09320858666338       -1.25864792251424       -1.46833662630850
H           -1.21601356683093       -1.80006839396624       -0.21547424552465
H            0.15611539770793       -0.62630138426339        1.51965790269531
H            1.08123838954763       -1.85776649912060        0.64328780762691
