      -----------------------------------------------------------      
     |                   =====================                   |     
     |                           x T B                           |     
     |                   =====================                   |     
     |                         S. Grimme                         |     
     |          Mulliken Center for Theoretical Chemistry        |     
     |                    University of Bonn                     |     
      -----------------------------------------------------------      

   * xtb version 6.7.1 (edcfbbe) compiled by 'albert@albert-system' on 2024-07-22

   xtb is free software: you can redistribute it and/or modify it under
   the terms of the GNU Lesser General Public License as published by
   the Free Software Foundation, either version 3 of the License, or
   (at your option) any later version.
   
   xtb is distributed in the hope that it will be useful,
   but WITHOUT ANY WARRANTY; without even the implied warranty of
   MERCHANTABILITY or FITNESS FOR A PARTICULAR PURPOSE.  See the
   GNU Lesser General Public License for more details.
   
   Cite this work as:
   * C. Bannwarth, E. Caldeweyher, S. Ehlert, A. Hansen, P. Pracht,
     J. Seibert, S. Spicher, S. Grimme, WIREs Comput. Mol. Sci., 2020, 11,
     e01493. DOI: 10.1002/wcms.1493
   
   for GFN2-xTB:
   * C. Bannwarth, S. Ehlert and S. Grimme., J. Chem. Theory Comput., 2019,
     15, 1652-1671. DOI: 10.1021/acs.jctc.8b01176
   for GFN1-xTB:
   * S. Grimme, C. Bannwarth, P. Shushkov, J. Chem. Theory Comput., 2017,
     13, 1989-2009. DOI: 10.1021/acs.jctc.7b00118
   for GFN0-xTB:
   * P. Pracht, E. Caldeweyher, S. Ehlert, S. Grimme, ChemRxiv, 2019, preprint.
     DOI: 10.26434/chemrxiv.8326202.v1
   for GFN-FF:
   * S. Spicher and S. Grimme, Angew. Chem. Int. Ed., 2020, 59, 15665-15673.
     DOI: 10.1002/anie.202004239
   
   for ALPB and GBSA implicit solvation:
   * S. Ehlert, M. Stahn, S. Spicher, S. Grimme, J. Chem. Theory Comput.,
     2021, 17, 4250-4261. DOI: 10.1021/acs.jctc.1c00471
   
   for ddCOSMO and CPCM-X implicit solvation:
   * M. Stahn, S. Ehlert, S. Grimme, J. Phys. Chem. A,
     2023, XX, XXXX-XXXX. DOI: 10.1021/acs.jpca.3c04382
   
   for DFT-D4:
   * E. Caldeweyher, C. Bannwarth and S. Grimme, J. Chem. Phys., 2017,
     147, 034112. DOI: 10.1063/1.4993215
   * E. Caldeweyher, S. Ehlert, A. Hansen, H. Neugebauer, S. Spicher,
     C. Bannwarth and S. Grimme, J. Chem. Phys., 2019, 150, 154122.
     DOI: 10.1063/1.5090222
   * E. Caldeweyher, J.-M. Mewes, S. Ehlert and S. Grimme, Phys. Chem. Chem. Phys.
     2020, 22, 8499-8512. DOI: 10.1039/D0CP00502A
   
   for sTDA-xTB:
   * S. Grimme and C. Bannwarth, J. Chem. Phys., 2016, 145, 054103.
     DOI: 10.1063/1.4959605
   
   in the mass-spec context:
   * V. Asgeirsson, C. Bauer and S. Grimme, Chem. Sci., 2017, 8, 4879.
     DOI: 10.1039/c7sc00601b
   * J. Koopman and S. Grimme, ACS Omega 2019, 4, 12, 15120-15133.
     DOI: 10.1021/acsomega.9b02011
   
   for metadynamics refer to:
   * S. Grimme, J. Chem. Theory Comput., 2019, 155, 2847-2862
     DOI: 10.1021/acs.jctc.9b00143
   
   for SPH calculations refer to:
   * S. Spicher and S. Grimme, J. Chem. Theory Comput., 2021, 17, 1701-1714
     DOI: 10.1021/acs.jctc.0c01306
   
   for ONIOM refer to:
   * C. Plett, A. Katbashev, S. Ehlert, S. Grimme, M. Bursch,
     Phys. Chem. Chem. Phys., 2023, 25, 17860-17868. DOI: 10.1039/D3CP02178E
   
   for DIPRO refer to:
   * J. Kohn, N. Gildemeister, S. Grimme, D. Fazzi, A. Hansen,
     J. Chem. Phys., 2023, just accepted.
   
   for PTB refer to:
   * S. Grimme, M. Mueller, A. Hansen, J. Chem. Phys., 2023, 158, 124111.
     DOI: 10.1063/5.0137838
   
   with help from (in alphabetical order)
   P. Atkinson, C. Bannwarth, F. Bohle, G. Brandenburg, E. Caldeweyher
   M. Checinski, S. Dohm, S. Ehlert, S. Ehrlich, I. Gerasimov, C. Hölzer
   A. Katbashev, J. Kohn, J. Koopman, C. Lavigne, S. Lehtola, F. März, M. Müller,
   F. Musil, H. Neugebauer, J. Pisarek, C. Plett, P. Pracht, F. Pultar,
   J. Seibert, P. Shushkov, S. Spicher, M. Stahn, M. Steiner, T. Strunk,
   J. Stückrath, T. Rose, and J. Unsleber
   
 * started run on 2025/04/11 at 14:29:50.639     
   ID    Z sym.   atoms
    1    6 C      1-3, 5, 7, 9, 12, 13, 15-17
    2    7 N      4, 6, 11, 14
    3    8 O      8, 10
    4    1 H      18-35

           -------------------------------------------------
          |                Calculation Setup                |
           -------------------------------------------------

          program call               : /srv/scratch/z5358697/.xtb/bin/xtb xtb_rrho.coord --gfn2 --ohess vtight --chrg 0 --enso --norestart -I rrho-xcontrol-inp --parallel 1 --alpb water
          hostname                   : k064
          coordinate file            : xtb_rrho.coord
          omp threads                :                     1


           -------------------------------------------------
          |                 G F N 2 - x T B                 |
           -------------------------------------------------

        Reference                      10.1021/acs.jctc.8b01176
      * Hamiltonian:
        H0-scaling (s, p, d)           1.850000    2.230000    2.230000
        zeta-weighting                 0.500000
      * Dispersion:
        s8                             2.700000
        a1                             0.520000
        a2                             5.000000
        s9                             5.000000
      * Repulsion:
        kExp                           1.500000    1.000000
        rExp                           1.000000
      * Coulomb:
        alpha                          2.000000
        third order                    shell-resolved
        anisotropic                    true
        a3                             3.000000
        a5                             4.000000
        cn-shift                       1.200000
        cn-exp                         4.000000
        max-rad                        5.000000

      * Solvation model:               ALPB
        Solvent                        water
        Parameter file                 internal GFN2-xTB/ALPB
        Dielectric constant                8.0200E+01
        Reference state                gsolv [1 M gas/solution]
        Free energy shift                  1.0808E-03 Eh       6.7819E-01 kcal/mol
        Temperature                        2.9815E+02 K
        Density                            1.0000E+00 kg/L
        Solvent mass                       1.8000E+01 g/mol
        Interaction kernel             P16
        Born radius scaling (c1)           1.4744E+00
        Born radii integrator          GBOBC
        Born offset                        0.0000E+00 a0       0.0000E+00 AA
        H-bond correction              true
        Ion screening                  false
        Surface tension                    1.0000E-05 Eh       1.5569E+01 dyn/cm
        Grid points                               974 per atom

          ...................................................
          :                      SETUP                      :
          :.................................................:
          :  # basis functions                  86          :
          :  # atomic orbitals                  86          :
          :  # shells                           52          :
          :  # electrons                        94          :
          :  max. iterations                   250          :
          :  Hamiltonian                  GFN2-xTB          :
          :  restarted?                      false          :
          :  GBSA solvation                   true          :
          :  PC potential                    false          :
          :  electronic temp.          300.0000000     K    :
          :  accuracy                    1.0000000          :
          :  -> integral cutoff          0.2500000E+02      :
          :  -> integral neglect         0.1000000E-07      :
          :  -> SCF convergence          0.1000000E-05 Eh   :
          :  -> wf. convergence          0.1000000E-03 e    :
          :  Broyden damping             0.4000000          :
          :  net charge                          0          :
          :  unpaired electrons                  0          :
          ...................................................

 iter      E             dE          RMSdq      gap      omega  full diag
   1    -53.2081835 -0.532082E+02  0.386E+00    2.91       0.0  T
   2    -53.2811636 -0.729801E-01  0.225E+00    3.18       1.0  T
   3    -53.2820759 -0.912374E-03  0.917E-01    3.08       1.0  T
   4    -53.2856525 -0.357656E-02  0.220E-01    3.00       1.0  T
   5    -53.2865693 -0.916802E-03  0.815E-02    3.05       1.0  T
   6    -53.2865883 -0.190145E-04  0.407E-02    3.04       1.0  T
   7    -53.2866035 -0.151319E-04  0.135E-02    3.04       1.3  T
   8    -53.2866040 -0.545868E-06  0.602E-03    3.04       2.8  T
   9    -53.2866043 -0.260995E-06  0.271E-03    3.04       6.2  T
  10    -53.2866043 -0.637011E-07  0.129E-03    3.04      13.1  T
  11    -53.2866043 -0.841147E-08  0.360E-04    3.04      46.9  T
  12    -53.2866043 -0.504713E-09  0.178E-04    3.04      95.0  T

   *** convergence criteria satisfied after 12 iterations ***

         #    Occupation            Energy/Eh            Energy/eV
      -------------------------------------------------------------
         1        2.0000           -0.7465531             -20.3147
       ...           ...                  ...                  ...
        41        2.0000           -0.4459454             -12.1348
        42        2.0000           -0.4333447             -11.7919
        43        2.0000           -0.4240102             -11.5379
        44        2.0000           -0.4138448             -11.2613
        45        2.0000           -0.4023537             -10.9486
        46        2.0000           -0.3727620             -10.1434
        47        2.0000           -0.3693477             -10.0505 (HOMO)
        48                         -0.2575267              -7.0077 (LUMO)
        49                         -0.2307519              -6.2791
        50                         -0.2147844              -5.8446
        51                         -0.1255926              -3.4175
        52                         -0.0299435              -0.8148
       ...                                ...                  ...
        86                          0.6148119              16.7299
      -------------------------------------------------------------
                  HL-Gap            0.1118210 Eh            3.0428 eV
             Fermi-level           -0.3134372 Eh           -8.5291 eV

 SCC (total)                   0 d,  0 h,  0 min,  0.038 sec
 SCC setup                      ...        0 min,  0.002 sec (  6.295%)
 Dispersion                     ...        0 min,  0.000 sec (  0.847%)
 classical contributions        ...        0 min,  0.000 sec (  0.134%)
 integral evaluation            ...        0 min,  0.005 sec ( 12.659%)
 iterations                     ...        0 min,  0.015 sec ( 40.726%)
 molecular gradient             ...        0 min,  0.015 sec ( 38.867%)
 printout                       ...        0 min,  0.000 sec (  0.432%)

         :::::::::::::::::::::::::::::::::::::::::::::::::::::
         ::                     SUMMARY                     ::
         :::::::::::::::::::::::::::::::::::::::::::::::::::::
         :: total energy             -52.654462506010 Eh    ::
         :: total w/o Gsasa/hb       -52.649294550727 Eh    ::
         :: gradient norm              0.043840072383 Eh/a0 ::
         :: HOMO-LUMO gap              3.042804036968 eV    ::
         ::.................................................::
         :: SCC energy               -53.286502163430 Eh    ::
         :: -> isotropic ES            0.114751586398 Eh    ::
         :: -> anisotropic ES         -0.005228576523 Eh    ::
         :: -> anisotropic XC          0.026246269289 Eh    ::
         :: -> dispersion             -0.031619223826 Eh    ::
         :: -> Gsolv                  -0.027934966137 Eh    ::
         ::    -> Gelec               -0.022767010853 Eh    ::
         ::    -> Gsasa               -0.002206815340 Eh    ::
         ::    -> Ghb                 -0.004041899641 Eh    ::
         ::    -> Gshift               0.001080759698 Eh    ::
         :: repulsion energy           0.632039657421 Eh    ::
         :: add. restraining           0.000000000000 Eh    ::
         :: total charge              -0.000000000000 e     ::
         :::::::::::::::::::::::::::::::::::::::::::::::::::::

      ----------------------------------------------------------- 
     |                   =====================                   |
     |                        A N C O P T                        |
     |                   =====================                   |
     |               Approximate Normal Coordinate               |
     |                Rational Function Optimizer                |
      ----------------------------------------------------------- 
      ----------------------------------------------------------- 
     |                   =====================                   |
     |                        A N C O P T                        |
     |                   =====================                   |
     |               Approximate Normal Coordinate               |
     |                Rational Function Optimizer                |
      ----------------------------------------------------------- 

          ...................................................
          :                      SETUP                      :
          :.................................................:
          :   optimization level         verytight          :
          :   max. optcycles                   700          :
          :   ANC micro-cycles                  20          :
          :   degrees of freedom                99          :
          :.................................................:
          :   RF solver                   davidson          :
          :   write xtbopt.log                true          :
          :   linear?                        false          :
          :   energy convergence         0.1000000E-06 Eh   :
          :   grad. convergence          0.2000000E-03 Eh/α :
          :   maxmium RF displ.          1.0000000          :
          :   Hlow (freq-cutoff)         0.1000000E-01      :
          :   Hmax (freq-cutoff)         5.0000000          :
          :   S6 in model hess.         20.0000000          :
          ...................................................

generating ANC from exact Hessian ...
Using Lindh-Hessian (1995)
 Shifting diagonal of input Hessian by   9.313332189250794E-003
 Lowest  eigenvalues of input Hessian
    0.000000    0.000000    0.000000    0.000000    0.000000    0.000000
    0.010000    0.010151    0.010197    0.010792    0.011631    0.013317
    0.015091    0.016111    0.017458    0.017996    0.018847    0.019160
 Highest eigenvalues
    1.840956    1.963516    2.031390    2.149722    2.184635    2.414044
 

........................................................................
.............................. CYCLE    1 ..............................
........................................................................

 iter      E             dE          RMSdq      gap      omega  full diag
   1    -53.2866043 -0.532866E+02  0.727E-05    3.04       0.0  T
   2    -53.2866043 -0.191207E-10  0.474E-05    3.04     356.5  T
   3    -53.2866043 -0.254374E-11  0.293E-05    3.04     577.2  T
     SCC iter.                  ...        0 min,  0.004 sec
     gradient                   ...        0 min,  0.015 sec
 * total energy  :   -52.6544625 Eh     change       -0.4023448E-09 Eh
   gradient norm :     0.0438416 Eh/α   predicted     0.0000000E+00 (-100.00%)
   displ. norm   :     0.2455765 α      lambda       -0.5045895E-02
   maximum displ.:     0.0989646 α      in ANC's #23, #17, #11, ...

........................................................................
.............................. CYCLE    2 ..............................
........................................................................

 iter      E             dE          RMSdq      gap      omega  full diag
   1    -53.3123002 -0.533123E+02  0.145E-01    3.03       0.0  T
   2    -53.3123941 -0.939107E-04  0.861E-02    3.06       1.0  T
   3    -53.3123942 -0.775194E-07  0.413E-02    3.06       1.0  T
   4    -53.3124031 -0.893528E-05  0.990E-03    3.05       1.7  T
   5    -53.3124052 -0.212673E-05  0.277E-03    3.05       6.1  T
   6    -53.3124052 -0.151085E-07  0.143E-03    3.05      11.8  T
   7    -53.3124053 -0.134214E-07  0.409E-04    3.05      41.3  T
   8    -53.3124053 -0.646800E-09  0.245E-04    3.05      69.1  T
     SCC iter.                  ...        0 min,  0.009 sec
     gradient                   ...        0 min,  0.015 sec
 * total energy  :   -52.6579911 Eh     change       -0.3528596E-02 Eh
   gradient norm :     0.0206771 Eh/α   predicted    -0.2675151E-02 ( -24.19%)
   displ. norm   :     0.2509501 α      lambda       -0.1989117E-02
   maximum displ.:     0.1009307 α      in ANC's #11, #17, #15, ...

........................................................................
.............................. CYCLE    3 ..............................
........................................................................

 iter      E             dE          RMSdq      gap      omega  full diag
   1    -53.3270748 -0.533271E+02  0.118E-01    3.04       0.0  T
   2    -53.3271596 -0.847998E-04  0.669E-02    3.06       1.0  T
   3    -53.3271635 -0.390607E-05  0.354E-02    3.07       1.0  T
   4    -53.3271686 -0.514279E-05  0.968E-03    3.06       1.7  T
   5    -53.3271704 -0.176522E-05  0.245E-03    3.06       6.9  T
   6    -53.3271704 -0.111439E-07  0.116E-03    3.06      14.6  T
   7    -53.3271704 -0.905970E-08  0.438E-04    3.06      38.6  T
   8    -53.3271704 -0.118608E-08  0.216E-04    3.06      78.4  T
     SCC iter.                  ...        0 min,  0.008 sec
     gradient                   ...        0 min,  0.015 sec
 * total energy  :   -52.6592638 Eh     change       -0.1272654E-02 Eh
   gradient norm :     0.0091193 Eh/α   predicted    -0.1057465E-02 ( -16.91%)
   displ. norm   :     0.2042326 α      lambda       -0.6466511E-03
   maximum displ.:     0.0877930 α      in ANC's #11, #21, #18, ...

........................................................................
.............................. CYCLE    4 ..............................
........................................................................

 iter      E             dE          RMSdq      gap      omega  full diag
   1    -53.3290457 -0.533290E+02  0.765E-02    3.05       0.0  T
   2    -53.3290715 -0.257282E-04  0.417E-02    3.06       1.0  T
   3    -53.3290716 -0.177069E-06  0.206E-02    3.06       1.0  T
   4    -53.3290744 -0.281538E-05  0.552E-03    3.06       3.1  T
   5    -53.3290750 -0.507930E-06  0.166E-03    3.06      10.2  T
   6    -53.3290750 -0.629623E-08  0.652E-04    3.06      25.9  T
   7    -53.3290750 -0.183874E-08  0.254E-04    3.06      66.6  T
     SCC iter.                  ...        0 min,  0.007 sec
     gradient                   ...        0 min,  0.015 sec
 * total energy  :   -52.6597546 Eh     change       -0.4908520E-03 Eh
   gradient norm :     0.0076399 Eh/α   predicted    -0.3368122E-03 ( -31.38%)
   displ. norm   :     0.2945384 α      lambda       -0.6382891E-03
   maximum displ.:     0.1190038 α      in ANC's #11, #7, #21, ...

........................................................................
.............................. CYCLE    5 ..............................
........................................................................

 iter      E             dE          RMSdq      gap      omega  full diag
   1    -53.3264997 -0.533265E+02  0.973E-02    3.04       0.0  T
   2    -53.3265208 -0.210821E-04  0.542E-02    3.05       1.0  T
   3    -53.3265194  0.145298E-05  0.203E-02    3.05       1.0  T
   4    -53.3265238 -0.444971E-05  0.543E-03    3.05       3.1  T
   5    -53.3265242 -0.410479E-06  0.219E-03    3.05       7.7  T
   6    -53.3265242 -0.117069E-07  0.710E-04    3.05      23.8  T
   7    -53.3265242 -0.336178E-08  0.261E-04    3.05      64.7  T
     SCC iter.                  ...        0 min,  0.007 sec
     gradient                   ...        0 min,  0.015 sec
 * total energy  :   -52.6601918 Eh     change       -0.4371528E-03 Eh
   gradient norm :     0.0083641 Eh/α   predicted    -0.3468335E-03 ( -20.66%)
   displ. norm   :     0.2370853 α      lambda       -0.3308648E-03
   maximum displ.:     0.1119231 α      in ANC's #7, #3, #11, ...

........................................................................
.............................. CYCLE    6 ..............................
........................................................................

 iter      E             dE          RMSdq      gap      omega  full diag
   1    -53.3243329 -0.533243E+02  0.646E-02    3.04       0.0  T
   2    -53.3243372 -0.428514E-05  0.368E-02    3.04       1.0  T
   3    -53.3243373 -0.108446E-06  0.758E-03    3.04       2.2  T
   4    -53.3243380 -0.698389E-06  0.269E-03    3.04       6.3  T
   5    -53.3243380 -0.521601E-07  0.133E-03    3.04      12.7  T
   6    -53.3243381 -0.871452E-08  0.302E-04    3.04      55.9  T
   7    -53.3243381 -0.140995E-08  0.135E-04    3.04     125.3  T
     SCC iter.                  ...        0 min,  0.007 sec
     gradient                   ...        0 min,  0.015 sec
 * total energy  :   -52.6604386 Eh     change       -0.2468851E-03 Eh
   gradient norm :     0.0083046 Eh/α   predicted    -0.1747320E-03 ( -29.23%)
   displ. norm   :     0.2811210 α      lambda       -0.3587252E-03
   maximum displ.:     0.1433737 α      in ANC's #7, #3, #11, ...

........................................................................
.............................. CYCLE    7 ..............................
........................................................................

 iter      E             dE          RMSdq      gap      omega  full diag
   1    -53.3231759 -0.533232E+02  0.616E-02    3.03       0.0  T
   2    -53.3231794 -0.351525E-05  0.357E-02    3.03       1.0  T
   3    -53.3231796 -0.170891E-06  0.606E-03    3.03       2.8  T
   4    -53.3231800 -0.383428E-06  0.247E-03    3.03       6.9  T
   5    -53.3231800 -0.532174E-07  0.107E-03    3.03      15.8  T
   6    -53.3231800 -0.677965E-08  0.354E-04    3.03      47.7  T
   7    -53.3231800 -0.100225E-08  0.110E-04    3.03     153.4  T
     SCC iter.                  ...        0 min,  0.007 sec
     gradient                   ...        0 min,  0.015 sec
 * total energy  :   -52.6607119 Eh     change       -0.2732224E-03 Eh
   gradient norm :     0.0076326 Eh/α   predicted    -0.1935479E-03 ( -29.16%)
   displ. norm   :     0.3314435 α      lambda       -0.3858806E-03
   maximum displ.:     0.1649780 α      in ANC's #7, #3, #11, ...

........................................................................
.............................. CYCLE    8 ..............................
........................................................................

 iter      E             dE          RMSdq      gap      omega  full diag
   1    -53.3231224 -0.533231E+02  0.605E-02    3.02       0.0  T
   2    -53.3231270 -0.468399E-05  0.357E-02    3.03       1.0  T
   3    -53.3231264  0.611292E-06  0.822E-03    3.03       2.1  T
   4    -53.3231275 -0.102990E-05  0.293E-03    3.03       5.8  T
   5    -53.3231276 -0.164916E-06  0.835E-04    3.03      20.3  T
   6    -53.3231276 -0.299603E-08  0.377E-04    3.03      44.8  T
     SCC iter.                  ...        0 min,  0.006 sec
     gradient                   ...        0 min,  0.015 sec
 * total energy  :   -52.6610086 Eh     change       -0.2967637E-03 Eh
   gradient norm :     0.0083090 Eh/α   predicted    -0.2141364E-03 ( -27.84%)
   displ. norm   :     0.3609365 α      lambda       -0.4070729E-03
   maximum displ.:     0.1610412 α      in ANC's #7, #3, #16, ...

........................................................................
.............................. CYCLE    9 ..............................
........................................................................

 iter      E             dE          RMSdq      gap      omega  full diag
   1    -53.3246147 -0.533246E+02  0.610E-02    3.02       0.0  T
   2    -53.3246190 -0.425823E-05  0.366E-02    3.03       1.0  T
   3    -53.3246180  0.975819E-06  0.820E-03    3.03       2.1  T
   4    -53.3246194 -0.134344E-05  0.255E-03    3.03       6.6  T
   5    -53.3246195 -0.151512E-06  0.669E-04    3.03      25.3  T
   6    -53.3246195 -0.262312E-08  0.350E-04    3.03      48.3  T
     SCC iter.                  ...        0 min,  0.006 sec
     gradient                   ...        0 min,  0.015 sec
 * total energy  :   -52.6613210 Eh     change       -0.3123319E-03 Eh
   gradient norm :     0.0094367 Eh/α   predicted    -0.2300600E-03 ( -26.34%)
   displ. norm   :     0.4017493 α      lambda       -0.4045976E-03
   maximum displ.:     0.1767543 α      in ANC's #3, #11, #7, ...

........................................................................
.............................. CYCLE   10 ..............................
........................................................................

 iter      E             dE          RMSdq      gap      omega  full diag
   1    -53.3249200 -0.533249E+02  0.680E-02    3.03       0.0  T
   2    -53.3249217 -0.169574E-05  0.408E-02    3.03       1.0  T
   3    -53.3249210  0.712495E-06  0.602E-03    3.03       2.8  T
   4    -53.3249221 -0.105464E-05  0.155E-03    3.03      10.9  T
   5    -53.3249221 -0.272009E-07  0.705E-04    3.03      24.0  T
   6    -53.3249221 -0.990092E-09  0.304E-04    3.03      55.5  T
     SCC iter.                  ...        0 min,  0.006 sec
     gradient                   ...        0 min,  0.015 sec
 * total energy  :   -52.6616310 Eh     change       -0.3099994E-03 Eh
   gradient norm :     0.0106111 Eh/α   predicted    -0.2349692E-03 ( -24.20%)
   displ. norm   :     0.3650776 α      lambda       -0.6070537E-03
   maximum displ.:     0.1721041 α      in ANC's #16, #3, #11, ...

........................................................................
.............................. CYCLE   11 ..............................
........................................................................

 iter      E             dE          RMSdq      gap      omega  full diag
   1    -53.3358902 -0.533359E+02  0.930E-02    3.05       0.0  T
   2    -53.3359008 -0.106133E-04  0.535E-02    3.04       1.0  T
   3    -53.3359011 -0.294179E-06  0.999E-03    3.05       1.7  T
   4    -53.3359018 -0.764064E-06  0.342E-03    3.04       4.9  T
   5    -53.3359020 -0.120301E-06  0.167E-03    3.05      10.1  T
   6    -53.3359020 -0.268489E-08  0.524E-04    3.05      32.3  T
   7    -53.3359020 -0.384503E-08  0.159E-04    3.05     106.0  T
     SCC iter.                  ...        0 min,  0.007 sec
     gradient                   ...        0 min,  0.015 sec
 * total energy  :   -52.6617450 Eh     change       -0.1140815E-03 Eh
   gradient norm :     0.0136882 Eh/α   predicted    -0.3439970E-03 ( 201.54%)
   displ. norm   :     0.4941561 α      lambda       -0.7844175E-03
   maximum displ.:     0.2340177 α      in ANC's #11, #3, #7, ...

........................................................................
.............................. CYCLE   12 ..............................
........................................................................

 iter      E             dE          RMSdq      gap      omega  full diag
   1    -53.3232556 -0.533233E+02  0.102E-01    3.05       0.0  T
   2    -53.3232682 -0.125757E-04  0.591E-02    3.05       1.0  T
   3    -53.3232677  0.442009E-06  0.131E-02    3.05       1.3  T
   4    -53.3232692 -0.145784E-05  0.445E-03    3.05       3.8  T
   5    -53.3232695 -0.338803E-06  0.182E-03    3.05       9.3  T
   6    -53.3232695 -0.563303E-08  0.352E-04    3.05      48.0  T
   7    -53.3232695 -0.581537E-09  0.120E-04    3.05     141.0  T
     SCC iter.                  ...        0 min,  0.007 sec
     gradient                   ...        0 min,  0.015 sec
 * total energy  :   -52.6620090 Eh     change       -0.2639602E-03 Eh
   gradient norm :     0.0145565 Eh/α   predicted    -0.4880190E-03 (  84.88%)
   displ. norm   :     0.2509975 α      lambda       -0.4218336E-03
   maximum displ.:     0.1220788 α      in ANC's #16, #11, #3, ...

........................................................................
.............................. CYCLE   13 ..............................
........................................................................

 iter      E             dE          RMSdq      gap      omega  full diag
   1    -53.3289613 -0.533290E+02  0.582E-02    3.04       0.0  T
   2    -53.3289656 -0.434023E-05  0.342E-02    3.04       1.0  T
   3    -53.3289652  0.446026E-06  0.771E-03    3.04       2.2  T
   4    -53.3289661 -0.954298E-06  0.238E-03    3.04       7.1  T
   5    -53.3289662 -0.832680E-07  0.102E-03    3.04      16.6  T
   6    -53.3289662 -0.316098E-08  0.416E-04    3.04      40.6  T
   7    -53.3289662 -0.173929E-08  0.121E-04    3.04     140.2  T
     SCC iter.                  ...        0 min,  0.007 sec
     gradient                   ...        0 min,  0.015 sec
 * total energy  :   -52.6621684 Eh     change       -0.1594002E-03 Eh
   gradient norm :     0.0050104 Eh/α   predicted    -0.2242046E-03 (  40.66%)
   displ. norm   :     0.1821199 α      lambda       -0.1498704E-03
   maximum displ.:     0.0931771 α      in ANC's #3, #11, #16, ...

........................................................................
.............................. CYCLE   14 ..............................
........................................................................

 iter      E             dE          RMSdq      gap      omega  full diag
   1    -53.3287452 -0.533287E+02  0.347E-02    3.04       0.0  T
   2    -53.3287458 -0.602639E-06  0.206E-02    3.04       1.0  T
   3    -53.3287458  0.268584E-07  0.254E-03    3.04       6.7  T
   4    -53.3287459 -0.115006E-06  0.933E-04    3.04      18.1  T
   5    -53.3287459 -0.105228E-07  0.480E-04    3.04      35.2  T
     SCC iter.                  ...        0 min,  0.005 sec
     gradient                   ...        0 min,  0.015 sec
 * total energy  :   -52.6622770 Eh     change       -0.1086149E-03 Eh
   gradient norm :     0.0036883 Eh/α   predicted    -0.7742208E-04 ( -28.72%)
   displ. norm   :     0.4267962 α      lambda       -0.2312738E-03
   maximum displ.:     0.2266698 α      in ANC's #3, #11, #16, ...

........................................................................
.............................. CYCLE   15 ..............................
........................................................................

 iter      E             dE          RMSdq      gap      omega  full diag
   1    -53.3250056 -0.533250E+02  0.734E-02    3.03       0.0  T
   2    -53.3250076 -0.198792E-05  0.437E-02    3.03       1.0  T
   3    -53.3250074  0.161830E-06  0.473E-03    3.03       3.6  T
   4    -53.3250079 -0.482637E-06  0.175E-03    3.03       9.7  T
   5    -53.3250079 -0.456353E-07  0.831E-04    3.03      20.3  T
   6    -53.3250079 -0.187391E-08  0.300E-04    3.03      56.4  T
     SCC iter.                  ...        0 min,  0.006 sec
     gradient                   ...        0 min,  0.015 sec
 * total energy  :   -52.6623964 Eh     change       -0.1193808E-03 Eh
   gradient norm :     0.0065659 Eh/α   predicted    -0.1367030E-03 (  14.51%)
   displ. norm   :     0.1105051 α      lambda       -0.1117133E-03
   maximum displ.:     0.0606848 α      in ANC's #3, #11, #7, ...

........................................................................
.............................. CYCLE   16 ..............................
........................................................................

 iter      E             dE          RMSdq      gap      omega  full diag
   1    -53.3266090 -0.533266E+02  0.256E-02    3.03       0.0  T
   2    -53.3266098 -0.787314E-06  0.147E-02    3.03       1.1  T
   3    -53.3266098 -0.338344E-07  0.272E-03    3.03       6.2  T
   4    -53.3266099 -0.459214E-07  0.863E-04    3.03      19.6  T
   5    -53.3266099 -0.600686E-08  0.443E-04    3.03      38.1  T
     SCC iter.                  ...        0 min,  0.005 sec
     gradient                   ...        0 min,  0.015 sec
 * total energy  :   -52.6624584 Eh     change       -0.6197641E-04 Eh
   gradient norm :     0.0055665 Eh/α   predicted    -0.5653977E-04 (  -8.77%)
   displ. norm   :     0.1639432 α      lambda       -0.1717001E-03
   maximum displ.:     0.1143130 α      in ANC's #3, #2, #7, ...

........................................................................
.............................. CYCLE   17 ..............................
........................................................................

 iter      E             dE          RMSdq      gap      omega  full diag
   1    -53.3314720 -0.533315E+02  0.423E-02    3.03       0.0  T
   2    -53.3314746 -0.261199E-05  0.239E-02    3.03       1.0  T
   3    -53.3314748 -0.154490E-06  0.483E-03    3.03       3.5  T
   4    -53.3314749 -0.653771E-07  0.145E-03    3.03      11.6  T
   5    -53.3314749 -0.121227E-07  0.771E-04    3.03      21.9  T
   6    -53.3314749 -0.142400E-08  0.203E-04    3.03      83.2  T
     SCC iter.                  ...        0 min,  0.006 sec
     gradient                   ...        0 min,  0.015 sec
 * total energy  :   -52.6624850 Eh     change       -0.2658212E-04 Eh
   gradient norm :     0.0076581 Eh/α   predicted    -0.8815777E-04 ( 231.64%)
   displ. norm   :     0.2321194 α      lambda       -0.1529666E-03
   maximum displ.:     0.1259896 α      in ANC's #3, #11, #7, ...

........................................................................
.............................. CYCLE   18 ..............................
........................................................................

 iter      E             dE          RMSdq      gap      omega  full diag
   1    -53.3286256 -0.533286E+02  0.419E-02    3.03       0.0  T
   2    -53.3286266 -0.104508E-05  0.248E-02    3.03       1.0  T
   3    -53.3286266 -0.315811E-07  0.283E-03    3.03       6.0  T
   4    -53.3286267 -0.814127E-07  0.114E-03    3.03      14.8  T
   5    -53.3286267 -0.172893E-07  0.561E-04    3.03      30.2  T
   6    -53.3286267 -0.905771E-09  0.163E-04    3.03     104.0  T
     SCC iter.                  ...        0 min,  0.006 sec
     gradient                   ...        0 min,  0.015 sec
 * total energy  :   -52.6625816 Eh     change       -0.9664849E-04 Eh
   gradient norm :     0.0037686 Eh/α   predicted    -0.8060890E-04 ( -16.60%)
   displ. norm   :     0.1486183 α      lambda       -0.5872187E-04
   maximum displ.:     0.0924140 α      in ANC's #3, #7, #11, ...

........................................................................
.............................. CYCLE   19 ..............................
........................................................................

 iter      E             dE          RMSdq      gap      omega  full diag
   1    -53.3291781 -0.533292E+02  0.262E-02    3.03       0.0  T
   2    -53.3291790 -0.906248E-06  0.154E-02    3.03       1.1  T
   3    -53.3291789  0.955494E-07  0.352E-03    3.03       4.8  T
   4    -53.3291791 -0.179987E-06  0.109E-03    3.03      15.5  T
   5    -53.3291791 -0.237346E-07  0.399E-04    3.03      42.3  T
   6    -53.3291791 -0.664059E-09  0.179E-04    3.03      94.3  T
     SCC iter.                  ...        0 min,  0.006 sec
     gradient                   ...        0 min,  0.015 sec
 * total energy  :   -52.6626195 Eh     change       -0.3788075E-04 Eh
   gradient norm :     0.0032296 Eh/α   predicted    -0.3001043E-04 ( -20.78%)
   displ. norm   :     0.2904876 α      lambda       -0.7623651E-04
   maximum displ.:     0.1851181 α      in ANC's #3, #7, #11, ...

........................................................................
.............................. CYCLE   20 ..............................
........................................................................

 iter      E             dE          RMSdq      gap      omega  full diag
   1    -53.3271752 -0.533272E+02  0.528E-02    3.03       0.0  T
   2    -53.3271773 -0.203903E-05  0.309E-02    3.03       1.0  T
   3    -53.3271773 -0.142115E-07  0.430E-03    3.03       3.9  T
   4    -53.3271775 -0.235660E-06  0.168E-03    3.03      10.0  T
   5    -53.3271776 -0.351453E-07  0.790E-04    3.03      21.4  T
   6    -53.3271776 -0.261966E-08  0.253E-04    3.03      66.9  T
     SCC iter.                  ...        0 min,  0.006 sec
     gradient                   ...        0 min,  0.015 sec
 * total energy  :   -52.6626272 Eh     change       -0.7757718E-05 Eh
   gradient norm :     0.0066828 Eh/α   predicted    -0.4133794E-04 ( 432.86%)
   displ. norm   :     0.0690047 α      lambda       -0.1282521E-03
   maximum displ.:     0.0336488 α      in ANC's #3, #16, #11, ...
 * RMSD in coord.:     0.6977319 α      energy gain  -0.8164740E-02 Eh

generating ANC from exact Hessian ...
Using Lindh-Hessian (1995)
 Shifting diagonal of input Hessian by   9.245114875388772E-003
 Lowest  eigenvalues of input Hessian
    0.000000    0.000000    0.000000    0.000000    0.000000    0.000000
    0.010000    0.010137    0.010157    0.010954    0.011820    0.013488
    0.015597    0.016188    0.017545    0.018139    0.019266    0.019753
 Highest eigenvalues
    1.949402    2.009874    2.141351    2.240195    2.277321    2.490676
 

........................................................................
.............................. CYCLE   21 ..............................
........................................................................

 iter      E             dE          RMSdq      gap      omega  full diag
   1    -53.3311007 -0.533311E+02  0.258E-02    3.03       0.0  T
   2    -53.3311022 -0.143678E-05  0.142E-02    3.03       1.2  T
   3    -53.3311023 -0.105588E-06  0.377E-03    3.03       4.5  T
   4    -53.3311023 -0.282800E-07  0.123E-03    3.03      13.7  T
   5    -53.3311023 -0.142499E-07  0.638E-04    3.03      26.5  T
   6    -53.3311023 -0.193143E-08  0.136E-04    3.03     124.2  T
     SCC iter.                  ...        0 min,  0.006 sec
     gradient                   ...        0 min,  0.015 sec
 * total energy  :   -52.6626871 Eh     change       -0.5990338E-04 Eh
   gradient norm :     0.0038616 Eh/α   predicted     0.0000000E+00 (-100.00%)
   displ. norm   :     0.0240497 α      lambda       -0.2055565E-04
   maximum displ.:     0.0112311 α      in ANC's #13, #5, #8, ...

........................................................................
.............................. CYCLE   22 ..............................
........................................................................

 iter      E             dE          RMSdq      gap      omega  full diag
   1    -53.3303837 -0.533304E+02  0.850E-03    3.03       0.0  T
   2    -53.3303840 -0.281756E-06  0.488E-03    3.03       3.5  T
   3    -53.3303840  0.500177E-08  0.192E-03    3.03       8.8  T
   4    -53.3303840 -0.337747E-07  0.599E-04    3.03      28.2  T
   5    -53.3303840 -0.583194E-08  0.199E-04    3.03      85.0  T
     SCC iter.                  ...        0 min,  0.005 sec
     gradient                   ...        0 min,  0.015 sec
 * total energy  :   -52.6627067 Eh     change       -0.1953409E-04 Eh
   gradient norm :     0.0019071 Eh/α   predicted    -0.1306106E-04 ( -33.14%)
   displ. norm   :     0.0722518 α      lambda       -0.2347294E-04
   maximum displ.:     0.0392893 α      in ANC's #13, #5, #3, ...

........................................................................
.............................. CYCLE   23 ..............................
........................................................................

 iter      E             dE          RMSdq      gap      omega  full diag
   1    -53.3294139 -0.533294E+02  0.198E-02    3.03       0.0  T
   2    -53.3294153 -0.131693E-05  0.114E-02    3.03       1.5  T
   3    -53.3294152  0.506422E-07  0.429E-03    3.03       3.9  T
   4    -53.3294154 -0.192441E-06  0.135E-03    3.03      12.5  T
   5    -53.3294154 -0.301944E-07  0.414E-04    3.03      40.8  T
   6    -53.3294154 -0.112645E-08  0.208E-04    3.03      81.3  T
     SCC iter.                  ...        0 min,  0.006 sec
     gradient                   ...        0 min,  0.015 sec
 * total energy  :   -52.6627249 Eh     change       -0.1820571E-04 Eh
   gradient norm :     0.0021742 Eh/α   predicted    -0.1176404E-04 ( -35.38%)
   displ. norm   :     0.0315349 α      lambda       -0.1015262E-04
   maximum displ.:     0.0188538 α      in ANC's #13, #3, #5, ...

........................................................................
.............................. CYCLE   24 ..............................
........................................................................

 iter      E             dE          RMSdq      gap      omega  full diag
   1    -53.3296024 -0.533296E+02  0.686E-03    3.03       0.0  T
   2    -53.3296024 -0.368165E-07  0.401E-03    3.03       4.2  T
   3    -53.3296024  0.123215E-08  0.705E-04    3.03      24.0  T
   4    -53.3296024 -0.755718E-08  0.270E-04    3.03      62.5  T
     SCC iter.                  ...        0 min,  0.004 sec
     gradient                   ...        0 min,  0.015 sec
 * total energy  :   -52.6627343 Eh     change       -0.9365115E-05 Eh
   gradient norm :     0.0020078 Eh/α   predicted    -0.5081543E-05 ( -45.74%)
   displ. norm   :     0.1844795 α      lambda       -0.5203146E-04
   maximum displ.:     0.1139930 α      in ANC's #13, #3, #5, ...

........................................................................
.............................. CYCLE   25 ..............................
........................................................................

 iter      E             dE          RMSdq      gap      omega  full diag
   1    -53.3300619 -0.533301E+02  0.386E-02    3.03       0.0  T
   2    -53.3300625 -0.575987E-06  0.226E-02    3.03       1.0  T
   3    -53.3300626 -0.116624E-06  0.222E-03    3.03       7.6  T
   4    -53.3300627 -0.438173E-07  0.113E-03    3.03      15.0  T
   5    -53.3300627 -0.584896E-08  0.547E-04    3.03      30.9  T
   6    -53.3300627 -0.200463E-08  0.168E-04    3.03     100.5  T
     SCC iter.                  ...        0 min,  0.006 sec
     gradient                   ...        0 min,  0.015 sec
 * total energy  :   -52.6627673 Eh     change       -0.3308270E-04 Eh
   gradient norm :     0.0022307 Eh/α   predicted    -0.2692008E-04 ( -18.63%)
   displ. norm   :     0.0974150 α      lambda       -0.1525273E-04
   maximum displ.:     0.0607357 α      in ANC's #13, #3, #5, ...

........................................................................
.............................. CYCLE   26 ..............................
........................................................................

 iter      E             dE          RMSdq      gap      omega  full diag
   1    -53.3302076 -0.533302E+02  0.190E-02    3.03       0.0  T
   2    -53.3302077 -0.901858E-07  0.112E-02    3.03       1.5  T
   3    -53.3302077 -0.764850E-09  0.124E-03    3.03      13.6  T
   4    -53.3302077 -0.363926E-07  0.550E-04    3.03      30.8  T
   5    -53.3302077 -0.113460E-08  0.221E-04    3.03      76.4  T
     SCC iter.                  ...        0 min,  0.005 sec
     gradient                   ...        0 min,  0.015 sec
 * total energy  :   -52.6627794 Eh     change       -0.1207390E-04 Eh
   gradient norm :     0.0021629 Eh/α   predicted    -0.7713953E-05 ( -36.11%)
   displ. norm   :     0.1446229 α      lambda       -0.2535884E-04
   maximum displ.:     0.0899157 α      in ANC's #13, #3, #5, ...

........................................................................
.............................. CYCLE   27 ..............................
........................................................................

 iter      E             dE          RMSdq      gap      omega  full diag
   1    -53.3303695 -0.533304E+02  0.272E-02    3.03       0.0  T
   2    -53.3303699 -0.336805E-06  0.160E-02    3.03       1.1  T
   3    -53.3303697  0.142320E-06  0.286E-03    3.03       5.9  T
   4    -53.3303700 -0.229232E-06  0.840E-04    3.03      20.1  T
   5    -53.3303700 -0.661781E-08  0.353E-04    3.03      47.9  T
     SCC iter.                  ...        0 min,  0.005 sec
     gradient                   ...        0 min,  0.015 sec
 * total energy  :   -52.6627975 Eh     change       -0.1811157E-04 Eh
   gradient norm :     0.0014027 Eh/α   predicted    -0.1294671E-04 ( -28.52%)
   displ. norm   :     0.1622441 α      lambda       -0.1548799E-04
   maximum displ.:     0.0985450 α      in ANC's #13, #3, #1, ...

........................................................................
.............................. CYCLE   28 ..............................
........................................................................

 iter      E             dE          RMSdq      gap      omega  full diag
   1    -53.3301732 -0.533302E+02  0.294E-02    3.03       0.0  T
   2    -53.3301737 -0.480605E-06  0.174E-02    3.03       1.0  T
   3    -53.3301734  0.253333E-06  0.361E-03    3.03       4.7  T
   4    -53.3301738 -0.352238E-06  0.907E-04    3.03      18.6  T
   5    -53.3301738 -0.107571E-07  0.340E-04    3.03      49.7  T
     SCC iter.                  ...        0 min,  0.005 sec
     gradient                   ...        0 min,  0.015 sec
 * total energy  :   -52.6628111 Eh     change       -0.1358709E-04 Eh
   gradient norm :     0.0014467 Eh/α   predicted    -0.7834775E-05 ( -42.34%)
   displ. norm   :     0.0503743 α      lambda       -0.6450025E-05
   maximum displ.:     0.0217223 α      in ANC's #13, #1, #16, ...

........................................................................
.............................. CYCLE   29 ..............................
........................................................................

 iter      E             dE          RMSdq      gap      omega  full diag
   1    -53.3304094 -0.533304E+02  0.922E-03    3.03       0.0  T
   2    -53.3304095 -0.276128E-07  0.545E-03    3.03       3.1  T
   3    -53.3304095  0.506752E-08  0.628E-04    3.03      26.9  T
   4    -53.3304095 -0.103036E-07  0.205E-04    3.03      82.3  T
     SCC iter.                  ...        0 min,  0.004 sec
     gradient                   ...        0 min,  0.015 sec
 * total energy  :   -52.6628187 Eh     change       -0.7571758E-05 Eh
   gradient norm :     0.0011391 Eh/α   predicted    -0.3228968E-05 ( -57.36%)
   displ. norm   :     0.2210100 α      lambda       -0.1522456E-04
   maximum displ.:     0.1208666 α      in ANC's #13, #3, #1, ...

........................................................................
.............................. CYCLE   30 ..............................
........................................................................

 iter      E             dE          RMSdq      gap      omega  full diag
   1    -53.3288812 -0.533289E+02  0.387E-02    3.03       0.0  T
   2    -53.3288817 -0.497081E-06  0.230E-02    3.03       1.0  T
   3    -53.3288817 -0.162169E-07  0.205E-03    3.03       8.3  T
   4    -53.3288818 -0.673937E-07  0.840E-04    3.03      20.1  T
   5    -53.3288818 -0.597629E-08  0.425E-04    3.03      39.7  T
     SCC iter.                  ...        0 min,  0.005 sec
     gradient                   ...        0 min,  0.015 sec
 * total energy  :   -52.6628192 Eh     change       -0.5174307E-06 Eh
   gradient norm :     0.0026056 Eh/α   predicted    -0.7790257E-05 (1405.57%)
   displ. norm   :     0.0694392 α      lambda       -0.1826182E-04
   maximum displ.:     0.0465389 α      in ANC's #13, #3, #5, ...

........................................................................
.............................. CYCLE   31 ..............................
........................................................................

 iter      E             dE          RMSdq      gap      omega  full diag
   1    -53.3300300 -0.533300E+02  0.147E-02    3.03       0.0  T
   2    -53.3300301 -0.159637E-06  0.856E-03    3.03       2.0  T
   3    -53.3300301  0.165633E-07  0.152E-03    3.03      11.1  T
   4    -53.3300302 -0.391453E-07  0.509E-04    3.03      33.2  T
   5    -53.3300302 -0.324880E-08  0.249E-04    3.03      67.9  T
     SCC iter.                  ...        0 min,  0.005 sec
     gradient                   ...        0 min,  0.015 sec
 * total energy  :   -52.6628299 Eh     change       -0.1073257E-04 Eh
   gradient norm :     0.0008004 Eh/α   predicted    -0.9176616E-05 ( -14.50%)
   displ. norm   :     0.0229237 α      lambda       -0.2626481E-05
   maximum displ.:     0.0142252 α      in ANC's #13, #5, #3, ...

........................................................................
.............................. CYCLE   32 ..............................
........................................................................

 iter      E             dE          RMSdq      gap      omega  full diag
   1    -53.3305536 -0.533306E+02  0.543E-03    3.03       0.0  T
   2    -53.3305536 -0.273456E-07  0.316E-03    3.03       5.4  T
   3    -53.3305536  0.130882E-08  0.572E-04    3.03      29.5  T
   4    -53.3305536 -0.450927E-08  0.175E-04    3.03      96.4  T
     SCC iter.                  ...        0 min,  0.004 sec
     gradient                   ...        0 min,  0.015 sec
 * total energy  :   -52.6628325 Eh     change       -0.2595451E-05 Eh
   gradient norm :     0.0004651 Eh/α   predicted    -0.1316539E-05 ( -49.28%)
   displ. norm   :     0.0291430 α      lambda       -0.2249499E-05
   maximum displ.:     0.0172431 α      in ANC's #8, #16, #2, ...

........................................................................
.............................. CYCLE   33 ..............................
........................................................................

 iter      E             dE          RMSdq      gap      omega  full diag
   1    -53.3306680 -0.533307E+02  0.554E-03    3.03       0.0  T
   2    -53.3306680 -0.857143E-08  0.328E-03    3.03       5.1  T
   3    -53.3306680 -0.264791E-08  0.277E-04    3.03      60.9  T
   4    -53.3306680 -0.533021E-09  0.152E-04    3.03     111.5  T
     SCC iter.                  ...        0 min,  0.004 sec
     gradient                   ...        0 min,  0.015 sec
 * total energy  :   -52.6628353 Eh     change       -0.2750438E-05 Eh
   gradient norm :     0.0004997 Eh/α   predicted    -0.1126514E-05 ( -59.04%)
   displ. norm   :     0.0816614 α      lambda       -0.4271168E-05
   maximum displ.:     0.0458999 α      in ANC's #8, #16, #1, ...

........................................................................
.............................. CYCLE   34 ..............................
........................................................................

 iter      E             dE          RMSdq      gap      omega  full diag
   1    -53.3304517 -0.533305E+02  0.148E-02    3.03       0.0  T
   2    -53.3304518 -0.582377E-07  0.881E-03    3.03       1.9  T
   3    -53.3304518 -0.194473E-07  0.738E-04    3.03      22.9  T
   4    -53.3304518 -0.322622E-08  0.435E-04    3.03      38.9  T
     SCC iter.                  ...        0 min,  0.004 sec
     gradient                   ...        0 min,  0.015 sec
 * total energy  :   -52.6628394 Eh     change       -0.4081759E-05 Eh
   gradient norm :     0.0005149 Eh/α   predicted    -0.2142242E-05 ( -47.52%)
   displ. norm   :     0.0403025 α      lambda       -0.1386909E-05
   maximum displ.:     0.0228772 α      in ANC's #8, #16, #1, ...

........................................................................
.............................. CYCLE   35 ..............................
........................................................................

 iter      E             dE          RMSdq      gap      omega  full diag
   1    -53.3303243 -0.533303E+02  0.721E-03    3.03       0.0  T
   2    -53.3303243 -0.179877E-07  0.428E-03    3.03       4.0  T
   3    -53.3303243 -0.211546E-08  0.492E-04    3.03      34.4  T
   4    -53.3303243 -0.400671E-08  0.243E-04    3.03      69.6  T
     SCC iter.                  ...        0 min,  0.004 sec
     gradient                   ...        0 min,  0.015 sec
 * total energy  :   -52.6628410 Eh     change       -0.1618991E-05 Eh
   gradient norm :     0.0004371 Eh/α   predicted    -0.6953707E-06 ( -57.05%)
   displ. norm   :     0.0559555 α      lambda       -0.2019193E-05
   maximum displ.:     0.0286321 α      in ANC's #8, #1, #16, ...

........................................................................
.............................. CYCLE   36 ..............................
........................................................................

 iter      E             dE          RMSdq      gap      omega  full diag
   1    -53.3301656 -0.533302E+02  0.103E-02    3.03       0.0  T
   2    -53.3301656 -0.369368E-07  0.607E-03    3.03       2.8  T
   3    -53.3301656 -0.489567E-08  0.694E-04    3.03      24.4  T
   4    -53.3301656 -0.788055E-08  0.341E-04    3.03      49.5  T
     SCC iter.                  ...        0 min,  0.004 sec
     gradient                   ...        0 min,  0.015 sec
 * total energy  :   -52.6628430 Eh     change       -0.2019953E-05 Eh
   gradient norm :     0.0003812 Eh/α   predicted    -0.1011583E-05 ( -49.92%)
   displ. norm   :     0.0268581 α      lambda       -0.1092439E-05
   maximum displ.:     0.0126360 α      in ANC's #1, #6, #5, ...

........................................................................
.............................. CYCLE   37 ..............................
........................................................................

 iter      E             dE          RMSdq      gap      omega  full diag
   1    -53.3302669 -0.533303E+02  0.513E-03    3.03       0.0  T
   2    -53.3302669 -0.100845E-07  0.301E-03    3.03       5.6  T
   3    -53.3302669 -0.168922E-08  0.260E-04    3.03      65.1  T
   4    -53.3302669 -0.341359E-09  0.121E-04    3.03     140.1  T
     SCC iter.                  ...        0 min,  0.004 sec
     gradient                   ...        0 min,  0.015 sec
 * total energy  :   -52.6628441 Eh     change       -0.1131828E-05 Eh
   gradient norm :     0.0003387 Eh/α   predicted    -0.5504963E-06 ( -51.36%)
   displ. norm   :     0.0231124 α      lambda       -0.7040184E-06
   maximum displ.:     0.0117890 α      in ANC's #1, #5, #16, ...

........................................................................
.............................. CYCLE   38 ..............................
........................................................................

 iter      E             dE          RMSdq      gap      omega  full diag
   1    -53.3303255 -0.533303E+02  0.443E-03    3.03       0.0  T
   2    -53.3303255 -0.811600E-08  0.260E-03    3.03       6.5  T
   3    -53.3303255 -0.903206E-09  0.253E-04    3.03      66.8  T
   4    -53.3303255 -0.668180E-09  0.109E-04    3.03     154.9  T
     SCC iter.                  ...        0 min,  0.004 sec
     gradient                   ...        0 min,  0.015 sec
 * total energy  :   -52.6628448 Eh     change       -0.6895707E-06 Eh
   gradient norm :     0.0002349 Eh/α   predicted    -0.3569182E-06 ( -48.24%)
   displ. norm   :     0.0204457 α      lambda        0.1258261E-06
   maximum displ.:     0.0104666 α      in ANC's #1, #5, #16, ...

........................................................................
.............................. CYCLE   39 ..............................
........................................................................

 iter      E             dE          RMSdq      gap      omega  full diag
   1    -53.3303720 -0.533304E+02  0.394E-03    3.03       0.0  T
   2    -53.3303721 -0.728323E-08  0.231E-03    3.03       7.3  T
   3    -53.3303721 -0.480632E-09  0.256E-04    3.03      66.0  T
   4    -53.3303721 -0.857796E-09  0.103E-04    3.03     164.2  T
     SCC iter.                  ...        0 min,  0.004 sec
     gradient                   ...        0 min,  0.015 sec
 * total energy  :   -52.6628447 Eh     change        0.7206861E-07 Eh
   gradient norm :     0.0004516 Eh/α   predicted     0.6036674E-07 ( -16.24%)
   displ. norm   :     0.0074410 α      lambda       -0.5036904E-06
   maximum displ.:     0.0046484 α      in ANC's #13, #6, #15, ...

........................................................................
.............................. CYCLE   40 ..............................
........................................................................

 iter      E             dE          RMSdq      gap      omega  full diag
   1    -53.3303713 -0.533304E+02  0.183E-03    3.03       0.0  T
   2    -53.3303713 -0.781919E-08  0.106E-03    3.03      16.0  T
   3    -53.3303713 -0.670752E-10  0.340E-04    3.03      49.7  T
   4    -53.3303713 -0.821139E-09  0.821E-05    3.03     205.8  T
     SCC iter.                  ...        0 min,  0.004 sec
     gradient                   ...        0 min,  0.015 sec
 * total energy  :   -52.6628452 Eh     change       -0.4967802E-06 Eh
   gradient norm :     0.0001680 Eh/α   predicted    -0.2549619E-06 ( -48.68%)
   displ. norm   :     0.0057294 α      lambda        0.5427934E-07
   maximum displ.:     0.0036166 α      in ANC's #13, #6, #15, ...

........................................................................
.............................. CYCLE   41 ..............................
........................................................................

 iter      E             dE          RMSdq      gap      omega  full diag
   1    -53.3303688 -0.533304E+02  0.148E-03    3.03       0.0  T
   2    -53.3303688 -0.590568E-08  0.855E-04    3.03      19.8  T
   3    -53.3303688 -0.444658E-10  0.304E-04    3.03      55.6  T
     SCC iter.                  ...        0 min,  0.003 sec
     gradient                   ...        0 min,  0.015 sec
 * total energy  :   -52.6628452 Eh     change        0.3185750E-07 Eh
   gradient norm :     0.0003823 Eh/α   predicted     0.2227170E-07 ( -30.09%)
   displ. norm   :     0.0048096 α      lambda       -0.2802173E-06
   maximum displ.:     0.0023096 α      in ANC's #9, #1, #6, ...

........................................................................
.............................. CYCLE   42 ..............................
........................................................................

 iter      E             dE          RMSdq      gap      omega  full diag
   1    -53.3303568 -0.533304E+02  0.119E-03    3.03       0.0  T
   2    -53.3303568 -0.496436E-08  0.684E-04    3.03      24.7  T
   3    -53.3303568 -0.930953E-10  0.255E-04    3.03      66.2  T
     SCC iter.                  ...        0 min,  0.003 sec
     gradient                   ...        0 min,  0.015 sec
 * total energy  :   -52.6628455 Eh     change       -0.3024725E-06 Eh
   gradient norm :     0.0000934 Eh/α   predicted    -0.1419325E-06 ( -53.08%)
   displ. norm   :     0.0101867 α      lambda       -0.2221168E-06
   maximum displ.:     0.0050415 α      in ANC's #9, #1, #11, ...
 * RMSD in coord.:     0.1709965 α      energy gain  -0.2182686E-03 Eh

generating ANC from exact Hessian ...
Using Lindh-Hessian (1995)
 Shifting diagonal of input Hessian by   9.220192061669063E-003
 Lowest  eigenvalues of input Hessian
    0.000000    0.000000    0.000000    0.000000    0.000000    0.000000
    0.010000    0.010122    0.010175    0.010935    0.011840    0.013485
    0.015559    0.016361    0.017535    0.018147    0.019260    0.019727
 Highest eigenvalues
    1.949786    2.010823    2.143316    2.240002    2.276731    2.488675
 

........................................................................
.............................. CYCLE   43 ..............................
........................................................................

 iter      E             dE          RMSdq      gap      omega  full diag
   1    -53.3303653 -0.533304E+02  0.202E-03    3.03       0.0  T
   2    -53.3303653 -0.290633E-08  0.119E-03    3.03      14.2  T
   3    -53.3303653  0.149626E-09  0.177E-04    3.03      95.7  T
   4    -53.3303653 -0.479545E-09  0.727E-05    3.03     232.7  T
     SCC iter.                  ...        0 min,  0.004 sec
     gradient                   ...        0 min,  0.015 sec
 * total energy  :   -52.6628458 Eh     change       -0.2532684E-06 Eh
   gradient norm :     0.0001437 Eh/α   predicted     0.0000000E+00 (-100.00%)
   displ. norm   :     0.0029890 α      lambda       -0.8352892E-07
   maximum displ.:     0.0013168 α      in ANC's #5, #1, #9, ...

........................................................................
.............................. CYCLE   44 ..............................
........................................................................

 iter      E             dE          RMSdq      gap      omega  full diag
   1    -53.3303490 -0.533303E+02  0.624E-04    3.03       0.0  T
   2    -53.3303490 -0.119153E-08  0.366E-04    3.03      46.2  T
   3    -53.3303490 -0.165983E-10  0.135E-04    3.03     125.5  T
     SCC iter.                  ...        0 min,  0.003 sec
     gradient                   ...        0 min,  0.015 sec
 * total energy  :   -52.6628459 Eh     change       -0.1013013E-06 Eh
   gradient norm :     0.0000583 Eh/α   predicted    -0.4604367E-07 ( -54.55%)
   displ. norm   :     0.0096559 α      lambda       -0.1187091E-06
   maximum displ.:     0.0044538 α      in ANC's #1, #5, #9, ...

........................................................................
.............................. CYCLE   45 ..............................
........................................................................

 iter      E             dE          RMSdq      gap      omega  full diag
   1    -53.3303259 -0.533303E+02  0.178E-03    3.03       0.0  T
   2    -53.3303259 -0.275465E-08  0.106E-03    3.03      16.0  T
   3    -53.3303259  0.574119E-11  0.179E-04    3.03      94.4  T
   4    -53.3303259 -0.425771E-09  0.639E-05    3.03     264.5  T
     SCC iter.                  ...        0 min,  0.004 sec
     gradient                   ...        0 min,  0.015 sec
 * total energy  :   -52.6628461 Eh     change       -0.2177603E-06 Eh
   gradient norm :     0.0001965 Eh/α   predicted    -0.9075710E-07 ( -58.32%)
   displ. norm   :     0.0226668 α      lambda       -0.3221722E-06
   maximum displ.:     0.0106641 α      in ANC's #1, #9, #5, ...

........................................................................
.............................. CYCLE   46 ..............................
........................................................................

 iter      E             dE          RMSdq      gap      omega  full diag
   1    -53.3303118 -0.533303E+02  0.408E-03    3.03       0.0  T
   2    -53.3303118 -0.509152E-08  0.241E-03    3.03       7.0  T
   3    -53.3303118  0.136104E-09  0.300E-04    3.03      56.3  T
   4    -53.3303118 -0.198543E-08  0.122E-04    3.03     138.6  T
     SCC iter.                  ...        0 min,  0.004 sec
     gradient                   ...        0 min,  0.015 sec
 * total energy  :   -52.6628465 Eh     change       -0.3657288E-06 Eh
   gradient norm :     0.0002606 Eh/α   predicted    -0.1698558E-06 ( -53.56%)
   displ. norm   :     0.0224180 α      lambda       -0.2297279E-06
   maximum displ.:     0.0114293 α      in ANC's #1, #9, #5, ...

........................................................................
.............................. CYCLE   47 ..............................
........................................................................

 iter      E             dE          RMSdq      gap      omega  full diag
   1    -53.3303123 -0.533303E+02  0.401E-03    3.03       0.0  T
   2    -53.3303124 -0.368710E-08  0.238E-03    3.03       7.1  T
   3    -53.3303124  0.378478E-09  0.298E-04    3.03      56.6  T
   4    -53.3303124 -0.195187E-08  0.111E-04    3.03     152.4  T
     SCC iter.                  ...        0 min,  0.004 sec
     gradient                   ...        0 min,  0.015 sec
 * total energy  :   -52.6628468 Eh     change       -0.3089768E-06 Eh
   gradient norm :     0.0002254 Eh/α   predicted    -0.1319871E-06 ( -57.28%)
   displ. norm   :     0.0228600 α      lambda       -0.2732604E-06
   maximum displ.:     0.0124094 α      in ANC's #1, #9, #11, ...

........................................................................
.............................. CYCLE   48 ..............................
........................................................................

 iter      E             dE          RMSdq      gap      omega  full diag
   1    -53.3303271 -0.533303E+02  0.400E-03    3.03       0.0  T
   2    -53.3303271 -0.394908E-08  0.237E-03    3.03       7.1  T
   3    -53.3303271 -0.236710E-09  0.242E-04    3.03      69.8  T
   4    -53.3303271 -0.961052E-09  0.105E-04    3.03     160.5  T
     SCC iter.                  ...        0 min,  0.004 sec
     gradient                   ...        0 min,  0.015 sec
 * total energy  :   -52.6628471 Eh     change       -0.3175908E-06 Eh
   gradient norm :     0.0001174 Eh/α   predicted    -0.1382666E-06 ( -56.46%)
   displ. norm   :     0.0217313 α      lambda       -0.2278866E-06
   maximum displ.:     0.0125778 α      in ANC's #1, #9, #11, ...

........................................................................
.............................. CYCLE   49 ..............................
........................................................................

 iter      E             dE          RMSdq      gap      omega  full diag
   1    -53.3303350 -0.533303E+02  0.370E-03    3.03       0.0  T
   2    -53.3303350 -0.363510E-08  0.219E-03    3.03       7.7  T
   3    -53.3303350 -0.347065E-09  0.182E-04    3.03      92.8  T
   4    -53.3303350 -0.423135E-09  0.915E-05    3.03     184.8  T
     SCC iter.                  ...        0 min,  0.004 sec
     gradient                   ...        0 min,  0.015 sec
 * total energy  :   -52.6628473 Eh     change       -0.2592916E-06 Eh
   gradient norm :     0.0000885 Eh/α   predicted    -0.1144460E-06 ( -55.86%)
   displ. norm   :     0.0165103 α      lambda       -0.1486166E-06
   maximum displ.:     0.0101285 α      in ANC's #1, #9, #11, ...

........................................................................
.............................. CYCLE   50 ..............................
........................................................................

 iter      E             dE          RMSdq      gap      omega  full diag
   1    -53.3303383 -0.533303E+02  0.279E-03    3.03       0.0  T
   2    -53.3303383 -0.222853E-08  0.165E-03    3.03      10.2  T
   3    -53.3303383  0.323631E-09  0.178E-04    3.03      95.0  T
   4    -53.3303383 -0.762029E-09  0.704E-05    3.03     240.1  T
     SCC iter.                  ...        0 min,  0.004 sec
     gradient                   ...        0 min,  0.015 sec
 * total energy  :   -52.6628475 Eh     change       -0.1756695E-06 Eh
   gradient norm :     0.0001082 Eh/α   predicted    -0.7574855E-07 ( -56.88%)
   displ. norm   :     0.0145563 α      lambda       -0.1063782E-06
   maximum displ.:     0.0094658 α      in ANC's #1, #9, #10, ...

........................................................................
.............................. CYCLE   51 ..............................
........................................................................

 iter      E             dE          RMSdq      gap      omega  full diag
   1    -53.3303278 -0.533303E+02  0.246E-03    3.03       0.0  T
   2    -53.3303278 -0.133512E-08  0.146E-03    3.03      11.6  T
   3    -53.3303278  0.414651E-09  0.170E-04    3.03      99.5  T
   4    -53.3303278 -0.809692E-09  0.593E-05    3.03     285.1  T
     SCC iter.                  ...        0 min,  0.004 sec
     gradient                   ...        0 min,  0.015 sec
 * total energy  :   -52.6628476 Eh     change       -0.1314069E-06 Eh
   gradient norm :     0.0000930 Eh/α   predicted    -0.5640981E-07 ( -57.07%)
   displ. norm   :     0.0092719 α      lambda       -0.7157933E-07
   maximum displ.:     0.0063915 α      in ANC's #1, #10, #9, ...

........................................................................
.............................. CYCLE   52 ..............................
........................................................................

 iter      E             dE          RMSdq      gap      omega  full diag
   1    -53.3303297 -0.533303E+02  0.162E-03    3.03       0.0  T
   2    -53.3303297 -0.545597E-09  0.956E-04    3.03      17.7  T
   3    -53.3303297  0.116522E-09  0.111E-04    3.03     152.5  T
     SCC iter.                  ...        0 min,  0.003 sec
     gradient                   ...        0 min,  0.015 sec
 * total energy  :   -52.6628477 Eh     change       -0.9005949E-07 Eh
   gradient norm :     0.0000535 Eh/α   predicted    -0.3745595E-07 ( -58.41%)
   displ. norm   :     0.0082656 α      lambda       -0.5231185E-07
   maximum displ.:     0.0059852 α      in ANC's #1, #10, #8, ...

   *** GEOMETRY OPTIMIZATION CONVERGED AFTER 52 ITERATIONS ***

------------------------------------------------------------------------
 total energy gain   :        -0.0083852 Eh       -5.2618 kcal/mol
 total RMSD          :         0.7916405 a0        0.4189 Å
 total power (kW/mol):        -0.4233734 (step)  -15.1814 (real)
------------------------------------------------------------------------

 ANCopt (total)                0 d,  0 h,  0 min,  1.450 sec
 optimizer setup                ...        0 min,  0.000 sec (  0.026%)
 model hessian                  ...        0 min,  0.025 sec (  1.733%)
 ANC generation                 ...        0 min,  0.002 sec (  0.157%)
 coordinate transformation      ...        0 min,  0.000 sec (  0.032%)
 single point calculation       ...        0 min,  1.404 sec ( 96.835%)
 optimization log               ...        0 min,  0.013 sec (  0.872%)
 hessian update                 ...        0 min,  0.000 sec (  0.034%)
 rational function              ...        0 min,  0.003 sec (  0.183%)

================
 final structure:
================
$coord
       -0.67116508097860       -5.05957114197501       -0.34370241812469      C
        0.89574299838971       -2.71998074049903       -0.10891827863856      C
        3.47911119683804       -2.64072030984193       -0.70715531128402      C
        4.83901835649018       -0.56422156316146       -0.45107107260107      N
        3.69924373123153        1.53633621426575        0.39997230890795      C
        1.21507825778866        1.67499998973729        0.94252684397140      N
       -0.09943914489216       -0.41799715126710        0.66625633196417      C
       -2.64028883142345       -0.19109377611438        1.30581978664802      O
       -4.31723595475276       -0.18697988394526       -0.65355337951478      C
       -3.64820312870652       -0.39326664868961       -2.85514234324600      O
       -6.70591313447448        0.05676298126705        0.11236358989221      N
       -8.73334885147252        0.07215809723666       -1.72428722432278      C
       -7.46538270161660        0.31520794455274        2.72647511800790      C
        5.10286701810242        3.61184493383181        0.71617034507080      N
        4.03867279534826        5.96375465893190        1.58961455615535      C
        7.76911091565427        3.64537097589271        0.14555239048339      C
        4.83224768224613       -4.92201428721137       -1.67163434640910      C
       -1.29036415865154       -5.30075167564056       -2.29514950696834      H
        0.40800924087159       -6.71443300430507        0.21589380229779      H
       -2.34377367678911       -4.91690674744294        0.84445881387344      H
       -9.75238463116546        1.85953508931856       -1.62396312091037      H
      -10.03186834597472       -1.47944032688875       -1.33709035390740      H
       -7.92224792923284       -0.15420429574975       -3.59833610250084      H
       -8.58696965999301       -1.32136721013190        3.28706636638050      H
       -8.60687374991184        2.01740150219783        2.93306392689745      H
       -5.80675723103697        0.45488953120928        3.92430916315581      H
        4.29313388249901        7.42379115549873        0.15491775220603      H
        4.98649520506762        6.55472813132723        3.32307315234344      H
        2.03793108183771        5.69531721193666        1.95080771395571      H
        8.83205873774133        4.17395217627006        1.83120663065774      H
        8.14836286055371        5.01990419434854       -1.34442701049774      H
        8.33668609139754        1.77600921554350       -0.47729581009282      H
        6.75573662011869       -4.41151272904520       -2.16409020600256      H
        4.86617808467613       -6.38343655032120       -0.22541808789153      H
        3.86247949512629       -5.66886351485541       -3.32193452284029      H
$end
 
 Bond Distances (Angstroems)
 ---------------------------
C1-C2=1.4952         C1-H18=1.0909        C1-H19=1.0866        C1-H20=1.0883        C2-C1=1.4952         C2-C3=1.4039         
C2-C7=1.3891         C3-C2=1.4039         C3-N4=1.3205         C3-C17=1.4935        N4-C3=1.3205         N4-C5=1.3425         
C5-N4=1.3425         C5-N6=1.3476         C5-N14=1.3364        N6-C5=1.3476         N6-C7=1.3160         C7-C2=1.3891         
C7-N6=1.3160         C7-O8=1.3917         O8-C7=1.3917         O8-C9=1.3648         C9-O8=1.3648         C9-O10=1.2225        
C9-N11=1.3337        O10-C9=1.2225        N11-C9=1.3337        N11-C12=1.4477       N11-C13=1.4470       C12-N11=1.4477       
C12-H21=1.0901       C12-H22=1.0901       C12-H23=1.0872       C13-N11=1.4470       C13-H24=1.0910       C13-H25=1.0900       
C13-H26=1.0852       N14-C5=1.3364        N14-C15=1.4421       N14-C16=1.4430       C15-N14=1.4421       C15-H27=1.0915       
C15-H28=1.0912       C15-H29=1.0852       C16-N14=1.4430       C16-H30=1.0910       C16-H31=1.0913       C16-H32=1.0851       
C17-C3=1.4935        C17-H33=1.0849       C17-H34=1.0882       C17-H35=1.0873       H18-C1=1.0909        H19-C1=1.0866        
H20-C1=1.0883        H21-C12=1.0901       H22-C12=1.0901       H23-C12=1.0872       H24-C13=1.0910       H25-C13=1.0900       
H26-C13=1.0852       H27-C15=1.0915       H28-C15=1.0912       H29-C15=1.0852       H30-C16=1.0910       H31-C16=1.0913       
H32-C16=1.0851       H33-C17=1.0849       H34-C17=1.0882       H35-C17=1.0873       
 C  H  Rav=1.0886 sigma=0.0024  Rmin=1.0849  Rmax=1.0915    18
 C  C  Rav=1.4454 sigma=0.0492  Rmin=1.3891  Rmax=1.4952     4
 N  C  Rav=1.3776 sigma=0.0557  Rmin=1.3160  Rmax=1.4477    10
 O  C  Rav=1.3263 sigma=0.0742  Rmin=1.2225  Rmax=1.3917     3
 
 selected bond angles (degree)
 --------------------
H18-C1-C2=110.00               H19-C1-C2=110.68               H19-C1-H18=108.76              H20-C1-C2=110.22               
H20-C1-H18=108.10              H20-C1-H19=109.02              C3-C2-C1=123.09                C7-C2-C1=122.71                
C7-C2-C3=114.18                N4-C3-C2=122.17                C17-C3-C2=121.32               C17-C3-N4=116.51               
C5-N4-C3=118.59                N6-C5-N4=123.70                N14-C5-N4=118.22               N14-C5-N6=118.08               
C7-N6-C5=116.50                N6-C7-C2=124.78                O8-C7-C2=120.91                O8-C7-N6=114.27                
C9-O8-C7=116.33                O10-C9-O8=122.38               N11-C9-O8=112.68               N11-C9-O10=124.94              
 
 selected dihedral angles (degree)
 ---------------------------------
C3-C2-C1-H18=277.61           C3-C2-C1-H19= 37.82           C3-C2-C1-H20=158.50           C7-C2-C1-H18= 96.05           
C7-C2-C1-H19=216.27           C7-C2-C1-H20=336.95           N4-C3-C2-C1=181.03            N4-C3-C2-C7=  2.47            
C17-C3-C2-C1=  1.02           C17-C3-C2-C7=182.45           C5-N4-C3-C2=359.71            C5-N4-C3-C17=179.72           
N6-C5-N4-C3=357.95            N14-C5-N4-C3=178.29           C7-N6-C5-N4=  1.87            C7-N6-C5-N14=181.53           
N6-C7-C2-C1=178.73            N6-C7-C2-C3=357.30            O8-C7-C2-C1=  0.95            O8-C7-C2-C3=179.52            
C2-C7-N6-C5=  0.67            O8-C7-N6-C5=178.58            C9-O8-C7-C2=285.41            C9-O8-C7-N6=107.41            
O10-C9-O8-C7=  0.65           N11-C9-O8-C7=180.50           
           -------------------------------------------------
          |                Final Singlepoint                |
           -------------------------------------------------

          ...................................................
          :                      SETUP                      :
          :.................................................:
          :  # basis functions                  86          :
          :  # atomic orbitals                  86          :
          :  # shells                           52          :
          :  # electrons                        94          :
          :  max. iterations                   250          :
          :  Hamiltonian                  GFN2-xTB          :
          :  restarted?                      false          :
          :  GBSA solvation                   true          :
          :  PC potential                    false          :
          :  electronic temp.          300.0000000     K    :
          :  accuracy                    1.0000000          :
          :  -> integral cutoff          0.2500000E+02      :
          :  -> integral neglect         0.1000000E-07      :
          :  -> SCF convergence          0.1000000E-05 Eh   :
          :  -> wf. convergence          0.1000000E-03 e    :
          :  Broyden damping             0.4000000          :
          :  net charge                          0          :
          :  unpaired electrons                  0          :
          ...................................................

 iter      E             dE          RMSdq      gap      omega  full diag
   1    -53.3303297 -0.533303E+02  0.421E-05    3.03       0.0  T
   2    -53.3303297 -0.778755E-11  0.244E-05    3.03     692.4  T
   3    -53.3303297 -0.184741E-11  0.148E-05    3.03    1138.6  T

   *** convergence criteria satisfied after 3 iterations ***

         #    Occupation            Energy/Eh            Energy/eV
      -------------------------------------------------------------
         1        2.0000           -0.7491848             -20.3864
       ...           ...                  ...                  ...
        41        2.0000           -0.4445251             -12.0961
        42        2.0000           -0.4301621             -11.7053
        43        2.0000           -0.4229450             -11.5089
        44        2.0000           -0.4125033             -11.2248
        45        2.0000           -0.3990283             -10.8581
[...]
        57                          0.1021133               2.7786
        58                          0.1320207               3.5925
       ...                                ...                  ...
        86                          0.6334978              17.2384
      -------------------------------------------------------------
                  HL-Gap            0.1112111 Eh            3.0262 eV
             Fermi-level           -0.3079902 Eh           -8.3808 eV

     #   Z          covCN         q      C6AA      α(0)
     1   6 C        3.755    -0.101    22.490     6.762
     2   6 C        2.955    -0.061    29.513     8.911
     3   6 C        2.964     0.109    25.594     8.298
     4   7 N        1.850    -0.329    29.384     8.034
     5   6 C        2.892     0.223    23.324     7.918
     6   7 N        1.843    -0.357    30.141     8.136
     7   6 C        2.890     0.232    23.153     7.889
     8   8 O        1.710    -0.318    19.316     5.934
     9   6 C        2.675     0.401    20.232     7.360
    10   8 O        0.858    -0.563    25.224     6.734
    11   7 N        2.730    -0.087    22.939     7.113
    12   6 C        3.704    -0.069    21.982     6.703
    13   6 C        3.697    -0.072    22.059     6.718
    14   7 N        2.748    -0.060    22.393     7.028
    15   6 C        3.701    -0.075    22.097     6.722
    16   6 C        3.702    -0.078    22.162     6.732
    17   6 C        3.761    -0.135    23.135     6.857
    18   1 H        0.924     0.051     2.314     2.379
    19   1 H        0.925     0.061     2.187     2.312
    20   1 H        0.925     0.037     2.486     2.466
    21   1 H        0.925     0.083     1.951     2.184
    22   1 H        0.925     0.084     1.937     2.177
    23   1 H        0.925     0.079     1.995     2.209
    24   1 H        0.924     0.083     1.949     2.183
    25   1 H        0.925     0.087     1.908     2.160
    26   1 H        0.925     0.083     1.949     2.183
    27   1 H        0.924     0.072     2.061     2.245
    28   1 H        0.924     0.075     2.027     2.226
    29   1 H        0.925     0.082     1.955     2.187
    30   1 H        0.924     0.076     2.018     2.221
    31   1 H        0.924     0.074     2.046     2.237
    32   1 H        0.925     0.090     1.874     2.141
    33   1 H        0.925     0.078     2.000     2.212
    34   1 H        0.925     0.074     2.038     2.232
    35   1 H        0.925     0.071     2.072     2.251

 Mol. C6AA /au·bohr⁶  :      11732.095399
 Mol. C8AA /au·bohr⁸  :     261715.058002
 Mol. α(0) /au        :        164.054087


Wiberg/Mayer (AO) data.
largest (>0.10) Wiberg bond orders for each atom

 ---------------------------------------------------------------------------
     #   Z sym  total        # sym  WBO       # sym  WBO       # sym  WBO
 ---------------------------------------------------------------------------
     1   6 C    3.995 --     2 C    1.026    20 H    0.983    19 H    0.976
                            18 H    0.967
     2   6 C    3.973 --     7 C    1.368     3 C    1.325     1 C    1.026
     3   6 C    3.971 --     4 N    1.441     2 C    1.325    17 C    1.030
     4   7 N    3.029 --     3 C    1.441     5 C    1.273
     5   6 C    3.970 --    14 N    1.289     4 N    1.273     6 N    1.253
     6   7 N    3.016 --     7 C    1.417     5 C    1.253
     7   6 C    3.920 --     6 N    1.417     2 C    1.368     8 O    0.951
     8   8 O    2.246 --     9 C    1.013     7 C    0.951    10 O    0.113
     9   6 C    3.934 --    10 O    1.548    11 N    1.286     8 O    1.013
    10   8 O    1.882 --     9 C    1.548    11 N    0.173     8 O    0.113
    11   7 N    3.509 --     9 C    1.286    13 C    0.987    12 C    0.986
                            10 O    0.173
    12   6 C    3.947 --    11 N    0.986    23 H    0.978    21 H    0.973
                            22 H    0.973
    13   6 C    3.947 --    11 N    0.987    26 H    0.976    25 H    0.972
                            24 H    0.972
    14   7 N    3.519 --     5 C    1.289    15 C    0.996    16 C    0.994
    15   6 C    3.956 --    14 N    0.996    29 H    0.975    27 H    0.973
                            28 H    0.973
    16   6 C    3.953 --    14 N    0.994    32 H    0.973    30 H    0.973
                            31 H    0.973
    17   6 C    3.990 --     3 C    1.030    33 H    0.981    35 H    0.965
                            34 H    0.959
    18   1 H    0.995 --     1 C    0.967
    19   1 H    0.995 --     1 C    0.976
    20   1 H    0.998 --     1 C    0.983
    21   1 H    0.993 --    12 C    0.973
    22   1 H    0.992 --    12 C    0.973
    23   1 H    0.994 --    12 C    0.978
    24   1 H    0.993 --    13 C    0.972
    25   1 H    0.992 --    13 C    0.972
    26   1 H    0.993 --    13 C    0.976
    27   1 H    0.992 --    15 C    0.973
    28   1 H    0.992 --    15 C    0.973
    29   1 H    0.993 --    15 C    0.975
    30   1 H    0.992 --    16 C    0.973
    31   1 H    0.992 --    16 C    0.973
    32   1 H    0.992 --    16 C    0.973
    33   1 H    0.994 --    17 C    0.981
    34   1 H    0.994 --    17 C    0.959
    35   1 H    0.994 --    17 C    0.965
 ---------------------------------------------------------------------------

Topologies differ in total number of bonds
Writing topology from bond orders to xtbtopo.mol

molecular dipole:
                 x           y           z       tot (Debye)
 q only:       -0.104       0.500       1.164
   full:       -0.431       0.177       1.180       3.225
molecular quadrupole (traceless):
                xx          xy          yy          xz          yz          zz
 q only:       25.710       6.429      -1.761      -6.921       3.512     -23.949
  q+dip:       20.370       6.586       1.825      -6.551       2.021     -22.195
   full:       19.845       6.421       0.966      -5.943       1.574     -20.811

           -------------------------------------------------
          |                Geometry Summary                 |
           -------------------------------------------------

      molecular mass/u    :      238.2866511
   center of mass at/Å    :        0.0023792       0.0070778      -0.0008419
  moments of inertia/u·Å² :        0.6642470E+03   0.1759696E+04   0.2217349E+04
rotational constants/cm⁻¹ :        0.2537856E-01   0.9579856E-02   0.7602605E-02

 * 33 selected distances

     #   Z          #   Z                                           value/Å
     2   6 C        3   6 C                                       1.4038626
     3   6 C        4   7 N                                       1.3204827
     4   7 N        5   6 C                                       1.3424534
     5   6 C        6   7 N                                       1.3475508
     2   6 C        7   6 C                                       1.3890688
     6   7 N        7   6 C                                       1.3160372
     7   6 C        8   8 O                                       1.3916903
     8   8 O        9   6 C                                       1.3647554
     9   6 C       10   8 O                                       1.2225201
     9   6 C       11   7 N                                       1.3336756
    11   7 N       12   6 C                                       1.4476668 (max)
    11   7 N       13   6 C                                       1.4470039
     5   6 C       14   7 N                                       1.3364084
    14   7 N       15   6 C                                       1.4421312
    14   7 N       16   6 C                                       1.4429748
     1   6 C       18   1 H                                       1.0908911
     1   6 C       19   1 H                                       1.0865973
     1   6 C       20   1 H                                       1.0883183
    12   6 C       21   1 H                                       1.0900558
    12   6 C       22   1 H                                       1.0900964
    12   6 C       23   1 H                                       1.0872222
    13   6 C       24   1 H                                       1.0910036
    13   6 C       25   1 H                                       1.0900465
    13   6 C       26   1 H                                       1.0851819
    15   6 C       27   1 H                                       1.0915443
    15   6 C       28   1 H                                       1.0912471
    15   6 C       29   1 H                                       1.0851988
    16   6 C       30   1 H                                       1.0910150
    16   6 C       31   1 H                                       1.0913391
    16   6 C       32   1 H                                       1.0850837
    17   6 C       33   1 H                                       1.0848694 (min)
    17   6 C       34   1 H                                       1.0881572
    17   6 C       35   1 H                                       1.0872918

 * 4 distinct bonds (by element types)

   Z      Z             #   av. dist./Å        max./Å        min./Å
   1 H    6 C          18     1.0886200     1.0915443     1.0848694
   6 C    6 C           2     1.3964657     1.4038626     1.3890688
   6 C    7 N          10     1.3776385     1.4476668     1.3160372
   6 C    8 O           3     1.3263219     1.3916903     1.2225201

           -------------------------------------------------
          |               Frequency Printout                |
           -------------------------------------------------
 projected vibrational frequencies (cm⁻¹)
eigval :       -0.00    -0.00    -0.00     0.00     0.00     0.00
eigval :       23.08    35.83    51.18    74.36    76.38    82.12
eigval :       93.78   102.93   114.32   124.12   137.03   154.02
eigval :      169.94   170.03   213.95   227.67   230.44   245.98
eigval :      289.77   302.38   317.58   342.96   346.66   394.41
eigval :      436.36   476.55   540.18   561.10   572.63   589.31
eigval :      621.07   656.57   682.85   718.82   775.97   856.41
eigval :      914.76   950.82   991.67  1008.84  1011.45  1035.24
eigval :     1041.06  1045.59  1061.48  1073.24  1087.53  1090.08
eigval :     1113.23  1121.45  1121.89  1178.98  1225.78  1256.10
eigval :     1262.86  1268.44  1370.07  1376.87  1382.13  1389.26
eigval :     1389.83  1395.21  1399.77  1414.72  1416.50  1449.93
eigval :     1451.57  1454.36  1455.70  1456.67  1459.97  1460.42
eigval :     1461.30  1462.64  1472.35  1479.30  1484.14  1505.65
eigval :     1555.67  1601.20  1691.47  2965.80  2970.04  2980.05
eigval :     2984.10  2986.95  2987.61  2988.22  2997.80  3000.13
eigval :     3016.48  3026.75  3032.55  3038.22  3049.21  3071.63
eigval :     3072.20  3072.36  3072.93
 reduced masses (amu)
   1: 12.11   2: 11.67   3: 11.22   4: 11.65   5: 11.76   6: 10.54   7: 10.94   8: 11.10
   9: 10.18  10:  6.74  11:  2.98  12:  7.28  13:  3.15  14:  6.73  15:  2.86  16: 10.57
  17:  2.69  18:  3.09  19:  9.28  20:  9.06  21: 10.80  22:  8.98  23:  9.95  24: 12.46
  25:  9.14  26: 10.91  27: 10.12  28: 10.46  29:  9.89  30: 10.38  31: 10.60  32: 10.54
  33: 11.41  34: 11.49  35: 11.61  36: 11.83  37: 12.42  38: 12.77  39: 12.53  40: 12.22
  41: 11.47  42: 13.27  43: 11.41  44:  8.78  45:  5.82  46:  7.48  47:  7.60  48:  4.44
  49:  4.03  50:  3.91  51:  7.83  52:  9.12  53:  3.02  54:  3.02  55:  7.16  56:  4.07
  57:  4.13  58: 10.82  59:  9.94  60: 12.43  61: 12.64  62: 12.17  63: 10.23  64:  4.34
  65:  3.07  66:  3.37  67:  3.60  68:  4.79  69:  3.51  70:  7.75  71:  9.66  72:  1.56
  73:  1.55  74:  3.68  75:  1.76  76:  1.61  77:  1.73  78:  2.09  79:  1.64  80:  2.20
  81:  3.57  82:  3.18  83:  1.98  84: 10.05  85: 11.10  86: 12.29  87: 13.02  88:  1.95
  89:  1.95  90:  1.89  91:  1.46  92:  1.96  93:  1.55  94:  1.69  95:  1.50  96:  1.45
  97:  1.85  98:  1.75  99:  1.54 100:  1.58 101:  1.74 102:  1.74 103:  1.73 104:  1.74
 105:  1.74
 IR intensities (km·mol⁻¹)
   1:  0.01   2:  0.00   3:  0.20   4:  0.14   5:  0.02   6:  0.48   7:  0.27   8:  9.05
   9:  2.19  10:  6.47  11:  0.92  12:  1.94  13:  0.95  14:  3.07  15:  0.34  16:  3.52
  17:  0.03  18:  0.65  19:  4.40  20:  2.38  21:  0.93  22:  4.16  23:  2.26  24:  1.21
  25:  0.17  26:  2.95  27:  0.65  28: 10.61  29: 15.21  30:  6.14  31:  4.83  32:  3.48
  33:  2.52  34:  7.02  35:  3.33  36: 21.27  37:  1.29  38: 62.75  39: 14.60  40: 36.03
  41: 16.25  42: 26.55  43:  3.92  44: 15.05  45: 42.95  46:186.58  47:117.55  48:  6.75
  49:  4.31  50:  3.94  51:233.46  52:787.95  53:  0.19  54:  0.01  55:555.02  56:  1.26
  57:  8.27  58: 55.00  59: 63.96  60: 27.78  61: 24.83  62: 23.75  63:400.14  64: 71.28
  65: 63.79  66: 24.58  67: 12.56  68: 13.27  69:  1.69  70:143.87  71:157.96  72:  1.40
  73:  0.23  74: 13.04  75: 10.80  76:  4.83  77:  9.52  78: 55.94  79: 22.64  80: 31.37
  81: 71.06  82: 72.55  83:  9.50  84:370.27  85:627.13  86:******  87:******  88: 57.29
  89:  7.56  90: 31.51  91: 39.43  92: 11.92  93:155.90  94: 28.75  95: 12.04  96: 60.97
  97: 18.56  98: 47.05  99: 13.20 100: 41.49 101: 10.29 102:  7.12 103:  8.13 104: 18.54
 105:  4.82
 Raman intensities (Ä⁴*amu⁻¹)
   1:  0.00   2:  0.00   3:  0.00   4:  0.00   5:  0.00   6:  0.00   7:  0.00   8:  0.00
   9:  0.00  10:  0.00  11:  0.00  12:  0.00  13:  0.00  14:  0.00  15:  0.00  16:  0.00
  17:  0.00  18:  0.00  19:  0.00  20:  0.00  21:  0.00  22:  0.00  23:  0.00  24:  0.00
  25:  0.00  26:  0.00  27:  0.00  28:  0.00  29:  0.00  30:  0.00  31:  0.00  32:  0.00
  33:  0.00  34:  0.00  35:  0.00  36:  0.00  37:  0.00  38:  0.00  39:  0.00  40:  0.00
  41:  0.00  42:  0.00  43:  0.00  44:  0.00  45:  0.00  46:  0.00  47:  0.00  48:  0.00
  49:  0.00  50:  0.00  51:  0.00  52:  0.00  53:  0.00  54:  0.00  55:  0.00  56:  0.00
  57:  0.00  58:  0.00  59:  0.00  60:  0.00  61:  0.00  62:  0.00  63:  0.00  64:  0.00
  65:  0.00  66:  0.00  67:  0.00  68:  0.00  69:  0.00  70:  0.00  71:  0.00  72:  0.00
  73:  0.00  74:  0.00  75:  0.00  76:  0.00  77:  0.00  78:  0.00  79:  0.00  80:  0.00
  81:  0.00  82:  0.00  83:  0.00  84:  0.00  85:  0.00  86:  0.00  87:  0.00  88:  0.00
  89:  0.00  90:  0.00  91:  0.00  92:  0.00  93:  0.00  94:  0.00  95:  0.00  96:  0.00
  97:  0.00  98:  0.00  99:  0.00 100:  0.00 101:  0.00 102:  0.00 103:  0.00 104:  0.00
 105:  0.00
 output can be read by thermo (or use thermo option).
 writing <g98.out> molden fake output.
 recommended (thermochemical) frequency scaling factor: 1.0
           -------------------------------------------------
          |             Thermodynamic Functions             |
           -------------------------------------------------

Molecule has no symmetry elements
It seems to be the C1 point group
c1  symmetry found (for desy threshold:  0.10E+00) used in thermo

          ...................................................
          :                      SETUP                      :
          :.................................................:
          :  # frequencies                          99      :
          :  # imaginary freq.                       0      :
          :  linear?                             false      :
          :  only rotor calc.                    false      :
          :  symmetry                               c1      :
          :  rotational number                       1      :
          :  scaling factor                  1.0000000      :
          :  rotor cutoff                    0.0000000 cm⁻¹ :
          :  imag. cutoff                 -100.0000000 cm⁻¹ :
          :.................................................:

    mode    ω/cm⁻¹     T·S(HO)/kcal·mol⁻¹    T·S(FR)/kcal·mol⁻¹   T·S(vib)
   ------------------------------------------------------------------------
       1     23.08    -1.89315 (100.00%)    -1.28540 (  0.00%)    -1.89315
       2     35.83    -1.63306 (100.00%)    -1.15519 (  0.00%)    -1.63306
       3     51.18    -1.42251 (100.00%)    -1.04956 (  0.00%)    -1.42251
       4     74.36    -1.20288 (100.00%)    -0.93893 (  0.00%)    -1.20288
       5     76.38    -1.18717 (100.00%)    -0.93099 (  0.00%)    -1.18717
       6     82.12    -1.14474 (100.00%)    -0.90952 (  0.00%)    -1.14474
       7     93.78    -1.06730 (100.00%)    -0.87022 (  0.00%)    -1.06730
       8    102.93    -1.01316 (100.00%)    -0.84264 (  0.00%)    -1.01316
       9    114.32    -0.95235 (100.00%)    -0.81154 (  0.00%)    -0.95235
      10    124.12    -0.90493 (100.00%)    -0.78717 (  0.00%)    -0.90493
      11    137.03    -0.84823 (100.00%)    -0.75787 (  0.00%)    -0.84823
      12    154.02    -0.78172 (100.00%)    -0.72323 (  0.00%)    -0.78172
      13    169.94    -0.72632 (100.00%)    -0.69410 (  0.00%)    -0.72632
      14    170.03    -0.72602 (100.00%)    -0.69394 (  0.00%)    -0.72602
      15    213.95    -0.59920 (100.00%)    -0.62589 (  0.00%)    -0.59920
      16    227.67    -0.56567 (100.00%)    -0.60747 (  0.00%)    -0.56567
      17    230.44    -0.55918 (100.00%)    -0.60389 (  0.00%)    -0.55918
      18    245.98    -0.52450 (100.00%)    -0.58455 (  0.00%)    -0.52450
      19    289.77    -0.43987 (100.00%)    -0.53603 (  0.00%)    -0.43987
   ------------------------------------------------------------------------

   temp. (K)  partition function   enthalpy   heat capacity  entropy
                                   cal/mol     cal/K/mol   cal/K/mol   J/K/mol
 298.15  VIB  0.191E+09            10840.849     64.113     74.252
         ROT  0.389E+07              888.752      2.981     33.135
         INT  0.743E+15            11729.601     67.094    107.387
         TR   0.356E+28             1481.254      4.968     42.287
         TOT                       13210.8554    72.0622   149.6744   626.2378

       T/K    H(0)-H(T)+PV         H(T)/Eh          T*S/Eh         G(T)/Eh
   ------------------------------------------------------------------------
    298.15    0.210528E-01    0.304500E+00    0.711152E-01    0.233385E+00
   ------------------------------------------------------------------------

         :::::::::::::::::::::::::::::::::::::::::::::::::::::
         ::                  THERMODYNAMIC                  ::
         :::::::::::::::::::::::::::::::::::::::::::::::::::::
         :: total free energy         -52.429462742804 Eh   ::
         ::.................................................::
         :: total energy              -52.662847735885 Eh   ::
         :: zero point energy           0.283447308390 Eh   ::
         :: G(RRHO) w/o ZPVE           -0.050062315309 Eh   ::
         :: G(RRHO) contrib.            0.233384993081 Eh   ::
         :::::::::::::::::::::::::::::::::::::::::::::::::::::

optimized geometry written to: xtbopt.coord


           -------------------------------------------------
          | TOTAL ENERGY              -52.662847735885 Eh   |
          | TOTAL ENTHALPY            -52.358347589337 Eh   |
          | TOTAL FREE ENERGY         -52.429462742804 Eh   |
          | GRADIENT NORM               0.000054453146 Eh/α |
          | HOMO-LUMO GAP               3.026207657632 eV   |
           -------------------------------------------------

------------------------------------------------------------------------
 * finished run on 2025/04/11 at 14:29:58.111     
------------------------------------------------------------------------
 total:
 * wall-time:     0 d,  0 h,  0 min,  7.471 sec
 *  cpu-time:     0 d,  0 h,  0 min,  7.361 sec
 * ratio c/w:     0.985 speedup
 SCF:
 * wall-time:     0 d,  0 h,  0 min,  0.038 sec
 *  cpu-time:     0 d,  0 h,  0 min,  0.038 sec
 * ratio c/w:     0.995 speedup
 ANC optimizer:
 * wall-time:     0 d,  0 h,  0 min,  1.491 sec
 *  cpu-time:     0 d,  0 h,  0 min,  1.469 sec
 * ratio c/w:     0.985 speedup
 analytical hessian:
 * wall-time:     0 d,  0 h,  0 min,  5.849 sec
 *  cpu-time:     0 d,  0 h,  0 min,  5.821 sec
 * ratio c/w:     0.995 speedup

