      -----------------------------------------------------------      
     |                   =====================                   |     
     |                           x T B                           |     
     |                   =====================                   |     
     |                         S. Grimme                         |     
     |          Mulliken Center for Theoretical Chemistry        |     
     |                    University of Bonn                     |     
      -----------------------------------------------------------      

   * xtb version 6.7.1 (edcfbbe) compiled by 'albert@albert-system' on 2024-07-22

   xtb is free software: you can redistribute it and/or modify it under
   the terms of the GNU Lesser General Public License as published by
   the Free Software Foundation, either version 3 of the License, or
   (at your option) any later version.
   
   xtb is distributed in the hope that it will be useful,
   but WITHOUT ANY WARRANTY; without even the implied warranty of
   MERCHANTABILITY or FITNESS FOR A PARTICULAR PURPOSE.  See the
   GNU Lesser General Public License for more details.
   
   Cite this work as:
   * C. Bannwarth, E. Caldeweyher, S. Ehlert, A. Hansen, P. Pracht,
     J. Seibert, S. Spicher, S. Grimme, WIREs Comput. Mol. Sci., 2020, 11,
     e01493. DOI: 10.1002/wcms.1493
   
   for GFN2-xTB:
   * C. Bannwarth, S. Ehlert and S. Grimme., J. Chem. Theory Comput., 2019,
     15, 1652-1671. DOI: 10.1021/acs.jctc.8b01176
   for GFN1-xTB:
   * S. Grimme, C. Bannwarth, P. Shushkov, J. Chem. Theory Comput., 2017,
     13, 1989-2009. DOI: 10.1021/acs.jctc.7b00118
   for GFN0-xTB:
   * P. Pracht, E. Caldeweyher, S. Ehlert, S. Grimme, ChemRxiv, 2019, preprint.
     DOI: 10.26434/chemrxiv.8326202.v1
   for GFN-FF:
   * S. Spicher and S. Grimme, Angew. Chem. Int. Ed., 2020, 59, 15665-15673.
     DOI: 10.1002/anie.202004239
   
   for ALPB and GBSA implicit solvation:
   * S. Ehlert, M. Stahn, S. Spicher, S. Grimme, J. Chem. Theory Comput.,
     2021, 17, 4250-4261. DOI: 10.1021/acs.jctc.1c00471
   
   for ddCOSMO and CPCM-X implicit solvation:
   * M. Stahn, S. Ehlert, S. Grimme, J. Phys. Chem. A,
     2023, XX, XXXX-XXXX. DOI: 10.1021/acs.jpca.3c04382
   
   for DFT-D4:
   * E. Caldeweyher, C. Bannwarth and S. Grimme, J. Chem. Phys., 2017,
     147, 034112. DOI: 10.1063/1.4993215
   * E. Caldeweyher, S. Ehlert, A. Hansen, H. Neugebauer, S. Spicher,
     C. Bannwarth and S. Grimme, J. Chem. Phys., 2019, 150, 154122.
     DOI: 10.1063/1.5090222
   * E. Caldeweyher, J.-M. Mewes, S. Ehlert and S. Grimme, Phys. Chem. Chem. Phys.
     2020, 22, 8499-8512. DOI: 10.1039/D0CP00502A
   
   for sTDA-xTB:
   * S. Grimme and C. Bannwarth, J. Chem. Phys., 2016, 145, 054103.
     DOI: 10.1063/1.4959605
   
   in the mass-spec context:
   * V. Asgeirsson, C. Bauer and S. Grimme, Chem. Sci., 2017, 8, 4879.
     DOI: 10.1039/c7sc00601b
   * J. Koopman and S. Grimme, ACS Omega 2019, 4, 12, 15120-15133.
     DOI: 10.1021/acsomega.9b02011
   
   for metadynamics refer to:
   * S. Grimme, J. Chem. Theory Comput., 2019, 155, 2847-2862
     DOI: 10.1021/acs.jctc.9b00143
   
   for SPH calculations refer to:
   * S. Spicher and S. Grimme, J. Chem. Theory Comput., 2021, 17, 1701-1714
     DOI: 10.1021/acs.jctc.0c01306
   
   for ONIOM refer to:
   * C. Plett, A. Katbashev, S. Ehlert, S. Grimme, M. Bursch,
     Phys. Chem. Chem. Phys., 2023, 25, 17860-17868. DOI: 10.1039/D3CP02178E
   
   for DIPRO refer to:
   * J. Kohn, N. Gildemeister, S. Grimme, D. Fazzi, A. Hansen,
     J. Chem. Phys., 2023, just accepted.
   
   for PTB refer to:
   * S. Grimme, M. Mueller, A. Hansen, J. Chem. Phys., 2023, 158, 124111.
     DOI: 10.1063/5.0137838
   
   with help from (in alphabetical order)
   P. Atkinson, C. Bannwarth, F. Bohle, G. Brandenburg, E. Caldeweyher
   M. Checinski, S. Dohm, S. Ehlert, S. Ehrlich, I. Gerasimov, C. Hölzer
   A. Katbashev, J. Kohn, J. Koopman, C. Lavigne, S. Lehtola, F. März, M. Müller,
   F. Musil, H. Neugebauer, J. Pisarek, C. Plett, P. Pracht, F. Pultar,
   J. Seibert, P. Shushkov, S. Spicher, M. Stahn, M. Steiner, T. Strunk,
   J. Stückrath, T. Rose, and J. Unsleber
   
 * started run on 2025/04/11 at 11:01:03.135     
   ID    Z sym.   atoms
    1    6 C      1-6
    2    1 H      7-20

           -------------------------------------------------
          |                Calculation Setup                |
           -------------------------------------------------

          program call               : /srv/scratch/z5358697/.xtb/bin/xtb gas.coord --gfn2 --sp --chrg 0 --norestart --parallel 1
          hostname                   : k062
          coordinate file            : gas.coord
          omp threads                :                     1


           -------------------------------------------------
          |                 G F N 2 - x T B                 |
           -------------------------------------------------

        Reference                      10.1021/acs.jctc.8b01176
      * Hamiltonian:
        H0-scaling (s, p, d)           1.850000    2.230000    2.230000
        zeta-weighting                 0.500000
      * Dispersion:
        s8                             2.700000
        a1                             0.520000
        a2                             5.000000
        s9                             5.000000
      * Repulsion:
        kExp                           1.500000    1.000000
        rExp                           1.000000
      * Coulomb:
        alpha                          2.000000
        third order                    shell-resolved
        anisotropic                    true
        a3                             3.000000
        a5                             4.000000
        cn-shift                       1.200000
        cn-exp                         4.000000
        max-rad                        5.000000


          ...................................................
          :                      SETUP                      :
          :.................................................:
          :  # basis functions                  38          :
          :  # atomic orbitals                  38          :
          :  # shells                           26          :
          :  # electrons                        38          :
          :  max. iterations                   250          :
          :  Hamiltonian                  GFN2-xTB          :
          :  restarted?                      false          :
          :  GBSA solvation                  false          :
          :  PC potential                    false          :
          :  electronic temp.          300.0000000     K    :
          :  accuracy                    1.0000000          :
          :  -> integral cutoff          0.2500000E+02      :
          :  -> integral neglect         0.1000000E-07      :
          :  -> SCF convergence          0.1000000E-05 Eh   :
          :  -> wf. convergence          0.1000000E-03 e    :
          :  Broyden damping             0.4000000          :
          :  net charge                          0          :
          :  unpaired electrons                  0          :
          ...................................................

 iter      E             dE          RMSdq      gap      omega  full diag
   1    -20.2417601 -0.202418E+02  0.237E+00   13.48       0.0  T
   2    -20.2928667 -0.511066E-01  0.120E+00   13.33       1.0  T
   3    -20.2935267 -0.660023E-03  0.641E-01   13.31       1.0  T
   4    -20.2936728 -0.146006E-03  0.105E-01   13.30       1.0  T
   5    -20.2937135 -0.407621E-04  0.537E-02   13.30       1.0  T
   6    -20.2937138 -0.298187E-06  0.656E-03   13.30       3.4  T
   7    -20.2937142 -0.354847E-06  0.156E-03   13.30      14.4  T
   8    -20.2937142 -0.503818E-08  0.370E-04   13.30      60.5  T
   9    -20.2937142 -0.135511E-09  0.120E-04   13.30     185.9  T

   *** convergence criteria satisfied after 9 iterations ***

         #    Occupation            Energy/Eh            Energy/eV
      -------------------------------------------------------------
         1        2.0000           -0.6231988             -16.9581
       ...           ...                  ...                  ...
        13        2.0000           -0.4592002             -12.4955
        14        2.0000           -0.4503692             -12.2552
        15        2.0000           -0.4362306             -11.8704
        16        2.0000           -0.4342278             -11.8159
        17        2.0000           -0.4169945             -11.3470
        18        2.0000           -0.4154207             -11.3042
        19        2.0000           -0.4131002             -11.2410 (HOMO)
        20                          0.0758096               2.0629 (LUMO)
        21                          0.0877448               2.3877
        22                          0.1019319               2.7737
        23                          0.1168617               3.1800
        24                          0.1262025               3.4341
       ...                                ...                  ...
        38                          0.3345254               9.1029
      -------------------------------------------------------------
                  HL-Gap            0.4889099 Eh           13.3039 eV
             Fermi-level           -0.1686453 Eh           -4.5891 eV

 SCC (total)                   0 d,  0 h,  0 min,  0.030 sec
 SCC setup                      ...        0 min,  0.000 sec (  1.324%)
 Dispersion                     ...        0 min,  0.000 sec (  0.662%)
 classical contributions        ...        0 min,  0.000 sec (  0.172%)
 integral evaluation            ...        0 min,  0.003 sec (  9.845%)
 iterations                     ...        0 min,  0.019 sec ( 63.095%)
 molecular gradient             ...        0 min,  0.007 sec ( 24.086%)
 printout                       ...        0 min,  0.000 sec (  0.734%)

         :::::::::::::::::::::::::::::::::::::::::::::::::::::
         ::                     SUMMARY                     ::
         :::::::::::::::::::::::::::::::::::::::::::::::::::::
         :: total energy             -19.989052506939 Eh    ::
         :: gradient norm              0.001103258971 Eh/a0 ::
         :: HOMO-LUMO gap             13.303915216157 eV    ::
         ::.................................................::
         :: SCC energy               -20.293657052495 Eh    ::
         :: -> isotropic ES            0.004218870151 Eh    ::
         :: -> anisotropic ES          0.007324860077 Eh    ::
         :: -> anisotropic XC          0.012540691492 Eh    ::
         :: -> dispersion             -0.011977892679 Eh    ::
         :: repulsion energy           0.304604545556 Eh    ::
         :: add. restraining           0.000000000000 Eh    ::
         :: total charge              -0.000000000000 e     ::
         :::::::::::::::::::::::::::::::::::::::::::::::::::::

           -------------------------------------------------
          |                Property Printout                |
           -------------------------------------------------

    * Orbital Energies and Occupations

         #    Occupation            Energy/Eh            Energy/eV
      -------------------------------------------------------------
         1        2.0000           -0.6231988             -16.9581
       ...           ...                  ...                  ...
         7        2.0000           -0.5156289             -14.0310
         8        2.0000           -0.5054384             -13.7537
         9        2.0000           -0.4882354             -13.2856
        10        2.0000           -0.4821661             -13.1204
        11        2.0000           -0.4774108             -12.9910
        12        2.0000           -0.4607697             -12.5382
        13        2.0000           -0.4592002             -12.4955
        14        2.0000           -0.4503692             -12.2552
        15        2.0000           -0.4362306             -11.8704
        16        2.0000           -0.4342278             -11.8159
        17        2.0000           -0.4169945             -11.3470
        18        2.0000           -0.4154207             -11.3042
        19        2.0000           -0.4131002             -11.2410 (HOMO)
        20                          0.0758096               2.0629 (LUMO)
        21                          0.0877448               2.3877
        22                          0.1019319               2.7737
        23                          0.1168617               3.1800
        24                          0.1262025               3.4341
        25                          0.1433025               3.8995
        26                          0.1451935               3.9509
        27                          0.1778146               4.8386
        28                          0.1922022               5.2301
        29                          0.1981318               5.3914
        30                          0.2105861               5.7303
       ...                                ...                  ...
        38                          0.3345254               9.1029
      -------------------------------------------------------------
                  HL-Gap            0.4889099 Eh           13.3039 eV
             Fermi-level           -0.1686453 Eh           -4.5891 eV

     #   Z          covCN         q      C6AA      α(0)
     1   6 C        3.751    -0.101    22.487     6.763
     2   6 C        3.802    -0.056    21.588     6.615
     3   6 C        3.849    -0.015    20.814     6.489
     4   6 C        3.755    -0.105    22.567     6.774
     5   6 C        3.801    -0.057    21.599     6.617
     6   6 C        3.750    -0.100    22.483     6.762
     7   1 H        0.925     0.031     2.576     2.510
     8   1 H        0.925     0.035     2.510     2.478
     9   1 H        0.925     0.031     2.576     2.510
    10   1 H        0.924     0.032     2.556     2.500
    11   1 H        0.924     0.028     2.620     2.531
    12   1 H        0.924     0.024     2.666     2.554
    13   1 H        0.925     0.033     2.540     2.492
    14   1 H        0.925     0.035     2.511     2.478
    15   1 H        0.925     0.030     2.589     2.516
    16   1 H        0.924     0.031     2.571     2.507
    17   1 H        0.924     0.028     2.621     2.532
    18   1 H        0.925     0.039     2.464     2.455
    19   1 H        0.925     0.029     2.594     2.519
    20   1 H        0.925     0.029     2.606     2.525

 Mol. C6AA /au·bohr⁶  :       2546.251904
 Mol. C8AA /au·bohr⁸  :      52345.996961
 Mol. α(0) /au        :         75.126070


Wiberg/Mayer (AO) data.
largest (>0.10) Wiberg bond orders for each atom

 ---------------------------------------------------------------------------
     #   Z sym  total        # sym  WBO       # sym  WBO       # sym  WBO
 ---------------------------------------------------------------------------
     1   6 C    3.997 --     2 C    1.019     7 H    0.988     9 H    0.987
                             8 H    0.986
     2   6 C    3.997 --     1 C    1.019     3 C    0.998    11 H    0.977
                            10 H    0.974
     3   6 C    3.995 --     4 C    1.009     2 C    0.998     5 C    0.996
                            12 H    0.968
     4   6 C    3.997 --     3 C    1.009    15 H    0.987    13 H    0.987
                            14 H    0.985
     5   6 C    3.997 --     6 C    1.013     3 C    0.996    17 H    0.980
                            16 H    0.978
     6   6 C    3.997 --     5 C    1.013    19 H    0.991    20 H    0.991
                            18 H    0.981
     7   1 H    0.999 --     1 C    0.988
     8   1 H    0.999 --     1 C    0.986
     9   1 H    0.999 --     1 C    0.987
    10   1 H    0.999 --     2 C    0.974
    11   1 H    0.999 --     2 C    0.977
    12   1 H    0.999 --     3 C    0.968
    13   1 H    0.999 --     4 C    0.987
    14   1 H    0.999 --     4 C    0.985
    15   1 H    0.999 --     4 C    0.987
    16   1 H    0.999 --     5 C    0.978
    17   1 H    0.999 --     5 C    0.980
    18   1 H    0.998 --     6 C    0.981
    19   1 H    0.999 --     6 C    0.991
    20   1 H    0.999 --     6 C    0.991
 ---------------------------------------------------------------------------

Topologies differ in total number of bonds
Writing topology from bond orders to xtbtopo.mol

molecular dipole:
                 x           y           z       tot (Debye)
 q only:        0.001      -0.007       0.017
   full:       -0.001      -0.003       0.016       0.041
molecular quadrupole (traceless):
                xx          xy          yy          xz          yz          zz
 q only:       -0.173       0.131       0.019       0.078       0.062       0.154
  q+dip:       -0.072      -0.160      -0.258      -0.139      -0.375       0.331
   full:       -0.078      -0.037      -0.120      -0.032      -0.183       0.199


           -------------------------------------------------
          | TOTAL ENERGY              -19.989052506939 Eh   |
          | GRADIENT NORM               0.001103258971 Eh/α |
          | HOMO-LUMO GAP              13.303915216157 eV   |
           -------------------------------------------------

------------------------------------------------------------------------
 * finished run on 2025/04/11 at 11:01:03.246     
------------------------------------------------------------------------
 total:
 * wall-time:     0 d,  0 h,  0 min,  0.111 sec
 *  cpu-time:     0 d,  0 h,  0 min,  0.033 sec
 * ratio c/w:     0.298 speedup
 SCF:
 * wall-time:     0 d,  0 h,  0 min,  0.030 sec
 *  cpu-time:     0 d,  0 h,  0 min,  0.018 sec
 * ratio c/w:     0.604 speedup

