21
 energy: -24.058557254061 gnorm: 0.027746193525 xtb: 6.7.1 (edcfbbe)
C            1.51494918994762        0.16348933272804       -1.18960752298537
C            1.13491241117241       -0.20253543706671        0.23759107896804
H            1.02461822930890       -1.29022349780044        0.31728852491566
C           -0.12324060012039        0.48671957724687        0.77469488470859
C           -1.49232305736913        0.13514748845178        0.15884342431609
C           -1.75899349950185        0.76000287871523       -1.21432275921168
C           -1.74299404487531       -1.37408757436021        0.12641380484985
O            2.24126020504479        0.10609065600714        1.12522669580601
H            2.48482848647381       -0.27626735494917       -1.44145392409872
H            0.78215342985931       -0.21084477892562       -1.90779655611240
H            1.58441654435397        1.25232526004188       -1.30343424205679
H           -0.17143018271436        0.23929040395597        1.84279339059446
H            0.03145422557823        1.57353167106326        0.70762268407842
H           -2.22757638799819        0.57406002189378        0.84766954756804
H           -1.48138977824691        1.81975165765506       -1.23242571193545
H           -2.82469759838597        0.68772633938706       -1.45930776323897
H           -1.21096135682611        0.25154058509129       -2.01281897650923
H           -2.77423255749941       -1.58663842156950       -0.17781568659084
H           -1.07944931731283       -1.87183723972880       -0.59060000174075
H           -1.58143856031872       -1.82893236535870        1.11066991830881
H            2.38276398032986        1.06225907275198        1.07793289839298
21
 energy: -24.059540161478 gnorm: 0.012368258818 xtb: 6.7.1 (edcfbbe)
C            1.51623434569735        0.16777494153607       -1.19197819469597
C            1.13075033937226       -0.20514327200553        0.23253364136806
H            1.02319034976951       -1.29119398379021        0.31771470014677
C           -0.12632949653846        0.49286939228732        0.76586417164208
C           -1.49637620023591        0.13498691869469        0.16255718308379
C           -1.75722437240966        0.75603658591731       -1.20899271594084
C           -1.73777034262616       -1.37183606020481        0.12211392731059
O            2.22392060420907        0.08990024507892        1.11897049333696
H            2.48851642862122       -0.26327567387563       -1.42831381119652
H            0.79259044732521       -0.21819407804698       -1.90361809818887
H            1.57638179807270        1.25055274826724       -1.30605790692164
H           -0.16944909379126        0.25105546617993        1.83304679903024
H            0.01802668257890        1.57626885376251        0.68609982014579
H           -2.23281703654538        0.57116416959426        0.85012307454746
H           -1.47950289371556        1.80906628409762       -1.21946250088391
H           -2.81825884915179        0.68374000074790       -1.44721495670659
H           -1.20911583544939        0.24701535093929       -1.99856423632030
H           -2.76530015099291       -1.57893157452112       -0.17582833621574
H           -1.07574457762788       -1.85888290930638       -0.59333120154591
H           -1.57121295661821       -1.81609088954860        1.10285276595877
H            2.38212057095606        1.04368575942638        1.07864909007252
21
 energy: -24.059794430859 gnorm: 0.003842030287 xtb: 6.7.1 (edcfbbe)
C            1.51652889525898        0.16962209145514       -1.19404221429550
C            1.12859224454295       -0.20482626969433        0.23191809721164
H            1.01183618386606       -1.28958329620237        0.31287381285776
C           -0.12893660024027        0.49983952103287        0.76118609283707
C           -1.49850860631555        0.13476545104580        0.16354045400157
C           -1.76035150711584        0.75653744521269       -1.20699547306565
C           -1.73301706309979       -1.37247530832966        0.12195181755178
O            2.21214770264172        0.07234744870676        1.11848520805376
H            2.49512240626396       -0.24925623379037       -1.41761903664414
H            0.80335853637316       -0.22910720191860       -1.90504698426595
H            1.56293482839759        1.24981935289838       -1.30664559766924
H           -0.16568092077680        0.26963188190436        1.83022043344166
H            0.01298201005214        1.57976898889990        0.66422147759933
H           -2.23539062864708        0.56669463081156        0.85219480496602
H           -1.48285801862262        1.80651929494194       -1.21401887272514
H           -2.81851002989352        0.68227355440853       -1.44451092976759
H           -1.20910921047764        0.24620120168459       -1.98900375010929
H           -2.75865527096270       -1.57936780778868       -0.17141124221976
H           -1.07199998256370       -1.84826688641166       -0.59647490007297
H           -1.55889450189009       -1.81386380725121        1.09935179545541
H            2.39103929410877        1.02329422361453        1.08698871488599
21
 energy: -24.059885400844 gnorm: 0.002886348722 xtb: 6.7.1 (edcfbbe)
C            1.51719816434518        0.17079787718389       -1.19364657627881
C            1.12648971648612       -0.20621310705972        0.23305257366798
H            0.99807447906541       -1.29059942229387        0.30694627571567
C           -0.13007533440469        0.50685866710595        0.75803638817996
C           -1.50011845430356        0.13607683056744        0.16537141234911
C           -1.76381501751276        0.75695961047388       -1.20604934445712
C           -1.72878068131392       -1.37280708233732        0.12191299032168
O            2.20673926278572        0.05731380171134        1.12035106544390
H            2.50253891229732       -0.23638636499151       -1.40970289989158
H            0.81330939239336       -0.23980156592552       -1.90706598097838
H            1.54983367547775        1.25122832318942       -1.30785537007962
H           -0.16390835076323        0.28788392712143        1.82939372695745
H            0.01298219014597        1.58509825592937        0.64823410741368
H           -2.23756610496516        0.56467079215952        0.85551852296521
H           -1.48912879673568        1.80748441399139       -1.21199376603178
H           -2.82132680425575        0.67950455244447       -1.44446416465297
H           -1.20901613801288        0.24756283561493       -1.98597522104264
H           -2.75508488858089       -1.58294118742629       -0.16610741498837
H           -1.06956513752212       -1.84322802833990       -0.60141965479107
H           -1.54691762609104       -1.81467618955924        1.09751863110334
H            2.40076730236459        1.00578133567051        1.09510840710111
21
 energy: -24.059956862900 gnorm: 0.003643867822 xtb: 6.7.1 (edcfbbe)
C            1.51909405517747        0.17211094212112       -1.19209843057832
C            1.12286065822026       -0.20847470158198        0.23413188646933
H            0.97783123998610       -1.29205163511300        0.29799125888629
C           -0.13060591949009        0.51633350686188        0.75428651705721
C           -1.50093601098784        0.13826647300148        0.16686633946443
C           -1.76950936966593        0.75792051715053       -1.20509116605442
C           -1.72281662222647       -1.37247150907452        0.12288400025546
O            2.20134763724124        0.03530782153098        1.12522640286937
H            2.51446041573304       -0.21703073099219       -1.39911150303535
H            0.82911275421172       -0.25518526063778       -1.91075500090809
H            1.53104146263349        1.25341823352043       -1.31038153437045
H           -0.16224659702307        0.31367467179476        1.82918014462708
H            0.01529857562810        1.59272606620852        0.62786143234550
H           -2.23948624243099        0.56240896517161        0.85865792124383
H           -1.50278319551140        1.81128126297017       -1.21093441591746
H           -2.82655904787648        0.67252695990449       -1.44573712490638
H           -1.20840755210653        0.25270221766715       -1.98426241766538
H           -2.75149373732287       -1.58800105956347       -0.15533938924879
H           -1.06885327850824       -1.83819400150359       -0.60940649549871
H           -1.52839917144964       -1.81676436524705        1.09590770611396
H            2.41367970666785        0.98006390104067        1.10728757687766
21
 energy: -24.059982559338 gnorm: 0.002667230552 xtb: 6.7.1 (edcfbbe)
C            1.52087155259242        0.17300894823044       -1.19064668820385
C            1.12032157892565       -0.21008367812363        0.23372533428353
H            0.96768502551299       -1.29275079675630        0.29302401076232
C           -0.13014612072893        0.52087403459992        0.75186794332167
C           -1.50092439573259        0.13974844254423        0.16722337014782
C           -1.77250470226140        0.75803578041338       -1.20473910376913
C           -1.72014717191016       -1.37141066455257        0.12386889149132
O            2.19930854885127        0.02302285136659        1.12857672692614
H            2.52124042153709       -0.20592321657601       -1.39299063568230
H            0.83915745693313       -0.26248886729656       -1.91294014201160
H            1.52185536533779        1.25439622281688       -1.31178863977150
H           -0.16137611299541        0.32606275998192        1.82821542855059
H            0.01747231182724        1.59636350218674        0.61823305809950
H           -2.23982264633659        0.56227873668063        0.85968264122276
H           -1.51415469785907        1.81410695571286       -1.21037413264001
H           -2.82897641279488        0.66482919294191       -1.44731420951792
H           -1.20616186918707        0.25798713064562       -1.98429570601985
H           -2.75097082460256       -1.58958144233580       -0.14632738168831
H           -1.07167011830281       -1.83652112108881       -0.61452821039354
H           -1.51720601584804       -1.81705288269776        1.09511877999560
H            2.41877858794166        0.96566638653653        1.11357237292355
21
 energy: -24.060001209895 gnorm: 0.001323873651 xtb: 6.7.1 (edcfbbe)
C            1.52336608171177        0.17401560602504       -1.18938616445953
C            1.11773631684314       -0.21189544026273        0.23201587612814
H            0.96050892323114       -1.29350203657922        0.28841538284116
C           -0.12922696023567        0.52365661077178        0.74942457080735
C           -1.50074579795422        0.14110559652618        0.16704956133630
C           -1.77478930206823        0.75784357683913       -1.20462218513654
C           -1.71908459487039       -1.36985974649995        0.12540683395773
O            2.19760554534460        0.01287812571940        1.13123246304372
H            2.52765408048603       -0.19623777259620       -1.38700306665150
H            0.84935121255670       -0.26755473713204       -1.91537908261495
H            1.51557589421569        1.25508006007713       -1.31243360748027
H           -0.16034867151119        0.33391926229378        1.82649974152970
H            0.01958578362482        1.59840682551057        0.61117123095690
H           -2.23933374919917        0.56351196230383        0.85988253656633
H           -1.52793354307463        1.81708671724364       -1.20899129414103
H           -2.82988999989164        0.65382952781529       -1.45027857058254
H           -1.20106673276738        0.26518800947905       -1.98401837271527
H           -2.75243624255550       -1.58929503316796       -0.13504143436390
H           -1.07782345306777       -1.83540609463204       -0.61946671866788
H           -1.50684135688417       -1.81618175355361        1.09460155426223
H            2.42076632696584        0.95397900904914        1.11808445341065
21
 energy: -24.060013876870 gnorm: 0.001821358335 xtb: 6.7.1 (edcfbbe)
C            1.52666532596009        0.17515893528714       -1.18896056554995
C            1.11568057939051       -0.21382062612899        0.22908100373969
H            0.95677027527958       -1.29465891117072        0.28376903512696
C           -0.12826222364919        0.52430828206522        0.74686601590814
C           -1.50114229252187        0.14234428870702        0.16674632364572
C           -1.77602431712683        0.75737304006880       -1.20479068835971
C           -1.72051646854678       -1.36809868027796        0.12769072222137
O            2.19599801369594        0.00561240713205        1.13241721625237
H            2.53407304866596       -0.18827589546601       -1.38101508998551
H            0.85985825766573       -0.27059980744204       -1.91880552827806
H            1.51240340981176        1.25573908695042       -1.31220216910701
H           -0.15900259300251        0.33618283743203        1.82398239065745
H            0.02117945872341        1.59852910447137        0.60668215775480
H           -2.23851722719079        0.56655342909420        0.85971613891747
H           -1.54436492255512        1.82005453686947       -1.20581789585750
H           -2.82831299549684        0.63884370192045       -1.45588961733421
H           -1.19130518717265        0.27472102118229       -1.98224327131718
H           -2.75668442441222       -1.58713670392130       -0.12099474811590
H           -1.08807381912544       -1.83427684078662       -0.62413853938204
H           -1.49774272366334       -1.81417244628288        1.09438294641252
H            2.41995058617035        0.94618751552629        1.12068787067737
21
 energy: -24.060022628423 gnorm: 0.001224974514 xtb: 6.7.1 (edcfbbe)
C            1.52845113344675        0.17559885339450       -1.18985883277682
C            1.11578381989331       -0.21449322244618        0.22749689415446
H            0.95770138615238       -1.29561310945602        0.28165959680325
C           -0.12820471932455        0.52303410903789        0.74620482603053
C           -1.50187071668425        0.14271067568146        0.16677811881992
C           -1.77554402442237        0.75717268845631       -1.20514806407921
C           -1.72325681365624       -1.36757662630118        0.12925920823108
O            2.19534758445336        0.00535748901920        1.13132139631320
H            2.53661266478213       -0.18680145510595       -1.37932803823763
H            0.86392766206609       -0.27064509399902       -1.92122407435675
H            1.51339880302848        1.25614185700439       -1.31198829085838
H           -0.15831211677931        0.33297201492254        1.82303570400906
H            0.02127418214558        1.59729835553597        0.60722325517679
H           -2.23819667739431        0.56899245590963        0.85959052282092
H           -1.55281943492732        1.82135528579996       -1.20297518485444
H           -2.82528698816759        0.62996275008658       -1.46113831640674
H           -1.18294593130417        0.28057651410719       -1.97979140189582
H           -2.76070460432917       -1.58529531218332       -0.11353157328535
H           -1.09517972768674       -1.83372993492352       -0.62569310427939
H           -1.49550680376247       -1.81309723943878        1.09464023457116
H            2.41796108337017        0.94664722012855        1.12063083212694
21
 energy: -24.060027809040 gnorm: 0.000465483531 xtb: 6.7.1 (edcfbbe)
C            1.53050459446856        0.17606735479741       -1.19105651726861
C            1.11614837596820       -0.21515199400367        0.22610198695087
H            0.95712520718215       -1.29657689695170        0.27829255267498
C           -0.12828825657389        0.52233953614174        0.74540087233619
C           -1.50266242586805        0.14347877310557        0.16704839753402
C           -1.77502474587471        0.75704737124645       -1.20565341628943
C           -1.72616273545640       -1.36686220721868        0.13133338442038
O            2.19461412951565        0.00351317884633        1.13033253376369
H            2.54010457697354       -0.18426059651139       -1.37765564852027
H            0.86916731741231       -0.27192033531160       -1.92434947312683
H            1.51352515272845        1.25675643139051       -1.31284111133233
H           -0.15759196362222        0.33091045991241        1.82215526654737
H            0.02182999901468        1.59669234744605        0.60744195387292
H           -2.23819032404324        0.57179236575079        0.85953319522408
H           -1.56599186217456        1.82409725136795       -1.19910856981762
H           -2.82132517733374        0.61659459473856       -1.46901760097324
H           -1.17043095402223        0.28966373754010       -1.97657938034874
H           -2.76581466285711       -1.58338853404188       -0.10303273207702
H           -1.10428977637689       -1.83328075125673       -0.62859883289195
H           -1.49116518251241       -1.81223987713914        1.09507512328818
H            2.41654847435165        0.94529606538115        1.12234172406013
21
 energy: -24.060028372116 gnorm: 0.000256730639 xtb: 6.7.1 (edcfbbe)
C            1.53035333819736        0.17588380640242       -1.19135570428793
C            1.11657840617539       -0.21488070769024        0.22623639118922
H            0.95772888106732       -1.29633301147808        0.27846265094611
C           -0.12831816657605        0.52205271638241        0.74584831128171
C           -1.50238457711314        0.14345372506297        0.16699016171811
C           -1.77463923075975        0.75708142861065       -1.20574517069047
C           -1.72639250664716       -1.36684622897592        0.13147902645653
O            2.19484522866096        0.00449585775077        1.12985259169177
H            2.53918312346172       -0.18588852780928       -1.37902612046711
H            0.86783141128676       -0.27113127570306       -1.92399612673028
H            1.51492253308245        1.25655506583490       -1.31330197225059
H           -0.15769586888761        0.32974581555569        1.82248859641948
H            0.02180274462260        1.59660942306363        0.60893975677241
H           -2.23805966609074        0.57192816204800        0.85922162547640
H           -1.56735782329310        1.82420706327053       -1.19890590998283
H           -2.82015868761620        0.61528129518428       -1.47022402557926
H           -1.16902512715215        0.29132249500322       -1.97635178908135
H           -2.76587594955868       -1.58320011776853       -0.10325303310637
H           -1.10455178410380       -1.83384678332359       -0.62796415843883
H           -1.49208466674935       -1.81236291010698        1.09521889656609
H            2.41592814889290        0.94644098391642        1.12254971012395
21
 energy: -24.060028633475 gnorm: 0.000107382426 xtb: 6.7.1 (edcfbbe)
C            1.53017493496376        0.17568764426677       -1.19138258896594
C            1.11656291656372       -0.21480964712696        0.22631705143072
H            0.95731887324080       -1.29617461104892        0.27855337589326
C           -0.12830558000037        0.52237437858279        0.74573647517723
C           -1.50230886063998        0.14353043594238        0.16693704379325
C           -1.77475718222332        0.75718201663772       -1.20571686998031
C           -1.72598046506292       -1.36678533267753        0.13138016203314
O            2.19488687782520        0.00414743308106        1.12992104463875
H            2.53893304935921       -0.18650151129229       -1.37926178211084
H            0.86719561260759       -0.27132228884387       -1.92376632929887
H            1.51507159105867        1.25640897371418       -1.31345242575348
H           -0.15774722617062        0.33025807615420        1.82242537500172
H            0.02181735472929        1.59696276370629        0.60867702570170
H           -2.23816825764109        0.57175187795627        0.85916063414929
H           -1.56877181401299        1.82463536318581       -1.19835885653583
H           -2.82009996794122        0.61408513890208       -1.47043415809521
H           -1.16824724849905        0.29240448083848       -1.97631506415035
H           -2.76544764819439       -1.58325628142831       -0.10363578300430
H           -1.10383253438426       -1.83379699377323       -0.62791215346650
H           -1.49186506586347       -1.81222876072176        1.09529736509476
H            2.41620040118517        0.94601511917508        1.12299416647460
21
 energy: -24.060028835905 gnorm: 0.000117587183 xtb: 6.7.1 (edcfbbe)
C            1.53011837436768        0.17526659120357       -1.19130068069362
C            1.11647041168755       -0.21480605337865        0.22647746012194
H            0.95683059990663       -1.29608479518089        0.27894832745323
C           -0.12823321171621        0.52283826055042        0.74558093680737
C           -1.50223126561979        0.14363354600742        0.16692182738858
C           -1.77525713990799        0.75741699604761       -1.20556377886028
C           -1.72534353713157       -1.36674022459353        0.13113625392502
O            2.19488254636552        0.00380837455783        1.13008484095164
H            2.53853945720329       -0.18772207513905       -1.37960232027829
H            0.86652987380380       -0.27133947509327       -1.92343795561255
H            1.51576687524689        1.25598412501582       -1.31353873856369
H           -0.15770001514287        0.33131463128405        1.82238437061542
H            0.02193853305838        1.59735434492601        0.60796327836884
H           -2.23817882289890        0.57144676917495        0.85931651462984
H           -1.57109094359193        1.82529179211534       -1.19761612726240
H           -2.82034905210871        0.61259138525723       -1.47066320316885
H           -1.16767381976249        0.29402035341731       -1.97625327302095
H           -2.76466117981420       -1.58358947311386       -0.10451335170720
H           -1.10256092629504       -1.83356970905251       -0.62784664943412
H           -1.49162957561311       -1.81212282536157        1.09525727756884
H            2.41646257886280        0.94557573658600        1.12342869879801
21
 energy: -24.060028985278 gnorm: 0.000129837764 xtb: 6.7.1 (edcfbbe)
C            1.53019524680434        0.17468378623984       -1.19122134406095
C            1.11642585509460       -0.21480649659635        0.22664910589874
H            0.95655879618340       -1.29602795146004        0.27948050981365
C           -0.12818717691349        0.52330417688386        0.74524670139728
C           -1.50227748072726        0.14366206725729        0.16697941408598
C           -1.77589553912251        0.75774621149167       -1.20524276529836
C           -1.72473034418037       -1.36678661896622        0.13082104593949
O            2.19482239985091        0.00374215097812        1.13031586410781
H            2.53829049892058       -0.18923385669490       -1.37965070214510
H            0.86603477436612       -0.27142432816898       -1.92320385587455
H            1.51676511713990        1.25541776300926       -1.31353293386572
H           -0.15762036700830        0.33257474805215        1.82218258680234
H            0.02200024147032        1.59769904748448        0.60681031845757
H           -2.23822834272793        0.57097457003226        0.85967571815769
H           -1.57349900003712        1.82594349343929       -1.19668763165628
H           -2.82068966709141        0.61137026413847       -1.47061745575278
H           -1.16742126579215        0.29577702344093       -1.97607882148052
H           -2.76381548168840       -1.58402478571961       -0.10553215142007
H           -1.10128998818860       -1.83323416043928       -0.62786960838191
H           -1.49143901982067       -1.81222693226045        1.09502704594934
H            2.41663050436778        0.94543810308844        1.12361266735313
21
 energy: -24.060029115106 gnorm: 0.000093221589 xtb: 6.7.1 (edcfbbe)
C            1.53045214910426        0.17400132620600       -1.19111145051443
C            1.11636401230302       -0.21484371201543        0.22683499488464
H            0.95646761581083       -1.29603762259773        0.28016742849046
C           -0.12816527096183        0.52368626950600        0.74499437068866
C           -1.50231597299497        0.14362546367233        0.16705127089033
C           -1.77663977563516        0.75808891534857       -1.20485268129960
C           -1.72423579565557       -1.36687863941263        0.13039894630669
O            2.19468827735990        0.00405480499959        1.13051241113675
H            2.53812280268200       -0.19096909457944       -1.37958802230061
H            0.86575498812708       -0.27145497032923       -1.92296264109637
H            1.51814681479138        1.25472831644048       -1.31354520326601
H           -0.15746737789480        0.33385218394405        1.82207944247147
H            0.02200652467541        1.59793305149814        0.60559026515207
H           -2.23821735905871        0.57038378296817        0.86012268845932
H           -1.57595903991001        1.82658443665024       -1.19551817050092
H           -2.82112223978657        0.61020627232663       -1.47060694264621
H           -1.16716029513429        0.29760205318145       -1.97577216992843
H           -2.76316657814185       -1.58439907917879       -0.10636394765097
H           -1.10037289741754       -1.83286866709145       -0.62820053210128
H           -1.49113103275193       -1.81245592338910        1.09456942403575
H            2.41658021138909        0.94572910708238        1.12336422681548
21
 energy: -24.060029205800 gnorm: 0.000042024126 xtb: 6.7.1 (edcfbbe)
C            1.53071239974343        0.17337930179614       -1.19101312883194
C            1.11639476049914       -0.21480116105088        0.22704616238470
H            0.95656903635776       -1.29598616017805        0.28086096056136
C           -0.12821801322835        0.52393489764770        0.74472513556585
C           -1.50244594956347        0.14352543794638        0.16715132153663
C           -1.77718519773895        0.75843673078313       -1.20447633795473
C           -1.72392770659240       -1.36704674357701        0.13002400836329
O            2.19461197256553        0.00462027529981        1.13074474804627
H            2.53808834070409       -0.19240255929678       -1.37935528938176
H            0.86569222527188       -0.27167147021109       -1.92279452993076
H            1.51928466069599        1.25409443768569       -1.31363198990121
H           -0.15739177593274        0.33476747758867        1.82190681191317
H            0.02189706575634        1.59807265739436        0.60463071432241
H           -2.23829937588855        0.56982218849925        0.86055540000518
H           -1.57764144378381        1.82710651981231       -1.19457941011615
H           -2.82142818667215        0.60963311659238       -1.47048210209784
H           -1.16714526874286        0.29902174206843       -1.97552331482006
H           -2.76280206387558       -1.58474123107956       -0.10672250608587
H           -1.10003722390706       -1.83259414496211       -0.62878691582621
H           -1.49064464013983       -1.81290448334933        1.09399813564038
H            2.41654614537132        0.94630144582077        1.12288583463406
