
                                 *****************
                                 * O   R   C   A *
                                 *****************

                                            #,                                       
                                            ###                                      
                                            ####                                     
                                            #####                                    
                                            ######                                   
                                           ########,                                 
                                     ,,################,,,,,                         
                               ,,#################################,,                 
                          ,,##########################################,,             
                       ,#########################################, ''#####,          
                    ,#############################################,,   '####,        
                  ,##################################################,,,,####,       
                ,###########''''           ''''###############################       
              ,#####''   ,,,,##########,,,,          '''####'''          '####       
            ,##' ,,,,###########################,,,                        '##       
           ' ,,###''''                  '''############,,,                           
         ,,##''                                '''############,,,,        ,,,,,,###''
      ,#''                                            '''#######################'''  
     '                                                          ''''####''''         
             ,#######,   #######,   ,#######,      ##                                
            ,#'     '#,  ##    ##  ,#'     '#,    #''#        ,####,   ,####,        
            ##       ##  ##   ,#'  ##            #'  '#       #'       #'  '#        
            ##       ##  #######   ##           ,######,      #####,   #    #        
            '#,     ,#'  ##    ##  '#,     ,#' ,#      #,     #,   #   #,  ,#        
             '#######'   ##     ##  '#######'  #'      '#     '####' # '####'        



                #########################################################
                #                        -***-                          #
                #          Department of theory and spectroscopy        #
                #                                                       #
                #                      Frank Neese                      #
                #                                                       #
                #     Directorship, Architecture, Infrastructure        #
                #                    SHARK, DRIVERS                     #
                #        Core code/Algorithms in most modules           #
                #                                                       #
                #        Max Planck Institute fuer Kohlenforschung      #
                #                Kaiser Wilhelm Platz 1                 #
                #                 D-45470 Muelheim/Ruhr                 #
                #                      Germany                          #
                #                                                       #
                #                  All rights reserved                  #
                #                        -***-                          #
                #########################################################


                         Program Version 6.0.0  -   RELEASE  -


 With contributions from (in alphabetic order):
   Daniel Aravena         : Magnetic Suceptibility
   Michael Atanasov       : Ab Initio Ligand Field Theory (pilot matlab implementation)
   Alexander A. Auer      : GIAO ZORA, VPT2 properties, NMR spectrum
   Ute Becker             : All parallelization in ORCA, NUMFREQ, NUMCALC
   Giovanni Bistoni       : ED, misc. LED, open-shell LED, HFLD
   Martin Brehm           : Molecular dynamics
   Dmytro Bykov           : pre 5.0 version of the SCF Hessian
   Marcos Casanova-Páez   : Triplet and SCS-CIS(D). UHF-(DLPNO)-IP/EA/STEOM-CCSD. UHF-CVS-IP/STEOM-CCSD
   Vijay G. Chilkuri      : MRCI spin determinant printing, contributions to CSF-ICE
   Pauline Colinet        : FMM embedding
   Dipayan Datta          : RHF DLPNO-CCSD density
   Achintya Kumar Dutta   : EOM-CC, STEOM-CC
   Nicolas Foglia         : Exact transition moments, OPA infrastructure, MCD improvements
   Dmitry Ganyushin       : Spin-Orbit,Spin-Spin,Magnetic field MRCI
   Miquel Garcia          : C-PCM and meta-GGA Hessian, CCSD/C-PCM, Gaussian charge scheme
   Tiago L. C. Gouveia    : GS-ROHF, GS-ROCIS
   Yang Guo               : DLPNO-NEVPT2, F12-NEVPT2, CIM, IAO-localization
   Andreas Hansen         : Spin unrestricted coupled pair/coupled cluster methods
   Ingolf Harden          : AUTO-CI MPn and infrastructure 
   Benjamin Helmich-Paris : MC-RPA, TRAH-(SCF,CASSCF), AVAS, COSX integrals, SCF dyn. polar.
   Lee Huntington         : MR-EOM, pCC
   Robert Izsak           : Overlap fitted RIJCOSX, COSX-SCS-MP3, EOM
   Riya Kayal             : Wick's Theorem for AUTO-CI, AUTO-CI UHF-CCSDT
   Emily Kempfer          : AUTO-CI, RHF CISDT and CCSDT
   Christian Kollmar      : KDIIS, OOCD, Brueckner-CCSD(T), CCSD density, CASPT2, CASPT2-K, improved NEVPT2
   Axel Koslowski         : Symmetry handling
   Simone Kossmann        : Meta GGA functionals, TD-DFT gradient, OOMP2, (MP2 Hessian; deprecated post 5.0)
   Lucas Lang             : DCDCAS
   Marvin Lechner         : AUTO-CI (C++ implementation), FIC-MRCC
   Spencer Leger          : CASSCF response
   Dagmar Lenk            : GEPOL surface, SMD, ORCA-2-JSON
   Dimitrios Liakos       : Extrapolation schemes; Compound Job, initial MDCI parallelization
   Dimitrios Manganas     : Further ROCIS development; embedding schemes. LFT, Crystal Embedding
   Dimitrios Pantazis     : SARC Basis sets
   Anastasios Papadopoulos: AUTO-CI, single reference methods and gradients
   Taras Petrenko         : pre 6.0 DFT Hessian and TD-DFT gradient, (ASA, deprecated), ECA, 1-Electron XAS/XES, NRVS
   Peter Pinski           : DLPNO-MP2, DLPNO-MP2 Gradient
   Christoph Reimann      : Effective Core Potentials
   Marius Retegan         : Local ZFS, SOC
   Christoph Riplinger    : Optimizer, TS searches, QM/MM, DLPNO-CCSD(T), (RO)-DLPNO pert. Triples
   Michael Roemelt        : Original ROCIS implementation
   Masaaki Saitow         : Open-shell DLPNO-CCSD energy and density
   Barbara Sandhoefer     : DKH picture change effects
   Kantharuban Sivalingam : CASSCF convergence/infrastructure, NEVPT2 and variants, FIC-MRCI
   Bernardo de Souza      : ESD, SOC TD-DFT
   Georgi Stoychev        : AutoAux, RI-MP2 NMR, DLPNO-MP2 response, X2C
   Van Anh Tran           : RI-MP2 g-tensors
   Willem Van den Heuvel  : Paramagnetic NMR
   Zikuan Wang            : NOTCH, Electric field optimization 
   Frank Wennmohs         : Technical directorship and infrastructure
   Hang Xu                : AUTO-CI-Response properties 


 We gratefully acknowledge several colleagues who have allowed us to
 interface, adapt or use parts of their codes:
   Stefan Grimme, W. Hujo, H. Kruse, P. Pracht,  : VdW corrections, initial TS optimization,
                  C. Bannwarth, S. Ehlert,         DFT functionals, gCP, sTDA/sTD-DF
                  L. Wittmann, M. Mueller
   Ed Valeev, F. Pavosevic, A. Kumar             : LibInt (2-el integral package), F12 methods
   Garnet Chan, S. Sharma, J. Yang, R. Olivares  : DMRG
   Ulf Ekstrom                                   : XCFun DFT Library
   Mihaly Kallay                                 : mrcc  (arbitrary order and MRCC methods)
   Frank Weinhold                                : gennbo (NPA and NBO analysis)
   Simon Mueller                                 : openCOSMO-RS
   Christopher J. Cramer and Donald G. Truhlar   : smd solvation model
   Lars Goerigk                                  : TD-DFT with DH, B97 family of functionals
   V. Asgeirsson, H. Jonsson                     : NEB implementation
   FAccTs GmbH                                   : IRC, NEB, NEB-TS, DLPNO-Multilevel, CI-OPT
                                                   MM, QMMM, 2- and 3-layer-ONIOM, Crystal-QMMM,
                                                   LR-CPCM, SF, NACMEs, symmetry and pop. for TD-DFT,
                                                   nearIR, NL-DFT gradient (VV10), updates on ESD,
                                                   ML-optimized integration grids, MBIS, APM,
                                                   GOAT, DOCKER, SOLVATOR, interface openCOSMO-RS
   S Lehtola, MJT Oliveira, MAL Marques          : LibXC Library
   Liviu Ungur et al                             : ANISO software


 Your calculation uses the libint2 library for the computation of 2-el integrals
 For citations please refer to: http://libint.valeyev.net

 Your ORCA version has been built with support for libXC version: 6.2.2
 For citations please refer to: https://libxc.gitlab.io

 This ORCA versions uses:
   CBLAS   interface :  Fast vector & matrix operations
   LAPACKE interface :  Fast linear algebra routines
   SCALAPACK package :  Parallel linear algebra routines
   Shared memory     :  Shared parallel matrices
   BLAS/LAPACK       :  OpenBLAS 0.3.27  USE64BITINT DYNAMIC_ARCH NO_AFFINITY SkylakeX SINGLE_THREADED
        Core in use  :  SkylakeX
   Copyright (c) 2011-2014, The OpenBLAS Project


Your calculation utilizes the geometrical counterpoise correction gCP
Please cite in your paper:
H.Kruse, S. Grimme J.Chem.Phys., 136, (2012), 154101 
   

Your calculation utilizes the atom-pairwise dispersion correction
based on EEQ partial charges (D4)


Your calculation utilizes the SMD solvation module
Please cite in your paper:
A.V. Marenich, C.J. Cramer, D.G. Truhlar J. Phys. Chem. B, 113, (2009), 6378 

================================================================================

----- Orbital basis set information -----
Your calculation utilizes the basis: def2-mTZVPP
   Stefan Grimme, Andreas Hansen, Sebastian Ehlert, and Jan-Michael Mewes 
   J. Chem. Phys. 154, 064103 (2021). DOI: 10.1063/5.0040021

----- AuxJ basis set information -----
Your calculation utilizes the auxiliary basis: def2/J
   F. Weigend, Phys. Chem. Chem. Phys. 8, 1057 (2006).

================================================================================
                                        WARNINGS
                       Please study these warnings very carefully!
================================================================================

Using LibXC functional ID 497 : Re-regularized SCAN exchange by Furness et al
[ 1]  J. W. Furness, A. D. Kaplan, J. Ning, J. P. Perdew, and J. Sun.,  J. Phys. Chem. Lett. 11, 8208-8215 (2020)
[ 2]  J. W. Furness, A. D. Kaplan, J. Ning, J. P. Perdew, and J. Sun.,  J. Phys. Chem. Lett. 11, 9248-9248 (2020)
Using LibXC functional ID 498 : Re-regularized SCAN correlation by Furness et al
[ 1]  J. W. Furness, A. D. Kaplan, J. Ning, J. P. Perdew, and J. Sun.,  J. Phys. Chem. Lett. 11, 8208-8215 (2020)
[ 2]  J. W. Furness, A. D. Kaplan, J. Ning, J. P. Perdew, and J. Sun.,  J. Phys. Chem. Lett. 11, 9248-9248 (2020)
Using LibXC functional ID 497 : Re-regularized SCAN exchange by Furness et al
[ 1]  J. W. Furness, A. D. Kaplan, J. Ning, J. P. Perdew, and J. Sun.,  J. Phys. Chem. Lett. 11, 8208-8215 (2020)
[ 2]  J. W. Furness, A. D. Kaplan, J. Ning, J. P. Perdew, and J. Sun.,  J. Phys. Chem. Lett. 11, 9248-9248 (2020)
Using LibXC functional ID 498 : Re-regularized SCAN correlation by Furness et al
[ 1]  J. W. Furness, A. D. Kaplan, J. Ning, J. P. Perdew, and J. Sun.,  J. Phys. Chem. Lett. 11, 8208-8215 (2020)
[ 2]  J. W. Furness, A. D. Kaplan, J. Ning, J. P. Perdew, and J. Sun.,  J. Phys. Chem. Lett. 11, 9248-9248 (2020)

================================================================================
                                       INPUT FILE
================================================================================
NAME = sp_solv.inp
|  1> ! r2scan-3c def2/J RI DEFGRID2 scfconv6 printgap
|  2> %output
|  3>     printlevel normal
|  4> end
|  5> %cpcm
|  6>     smd true
|  7>     smdsolvent "water"
|  8> end
|  9> * xyz 0 1
| 10> C -2.1490761469 1.0279834773 0.5439538224
| 11> C -1.4711135107 0.0207281432 -0.3766013581
| 12> C -0.0673926099 -0.3876297322 0.0957913781
| 13> C 0.9689256238 0.7176668697 -0.1395888942
| 14> C 2.3201638432 0.366132446 0.4724369626
| 15> O 0.3322732668 -1.6017535718 -0.5203444326
| 16> H -2.2053941735 0.638214883 1.5574753838
| 17> H -1.6051669241 1.9684095605 0.5663531809
| 18> H -3.158986122 1.2277569041 0.195322752
| 19> H -2.0781115758 -0.8866648077 -0.4215601655
| 20> H -1.4039251663 0.4324822208 -1.3866644235
| 21> H -0.103126287 -0.6304571248 1.1643016435
| 22> H 1.0813354385 0.8694434218 -1.2162212565
| 23> H 0.6015528271 1.646508047 0.2957409416
| 24> H 2.6550743104 -0.6032866446 0.11066018
| 25> H 3.0642385509 1.1143469113 0.2120668612
| 26> H 2.2425036408 0.3150580979 1.5559986806
| 27> H 0.3842828132 -1.4590820762 -1.4758789045
| 28> *
| 29> 
| 30>                          ****END OF INPUT****
================================================================================

                       ****************************
                       * Single Point Calculation *
                       ****************************

---------------------------------
CARTESIAN COORDINATES (ANGSTROEM)
---------------------------------
  C     -2.149076    1.027983    0.543954
  C     -1.471114    0.020728   -0.376601
  C     -0.067393   -0.387630    0.095791
  C      0.968926    0.717667   -0.139589
  C      2.320164    0.366132    0.472437
  O      0.332273   -1.601754   -0.520344
  H     -2.205394    0.638215    1.557475
  H     -1.605167    1.968410    0.566353
  H     -3.158986    1.227757    0.195323
  H     -2.078112   -0.886665   -0.421560
  H     -1.403925    0.432482   -1.386664
  H     -0.103126   -0.630457    1.164302
  H      1.081335    0.869443   -1.216221
  H      0.601553    1.646508    0.295741
  H      2.655074   -0.603287    0.110660
  H      3.064239    1.114347    0.212067
  H      2.242504    0.315058    1.555999
  H      0.384283   -1.459082   -1.475879

----------------------------
CARTESIAN COORDINATES (A.U.)
----------------------------
  NO LB      ZA    FRAG     MASS         X           Y           Z
   0 C     6.0000    0    12.011   -4.061165    1.942607    1.027924
   1 C     6.0000    0    12.011   -2.780002    0.039171   -0.711673
   2 C     6.0000    0    12.011   -0.127354   -0.732514    0.181019
   3 C     6.0000    0    12.011    1.831004    1.356194   -0.263785
   4 C     6.0000    0    12.011    4.384474    0.691890    0.892776
   5 O     8.0000    0    15.999    0.627905   -3.026876   -0.983308
   6 H     1.0000    0     1.008   -4.167591    1.206051    2.943202
   7 H     1.0000    0     1.008   -3.033326    3.719755    1.070252
   8 H     1.0000    0     1.008   -5.969619    2.320124    0.369107
   9 H     1.0000    0     1.008   -3.927062   -1.675554   -0.796633
  10 H     1.0000    0     1.008   -2.653034    0.817273   -2.620416
  11 H     1.0000    0     1.008   -0.194880   -1.191391    2.200211
  12 H     1.0000    0     1.008    2.043428    1.643010   -2.298325
  13 H     1.0000    0     1.008    1.136770    3.111449    0.558869
  14 H     1.0000    0     1.008    5.017363   -1.140047    0.209117
  15 H     1.0000    0     1.008    5.790572    2.105810    0.400748
  16 H     1.0000    0     1.008    4.237718    0.595374    2.940411
  17 H     1.0000    0     1.008    0.726189   -2.757266   -2.789007

--------------------------------
INTERNAL COORDINATES (ANGSTROEM)
--------------------------------
 C      0   0   0     0.000000000000     0.00000000     0.00000000
 C      1   0   0     1.523685822111     0.00000000     0.00000000
 C      2   1   0     1.536340918858   113.35849680     0.00000000
 C      3   2   1     1.533310122662   112.25460955   285.93122411
 C      4   3   2     1.524466078995   111.79048508   173.58740151
 O      3   2   1     1.418961891000   110.56463352   161.27107919
 H      1   2   3     1.087344118780   110.43998484   303.35810683
 H      1   2   3     1.086618696632   111.21446103    63.85512745
 H      1   2   3     1.086909013262   109.94653960   183.69851156
 H      2   1   3     1.092625238927   109.06661773   119.63304192
 H      2   1   3     1.092832599316   109.67514411   237.72059637
 H      3   2   1     1.096337642125   109.19390741    47.36368605
 H      4   3   2     1.093073342352   108.71135265   294.77161362
 H      4   3   2     1.089596608998   108.98326237    52.31674148
 H      5   4   3     1.087575668489   110.17851327    54.07239081
 H      5   4   3     1.086859993939   110.60317701   174.46535940
 H      5   4   3     1.087541122342   110.33660667   294.71828038
 H      6   3   2     0.967525852659   108.53004401    62.82920480

---------------------------
INTERNAL COORDINATES (A.U.)
---------------------------
 C      0   0   0     0.000000000000     0.00000000     0.00000000
 C      1   0   0     2.879348917928     0.00000000     0.00000000
 C      2   1   0     2.903263584979   113.35849680     0.00000000
 C      3   2   1     2.897536210201   112.25460955   285.93122411
 C      4   3   2     2.880823389753   111.79048508   173.58740151
 O      3   2   1     2.681449368461   110.56463352   161.27107919
 H      1   2   3     2.054782597824   110.43998484   303.35810683
 H      1   2   3     2.053411748634   111.21446103    63.85512745
 H      1   2   3     2.053960367556   109.94653960   183.69851156
 H      2   1   3     2.064762468583   109.06661773   119.63304192
 H      2   1   3     2.065154322929   109.67514411   237.72059637
 H      3   2   1     2.071777893926   109.19390741    47.36368605
 H      4   3   2     2.065609261335   108.71135265   294.77161362
 H      4   3   2     2.059039187456   108.98326237    52.31674148
 H      5   4   3     2.055220163360   110.17851327    54.07239081
 H      5   4   3     2.053867734461   110.60317701   174.46535940
 H      5   4   3     2.055154880604   110.33660667   294.71828038
 H      6   3   2     1.828358889013   108.53004401    62.82920480

---------------------
BASIS SET INFORMATION
---------------------
There are 3 groups of distinct atoms

 Group   1 Type C   : 11s6p1d contracted to 5s3p1d pattern {62111/411/1}
 Group   2 Type O   : 11s6p2d contracted to 5s3p2d pattern {62111/411/11}
 Group   3 Type H   : 4s1p contracted to 2s1p pattern {31/1}

Atom   0C    basis set group =>   1
Atom   1C    basis set group =>   1
Atom   2C    basis set group =>   1
Atom   3C    basis set group =>   1
Atom   4C    basis set group =>   1
Atom   5O    basis set group =>   2
Atom   6H    basis set group =>   3
Atom   7H    basis set group =>   3
Atom   8H    basis set group =>   3
Atom   9H    basis set group =>   3
Atom  10H    basis set group =>   3
Atom  11H    basis set group =>   3
Atom  12H    basis set group =>   3
Atom  13H    basis set group =>   3
Atom  14H    basis set group =>   3
Atom  15H    basis set group =>   3
Atom  16H    basis set group =>   3
Atom  17H    basis set group =>   3
---------------------------------
AUXILIARY/J BASIS SET INFORMATION
---------------------------------
There are 3 groups of distinct atoms

 Group   1 Type C   : 12s5p4d2f1g contracted to 6s4p3d1f1g pattern {711111/2111/211/2/1}
 Group   2 Type O   : 12s5p4d2f1g contracted to 6s4p3d1f1g pattern {711111/2111/211/2/1}
 Group   3 Type H   : 5s2p1d contracted to 3s1p1d pattern {311/2/1}

Atom   0C    basis set group =>   1
Atom   1C    basis set group =>   1
Atom   2C    basis set group =>   1
Atom   3C    basis set group =>   1
Atom   4C    basis set group =>   1
Atom   5O    basis set group =>   2
Atom   6H    basis set group =>   3
Atom   7H    basis set group =>   3
Atom   8H    basis set group =>   3
Atom   9H    basis set group =>   3
Atom  10H    basis set group =>   3
Atom  11H    basis set group =>   3
Atom  12H    basis set group =>   3
Atom  13H    basis set group =>   3
Atom  14H    basis set group =>   3
Atom  15H    basis set group =>   3
Atom  16H    basis set group =>   3
Atom  17H    basis set group =>   3

Checking for AutoStart:
The File: sp_solv.gbw exists
Trying to determine its content:
     ... Fine, the file contains calculation information
     ... Fine, the calculation information was read
     ... Fine, the file contains a basis set
     ... Fine, the basis set was read
     ... Fine, the file contains a geometry
     ... Fine, the geometry was read
     ... Fine, the file contains a set of orbitals
     ... Fine, the orbitals can be read
     => possible old guess file was deleted
     => GBW file was renamed to GES file
     => GES file is set as startup file
     => Guess is set to MORead
     ... now leaving AutoStart

------------------------------------------------------------------------------
                             ORCA STARTUP CALCULATIONS
                           -- RI-GTO INTEGRALS CHOSEN --
------------------------------------------------------------------------------
------------------------------------------------------------------------------
                   ___                                                        
                  /   \      - P O W E R E D   B Y -                         
                 /     \                                                     
                 |  |  |   _    _      __       _____    __    __             
                 |  |  |  | |  | |    /  \     |  _  \  |  |  /  |          
                  \  \/   | |  | |   /    \    | | | |  |  | /  /          
                 / \  \   | |__| |  /  /\  \   | |_| |  |  |/  /          
                |  |  |   |  __  | /  /__\  \  |    /   |      \           
                |  |  |   | |  | | |   __   |  |    \   |  |\   \          
                \     /   | |  | | |  |  |  |  | |\  \  |  | \   \       
                 \___/    |_|  |_| |__|  |__|  |_| \__\ |__|  \__/        
                                                                              
                      - O R C A' S   B I G   F R I E N D -                    
                                      &                                       
                       - I N T E G R A L  F E E D E R -                       
                                                                              
 v1 FN, 2020, v2 2021, v3 2022-2024                                           
------------------------------------------------------------------------------


----------------------
SHARK INTEGRAL PACKAGE
----------------------

Number of atoms                             ...     18
Number of basis functions                   ...    179
Number of shells                            ...     91
Maximum angular momentum                    ...      2
Integral batch strategy                     ... SHARK/LIBINT Hybrid
RI-J (if used) integral strategy            ... SPLIT-RIJ (Revised 2003 algorithm where possible)
Printlevel                                  ...      1
Contraction scheme used                     ... SEGMENTED contraction
Prescreening option                         ... SCHWARTZ
   Thresh                                   ... 1.000e-10
   Tcut                                     ... 1.000e-11
   Tpresel                                  ... 1.000e-11 
Coulomb Range Separation                    ... NOT USED
Exchange Range Separation                   ... NOT USED
Multipole approximations                    ... NOT USED
Finite Nucleus Model                        ... NOT USED
CABS basis                                  ... NOT available
Auxiliary Coulomb fitting basis             ... AVAILABLE
   # of basis functions in Aux-J            ...    426
   # of shells in Aux-J                     ...    150
   Maximum angular momentum in Aux-J        ...      4
Auxiliary J/K fitting basis                 ... NOT available
Auxiliary Correlation fitting basis         ... NOT available
Auxiliary 'external' fitting basis          ... NOT available

Checking pre-screening integrals            ... done (  0.0 sec) Dimension = 91
Check shell pair data                       ... done (  0.0 sec)
Shell pair information
Shell pair cut-off parameter TPreSel        ...   1.0e-11
Total number of shell pairs                 ...      4186
Shell pairs after pre-screening             ...      3878
Total number of primitive shell pairs       ...     14533
Primitive shell pairs kept                  ...      9950
          la=0 lb=0:   1365 shell pairs
          la=1 lb=0:   1492 shell pairs
          la=1 lb=1:    432 shell pairs
          la=2 lb=0:    361 shell pairs
          la=2 lb=1:    200 shell pairs
          la=2 lb=2:     28 shell pairs

Calculating one electron integrals          ... done (  0.0 sec)
Calculating RI/J V-Matrix + Cholesky decomp.... done (  0.1 sec)
Calculating Nuclear repulsion               ... done (  0.0 sec) ENN=    259.199188638769 Eh

Diagonalization of the overlap matrix:
Smallest eigenvalue                        ... 2.073e-04
Time for diagonalization                   ...    0.003 sec
Threshold for overlap eigenvalues          ... 1.000e-07
Number of eigenvalues below threshold      ... 0
Time for construction of square roots      ...    0.017 sec
Total time needed                          ...    0.048 sec

-------------------
DFT GRID GENERATION
-------------------

General Integration Accuracy     IntAcc      ... 4.388
Radial Grid Type                 RadialGrid  ... OptM3 with GC (2021)
Angular Grid (max. ang.)         AngularGrid ... 4 (Lebedev-302)
Angular grid pruning method      GridPruning ... 4 (adaptive)
Weight generation scheme         WeightScheme... mBecke (2022)
Basis function cutoff            BFCut       ... 1.0000e-10
Integration weight cutoff        WCut        ... 1.0000e-14
Partially contracted basis set               ... off
Rotationally invariant grid construction     ... off
Angular grids for H and He will be reduced by one unit
Diffuse basis detected: some atoms will have their outermost
                        angular grid increased by 1.

Total number of grid points                  ...    74873
Total number of batches                      ...     1177
Average number of points per batch           ...       63
Average number of grid points per atom       ...     4160
Initializing property integral containers    ... done (  0.0 sec)

SHARK setup successfully completed in   1.1 seconds

Maximum memory used throughout the entire STARTUP-calculation: 32.3 MB
-------------------------------------------------------------------------------
                                 ORCA GUESS
                   Start orbitals & Density for SCF / CASSCF
-------------------------------------------------------------------------------

------------
SCF SETTINGS
------------
Hamiltonian:
 Density Functional     Method          .... DFT(GTOs)
  Functional kind                       .... Exchange
  Functional name                       .... Re-regularized SCAN exchange by Furness et al
  Functional family                     .... MGGA
  Functional refs                              
    [ 0] J. W. Furness, A. D. Kaplan, J. Ning, J. P. Perdew, and J. Sun.,  J. Phys. Chem. Lett. 11, 8208-8215 (2020), doi: 10.1021/acs.jpclett.0c02405
    [ 1] J. W. Furness, A. D. Kaplan, J. Ning, J. P. Perdew, and J. Sun.,  J. Phys. Chem. Lett. 11, 9248-9248 (2020), doi: 10.1021/acs.jpclett.0c03077
  Functional external parameters        .... 6
    Parameter  0 _c1        =  6.670000e-01 : c1 parameter        
    Parameter  1 _c2        =  8.000000e-01 : c2 parameter        
    Parameter  2 _d         =  1.240000e+00 : d parameter         
    Parameter  3 _k1        =  6.500000e-02 : k1 parameter        
    Parameter  4 _eta       =  1.000000e-03 : eta parameter       
    Parameter  5 _dp2       =  3.610000e-01 : dp2 parameter       
  Functional kind                       .... Correlation
  Functional name                       .... Re-regularized SCAN correlation by Furness et al
  Functional family                     .... MGGA
  Functional refs                              
    [ 0] J. W. Furness, A. D. Kaplan, J. Ning, J. P. Perdew, and J. Sun.,  J. Phys. Chem. Lett. 11, 8208-8215 (2020), doi: 10.1021/acs.jpclett.0c02405
    [ 1] J. W. Furness, A. D. Kaplan, J. Ning, J. P. Perdew, and J. Sun.,  J. Phys. Chem. Lett. 11, 9248-9248 (2020), doi: 10.1021/acs.jpclett.0c03077
  Functional external parameters        .... 1
    Parameter  0 _eta       =  1.000000e-03 : Regularization parameter
 Gradients option       PostSCFGGA      .... off
 RI-approximation to the Coulomb term is turned on
   Number of AuxJ basis functions       .... 426


General Settings:
 Integral files         IntName         .... sp_solv
 Hartree-Fock type      HFTyp           .... RHF
 Total Charge           Charge          ....    0
 Multiplicity           Mult            ....    1
 Number of Electrons    NEL             ....   50
 Basis Dimension        Dim             ....  179
 Nuclear Repulsion      ENuc            ....    259.1991886388 Eh

Convergence Acceleration:
 AO-DIIS                CNVDIIS         .... on
   Start iteration      DIISMaxIt       ....    12
   Startup error        DIISStart       ....  0.200000
   # of expansion vecs  DIISMaxEq       ....     5
   Bias factor          DIISBfac        ....   1.050
   Max. coefficient     DIISMaxC        ....  10.000
 MO-DIIS                CNVKDIIS        .... off
 Trust-Rad. Augm. Hess. CNVTRAH         .... auto
   Auto Start mean grad. ratio tolernc. ....  1.125000
   Auto Start start iteration           ....     1
   Auto Start num. interpolation iter.  ....    10
   Max. Number of Micro iterations      ....    24
   Max. Number of Macro iterations      .... Maxiter - #DIIS iter
   Number of Davidson start vectors     ....     2
   Converg. threshold    (grad. norm)   ....   3.330e-04
   Grad. Scal. Fac. for Micro threshold ....   0.100
   Minimum threshold for Micro iter.    ....   1.000e-02
   NR start threshold (gradient norm)   ....   1.000e-04
   Initial trust radius                 ....   0.400
   Minimum AH scaling param. (alpha)    ....   1.000
   Maximum AH scaling param. (alpha)    .... 1000.000
   Quad. conv. algorithm                .... NR
   White noise on init. David. guess    .... on
   Maximum white noise                  ....   0.010
   Pseudo random numbers                .... off
   Inactive MOs                         .... canonical
   Orbital update algorithm             .... Taylor
   Preconditioner                       .... Diag
   Full preconditioner red. dimension   ....   250
   COSX micro iterations for RIJONX calc.... off
 SOSCF                  CNVSOSCF        .... on
   Start iteration      SOSCFMaxIt      ....   150
   Startup grad/error   SOSCFStart      ....  0.003300
   Hessian update       SOSCFHessUp     .... L-BFGS
 Level Shifting         CNVShift        .... on
   Level shift para.    LevelShift      ....    0.2500
   Turn off err/grad.   ShiftErr        ....    0.0010
 Zerner damping         CNVZerner       .... off
 Static damping         CNVDamp         .... on
   Fraction old density DampFac         ....    0.7000
   Max. Damping (<1)    DampMax         ....    0.9800
   Min. Damping (>=0)   DampMin         ....    0.0000
   Turn off err/grad.   DampErr         ....    0.1000

SCF Procedure:
 Maximum # iterations   MaxIter         ....   125
 SCF integral mode      SCFMode         .... Direct
   Integral package                     .... SHARK and LIBINT hybrid scheme
 Reset frequency        DirectResetFreq ....    20
 Integral Threshold     Thresh          ....  1.000e-10 Eh
 Primitive CutOff       TCut            ....  1.000e-11 Eh

Convergence Tolerance:
 Convergence Check Mode ConvCheckMode   .... Total+1el-Energy
 Convergence forced     ConvForced      .... 0
 Energy Change          TolE            ....  1.000e-06 Eh
 1-El. energy change                    ....  1.000e-03 Eh
 Orbital Gradient       TolG            ....  3.330e-04
 Orbital Rotation angle TolX            ....  3.330e-04
 DIIS Error             TolErr          ....  1.000e-06

---------------------
INITIAL GUESS: MOREAD
---------------------
Guess MOs are being read from file: sp_solv.ges
Input Geometry matches current geometry (good)
Atom 0: N(Shells)= 9 and 6 - projection required
Input basis set needs projection
NBasis(read)= 108
NBasis(calc)= 179
Basis set overlap was calculated
Using GuessMode=FMatrix for the initial guess
C*T matrix was formed
Effective Fockian was calculated
Effective Fockian was diagonalized
Initial density was built
                      ------------------
                      INITIAL GUESS DONE (   0.1 sec)
                      ------------------
             **** ENERGY FILE WAS UPDATED (sp_solv.en.tmp) ****
Finished Guess after   0.4 sec
Maximum memory used throughout the entire GUESS-calculation: 12.2 MB

-------------------------------------------------------------------------------------------
                                      ORCA LEAN-SCF
                              memory conserving SCF solver
-------------------------------------------------------------------------------------------

--------------------
CPCM SOLVATION MODEL
--------------------
CPCM parameters:
  Epsilon                                         ...      78.3550
  Refrac                                          ...       1.3328
  Rsolv                                           ...       1.3000
  Surface type                                    ... GAUSSIAN VDW
  Discretization scheme                           ... Constant charge density
    Threshold for H atoms                         ...       5.0000 (charges/Ang^2)
    Threshold for non-H atoms                     ...       5.0000 (charges/Ang^2)
  Epsilon function type                           ...         CPCM
Solvent:                                          ... WATER
SMD-CDS solvent descriptors:
  Soln                                            ...       1.3328
  Soln25                                          ...       1.3323
  Sola                                            ...       0.0000
  Solb                                            ...       0.0000
  Solg                                            ...       0.0000
  Solc                                            ...       0.0000
  Solh                                            ...       0.0000
Radii:
  Scheme                                          ... Element-dependent radii
  Radius for C  used is    3.4960 Bohr (=   1.8500 Ang.)
  Radius for O  used is    2.8724 Bohr (=   1.5200 Ang.)
  Radius for H  used is    2.2677 Bohr (=   1.2000 Ang.)
Calculating surface                               ...        done! (  0.0s)
Cavity surface points                             ...         1321
Cavity Volume                                     ...     738.9881
Cavity Surface-area                               ...     501.0706
Calculating surface distance matrix               ...        done! (  0.0s)
Performing Cholesky decomposition & store         ...        done! (  0.1s)
Overall time for CPCM initialization              ...                 0.1s

----------------------------------------D-I-I-S--------------------------------------------
Iteration    Energy (Eh)           Delta-E    RMSDP     MaxDP     DIISErr   Damp  Time(sec)
-------------------------------------------------------------------------------------------
               ***  Starting incremental Fock matrix formation  ***
    1    -272.7625923333466176     0.00e+00  3.97e-03  1.43e-01  6.25e-01  0.700   2.7
    2    -272.8088094330885838    -4.62e-02  3.27e-03  9.52e-02  4.40e-01  0.700   2.7
    3    -272.8416188818611658    -3.28e-02  2.42e-03  6.38e-02  3.09e-01  0.700   2.5
    4    -272.8647037154642589    -2.31e-02  1.74e-03  4.34e-02  2.16e-01  0.700   2.4
                               ***Turning on AO-DIIS***
    5    -272.8809233482316472    -1.62e-02  1.27e-03  2.89e-02  1.51e-01  0.700   2.4
    6    -272.8923064798220253    -1.14e-02  9.03e-04  2.05e-02  1.06e-01  0.700   2.3
    7    -272.9002966087684285    -7.99e-03  6.39e-04  1.44e-02  7.40e-02  0.700   2.3
    8    -272.9058993496128664    -5.60e-03  1.50e-03  3.36e-02  5.19e-02  0.000   2.3
                              *** Initializing SOSCF ***
---------------------------------------S-O-S-C-F--------------------------------------
Iteration    Energy (Eh)           Delta-E    RMSDP     MaxDP     MaxGrad    Time(sec)
--------------------------------------------------------------------------------------
    9    -272.9190069931581206    -1.31e-02  1.51e-05  3.60e-04  1.55e-04     2.4
               *** Restarting incremental Fock matrix formation ***
   10    -272.9190071534913500    -1.60e-07  7.53e-06  1.60e-04  3.27e-05     2.5
                  *** Gradient check signals convergence ***

               *****************************************************
               *                     SUCCESS                       *
               *           SCF CONVERGED AFTER  10 CYCLES          *
               *****************************************************


SMD CDS free energy correction energy :                 3.37665     Kcal/mol
Total Energy after SMD CDS correction =              -272.913626125 Eh
             **** ENERGY FILE WAS UPDATED (sp_solv.en.tmp) ****

----------------
TOTAL SCF ENERGY
----------------

Total Energy       :       -272.91362612516480 Eh           -7426.35732 eV

Components:
Nuclear Repulsion  :        259.19918863876893 Eh            7053.16850 eV
Electronic Energy  :       -532.10451033950540 Eh          -14479.29984 eV
One Electron Energy:       -882.25449540611851 Eh          -24007.36533 eV
Two Electron Energy:        350.14998506661311 Eh            9528.06549 eV
CPCM Dielectric    :         -0.01368545275488 Eh              -0.37240 eV
SMD CDS (Gcds)     :          0.00538102832658 Eh               0.14643 eV

Virial components:
Potential Energy   :       -544.59901087178378 Eh          -14819.29248 eV
Kinetic Energy     :        271.68538474661892 Eh            7392.93517 eV
Virial Ratio       :          2.00452082241999

DFT components:
N(Alpha)           :       24.999991344541 electrons
N(Beta)            :       24.999991344541 electrons
N(Total)           :       49.999982689082 electrons
E(X)               :      -38.585906532251 Eh       
E(C)               :       -1.562421699220 Eh       
E(XC)              :      -40.148328231471 Eh       

CPCM Solvation Model Properties:
Surface-charge          :         -0.04649611855240
Corrected charge        :          0.00000000000000
Outlying charge corr.   :          0.00017787622928 Eh               0.00484 eV
Free-energy (cav+disp)  :          0.00538102832658 Eh               0.14643 eV

---------------
SCF CONVERGENCE
---------------

  Last Energy change         ...    1.6033e-07  Tolerance :   1.0000e-06
  Last MAX-Density change    ...    1.6048e-04  Tolerance :   1.0000e-05
  Last RMS-Density change    ...    7.5332e-06  Tolerance :   1.0000e-06
  Last DIIS Error            ...    1.5495e-04  Tolerance :   1.0000e-06
  Last Orbital Gradient      ...    3.2683e-05  Tolerance :   3.3300e-04
  Last Orbital Rotation      ...    7.4225e-05  Tolerance :   3.3300e-04


----------------
ORBITAL ENERGIES
----------------

  NO   OCC          E(Eh)            E(eV) 
   0   2.0000     -18.946678      -515.5653 
   1   2.0000     -10.071070      -274.0477 
   2   2.0000     -10.016398      -272.5600 
   3   2.0000     -10.016231      -272.5555 
   4   2.0000     -10.010052      -272.3874 
   5   2.0000     -10.007740      -272.3244 
   6   2.0000      -0.984272       -26.7834 
   7   2.0000      -0.752128       -20.4664 
   8   2.0000      -0.712475       -19.3874 
   9   2.0000      -0.631547       -17.1853 
  10   2.0000      -0.570945       -15.5362 
  11   2.0000      -0.550014       -14.9666 
  12   2.0000      -0.446437       -12.1482 
  13   2.0000      -0.430144       -11.7048 
  14   2.0000      -0.407346       -11.0845 
  15   2.0000      -0.402538       -10.9536 
  16   2.0000      -0.376749       -10.2519 
  17   2.0000      -0.347799        -9.4641 
  18   2.0000      -0.333434        -9.0732 
  19   2.0000      -0.329703        -8.9717 
  20   2.0000      -0.311662        -8.4807 
  21   2.0000      -0.301145        -8.1946 
  22   2.0000      -0.293770        -7.9939 
  23   2.0000      -0.275545        -7.4979 
  24   2.0000      -0.234111        -6.3705 
  25   0.0000       0.082852         2.2545 
  26   0.0000       0.100224         2.7272 
  27   0.0000       0.118788         3.2324 
  28   0.0000       0.127395         3.4666 
  29   0.0000       0.139961         3.8085 
  30   0.0000       0.147321         4.0088 
  31   0.0000       0.154643         4.2081 
  32   0.0000       0.164784         4.4840 
  33   0.0000       0.169818         4.6210 
  34   0.0000       0.182908         4.9772 
  35   0.0000       0.195332         5.3153 
*Only the first 10 virtual orbitals were printed.

                    ********************************
                    * MULLIKEN POPULATION ANALYSIS *
                    ********************************

-----------------------
MULLIKEN ATOMIC CHARGES
-----------------------
   0 C :   -0.536757
   1 C :   -0.230844
   2 C :    0.027409
   3 C :   -0.256072
   4 C :   -0.547953
   5 O :   -0.512221
   6 H :    0.157680
   7 H :    0.158156
   8 H :    0.159310
   9 H :    0.156527
  10 H :    0.144090
  11 H :    0.144840
  12 H :    0.158872
  13 H :    0.152003
  14 H :    0.160353
  15 H :    0.158421
  16 H :    0.159567
  17 H :    0.346619
Sum of atomic charges:    0.0000000

--------------------------------
MULLIKEN REDUCED ORBITAL CHARGES
--------------------------------
  0 C s       :     3.355292  s :     3.355292
      pz      :     1.033085  p :     3.154448
      px      :     1.088780
      py      :     1.032583
      dz2     :     0.007585  d :     0.027017
      dxz     :     0.003237
      dyz     :     0.004841
      dx2y2   :     0.005632
      dxy     :     0.005722

  1 C s       :     3.187023  s :     3.187023
      pz      :     1.014472  p :     3.008195
      px      :     0.948321
      py      :     1.045402
      dz2     :     0.009158  d :     0.035627
      dxz     :     0.004845
      dyz     :     0.005964
      dx2y2   :     0.006716
      dxy     :     0.008944

  2 C s       :     3.213323  s :     3.213323
      pz      :     1.011347  p :     2.692253
      px      :     0.910477
      py      :     0.770430
      dz2     :     0.014215  d :     0.067015
      dxz     :     0.006781
      dyz     :     0.011801
      dx2y2   :     0.015888
      dxy     :     0.018330

  3 C s       :     3.217853  s :     3.217853
      pz      :     1.064922  p :     3.002512
      px      :     0.937070
      py      :     1.000520
      dz2     :     0.009421  d :     0.035707
      dxz     :     0.005464
      dyz     :     0.003986
      dx2y2   :     0.007119
      dxy     :     0.009718

  4 C s       :     3.360746  s :     3.360746
      pz      :     1.069730  p :     3.160213
      px      :     0.992732
      py      :     1.097750
      dz2     :     0.008371  d :     0.026994
      dxz     :     0.003967
      dyz     :     0.002057
      dx2y2   :     0.005054
      dxy     :     0.007545

  5 O s       :     3.752079  s :     3.752079
      pz      :     1.335989  p :     4.739782
      px      :     1.882939
      py      :     1.520854
      dz2     :     0.007673  d :     0.020360
      dxz     :     0.002355
      dyz     :     0.002726
      dx2y2   :     0.003004
      dxy     :     0.004604

  6 H s       :     0.824040  s :     0.824040
      pz      :     0.010107  p :     0.018279
      px      :     0.003682
      py      :     0.004491

  7 H s       :     0.823371  s :     0.823371
      pz      :     0.003656  p :     0.018472
      px      :     0.005593
      py      :     0.009223

  8 H s       :     0.822288  s :     0.822288
      pz      :     0.004370  p :     0.018402
      px      :     0.010063
      py      :     0.003970

  9 H s       :     0.825629  s :     0.825629
      pz      :     0.003493  p :     0.017845
      px      :     0.005720
      py      :     0.008632

 10 H s       :     0.838002  s :     0.838002
      pz      :     0.009976  p :     0.017908
      px      :     0.003385
      py      :     0.004547

 11 H s       :     0.838086  s :     0.838086
      pz      :     0.011169  p :     0.017074
      px      :     0.003175
      py      :     0.002729

 12 H s       :     0.823248  s :     0.823248
      pz      :     0.010794  p :     0.017879
      px      :     0.003460
      py      :     0.003625

 13 H s       :     0.829669  s :     0.829669
      pz      :     0.004676  p :     0.018329
      px      :     0.004448
      py      :     0.009204

 14 H s       :     0.821242  s :     0.821242
      pz      :     0.004465  p :     0.018405
      px      :     0.004308
      py      :     0.009632

 15 H s       :     0.823215  s :     0.823215
      pz      :     0.004078  p :     0.018364
      px      :     0.007199
      py      :     0.007087

 16 H s       :     0.822176  s :     0.822176
      pz      :     0.010936  p :     0.018257
      px      :     0.003576
      py      :     0.003745

 17 H s       :     0.610565  s :     0.610565
      pz      :     0.022567  p :     0.042815
      px      :     0.011803
      py      :     0.008444


------------------------
MULLIKEN OVERLAP CHARGES
------------------------
B(  0-C ,  1-C ) :   0.4007 B(  0-C ,  2-C ) :  -0.1960 B(  0-C ,  3-C ) :   0.0559 
B(  0-C ,  6-H ) :   0.8694 B(  0-C ,  7-H ) :   0.8471 B(  0-C ,  8-H ) :   0.7932 
B(  0-C ,  9-H ) :  -0.0555 B(  1-C ,  2-C ) :   0.5545 B(  1-C ,  3-C ) :  -0.1923 
B(  1-C ,  5-O ) :  -0.0808 B(  1-C ,  6-H ) :  -0.1211 B(  1-C ,  7-H ) :  -0.0703 
B(  1-C ,  8-H ) :  -0.0707 B(  1-C ,  9-H ) :   0.8719 B(  1-C , 10-H ) :   0.7925 
B(  1-C , 11-H ) :  -0.1295 B(  2-C ,  3-C ) :   0.3644 B(  2-C ,  4-C ) :  -0.1434 
B(  2-C ,  5-O ) :   0.3731 B(  2-C ,  9-H ) :  -0.1239 B(  2-C , 10-H ) :  -0.0770 
B(  2-C , 11-H ) :   0.8478 B(  2-C , 12-H ) :  -0.0696 B(  2-C , 13-H ) :  -0.0854 
B(  2-C , 17-H ) :  -0.1133 B(  3-C ,  4-C ) :   0.3109 B(  3-C ,  5-O ) :  -0.2119 
B(  3-C , 11-H ) :  -0.0679 B(  3-C , 12-H ) :   0.8655 B(  3-C , 13-H ) :   0.8042 
B(  3-C , 14-H ) :  -0.0964 B(  3-C , 15-H ) :  -0.0776 B(  3-C , 16-H ) :  -0.0834 
B(  4-C , 12-H ) :  -0.0504 B(  4-C , 14-H ) :   0.8649 B(  4-C , 15-H ) :   0.8018 
B(  4-C , 16-H ) :   0.8560 B(  5-O , 11-H ) :  -0.1131 B(  5-O , 17-H ) :   0.6308 
B(  6-H ,  7-H ) :  -0.0516 B( 14-H , 16-H ) :  -0.0515 


                     *******************************
                     * LOEWDIN POPULATION ANALYSIS *
                     *******************************

----------------------
LOEWDIN ATOMIC CHARGES
----------------------
   0 C :   -0.427488
   1 C :   -0.294031
   2 C :    0.048301
   3 C :   -0.292730
   4 C :   -0.429021
   5 O :   -0.650527
   6 H :    0.154421
   7 H :    0.152994
   8 H :    0.155181
   9 H :    0.162978
  10 H :    0.160765
  11 H :    0.183914
  12 H :    0.162569
  13 H :    0.164153
  14 H :    0.156148
  15 H :    0.153094
  16 H :    0.154163
  17 H :    0.285117

-------------------------------
LOEWDIN REDUCED ORBITAL CHARGES
-------------------------------
  0 C s       :     2.971440  s :     2.971440
      pz      :     1.130224  p :     3.392888
      px      :     1.139141
      py      :     1.123523
      dz2     :     0.017805  d :     0.063160
      dxz     :     0.007365
      dyz     :     0.011449
      dx2y2   :     0.012926
      dxy     :     0.013614

  1 C s       :     2.941236  s :     2.941236
      pz      :     1.115507  p :     3.275617
      px      :     1.053347
      py      :     1.106763
      dz2     :     0.019846  d :     0.077179
      dxz     :     0.009950
      dyz     :     0.013673
      dx2y2   :     0.013737
      dxy     :     0.019972

  2 C s       :     2.841743  s :     2.841743
      pz      :     1.025440  p :     2.965855
      px      :     1.020300
      py      :     0.920115
      dz2     :     0.034029  d :     0.144101
      dxz     :     0.011902
      dyz     :     0.023930
      dx2y2   :     0.033511
      dxy     :     0.040729

  3 C s       :     2.939541  s :     2.939541
      pz      :     1.131510  p :     3.275676
      px      :     1.057154
      py      :     1.087012
      dz2     :     0.021379  d :     0.077513
      dxz     :     0.011244
      dyz     :     0.008692
      dx2y2   :     0.015500
      dxy     :     0.020698

  4 C s       :     2.973158  s :     2.973158
      pz      :     1.146215  p :     3.392858
      px      :     1.092299
      py      :     1.154344
      dz2     :     0.020098  d :     0.063005
      dxz     :     0.008648
      dyz     :     0.004874
      dx2y2   :     0.011857
      dxy     :     0.017528

  5 O s       :     3.512930  s :     3.512930
      pz      :     1.412957  p :     4.845339
      px      :     1.842219
      py      :     1.590163
      dz2     :     0.089672  d :     0.292258
      dxz     :     0.020125
      dyz     :     0.055207
      dx2y2   :     0.062424
      dxy     :     0.064831

  6 H s       :     0.801816  s :     0.801816
      pz      :     0.025028  p :     0.043763
      px      :     0.008176
      py      :     0.010559

  7 H s       :     0.802696  s :     0.802696
      pz      :     0.008156  p :     0.044310
      px      :     0.013398
      py      :     0.022757

  8 H s       :     0.800833  s :     0.800833
      pz      :     0.010137  p :     0.043986
      px      :     0.024906
      py      :     0.008942

  9 H s       :     0.793909  s :     0.793909
      pz      :     0.008150  p :     0.043114
      px      :     0.013487
      py      :     0.021477

 10 H s       :     0.795641  s :     0.795641
      pz      :     0.024658  p :     0.043593
      px      :     0.008049
      py      :     0.010886

 11 H s       :     0.776516  s :     0.776516
      pz      :     0.025139  p :     0.039570
      px      :     0.007454
      py      :     0.006976

 12 H s       :     0.794141  s :     0.794141
      pz      :     0.026833  p :     0.043290
      px      :     0.008185
      py      :     0.008271

 13 H s       :     0.791137  s :     0.791137
      pz      :     0.011238  p :     0.044710
      px      :     0.010642
      py      :     0.022829

 14 H s       :     0.799487  s :     0.799487
      pz      :     0.010382  p :     0.044366
      px      :     0.009718
      py      :     0.024266

 15 H s       :     0.802863  s :     0.802863
      pz      :     0.009292  p :     0.044044
      px      :     0.017343
      py      :     0.017409

 16 H s       :     0.802095  s :     0.802095
      pz      :     0.027319  p :     0.043742
      px      :     0.008094
      py      :     0.008328

 17 H s       :     0.591658  s :     0.591658
      pz      :     0.067927  p :     0.123225
      px      :     0.031432
      py      :     0.023866


---------------------------------
LOEWDIN BOND ORDERS (THRESH 0.050000)
---------------------------------
B(  0-C ,  1-C ) :   1.1360 B(  0-C ,  2-C ) :   0.0724 B(  0-C ,  6-H ) :   0.9276 
B(  0-C ,  7-H ) :   0.9265 B(  0-C ,  8-H ) :   0.9270 B(  1-C ,  2-C ) :   1.0085 
B(  1-C ,  3-C ) :   0.0714 B(  1-C ,  5-O ) :   0.1746 B(  1-C ,  9-H ) :   0.8818 
B(  1-C , 10-H ) :   0.8859 B(  2-C ,  3-C ) :   1.0093 B(  2-C ,  4-C ) :   0.0700 
B(  2-C ,  5-O ) :   1.4158 B(  2-C , 11-H ) :   0.7908 B(  3-C ,  4-C ) :   1.1370 
B(  3-C ,  5-O ) :   0.1609 B(  3-C , 12-H ) :   0.8846 B(  3-C , 13-H ) :   0.8788 
B(  4-C , 14-H ) :   0.9209 B(  4-C , 15-H ) :   0.9289 B(  4-C , 16-H ) :   0.9290 
B(  5-O , 11-H ) :   0.0965 B(  5-O , 17-H ) :   0.9576 

------------------------------------------
LOEWDIN REDUCED ORBITAL POPULATIONS PER MO
-------------------------------------------
THRESHOLD FOR PRINTING IS 0.1%%
                      0         1         2         3         4         5   
                 -18.94668 -10.07107 -10.01640 -10.01623 -10.01005 -10.00774
                   2.00000   2.00000   2.00000   2.00000   2.00000   2.00000
                  --------  --------  --------  --------  --------  --------
 0 C  s               0.0       0.0       0.0       0.0      99.7       0.0
 1 C  s               0.0       0.0      99.7       0.0       0.0       0.0
 2 C  s               0.0      99.3       0.0       0.0       0.0       0.0
 3 C  s               0.0       0.0       0.0      99.7       0.0       0.0
 4 C  s               0.0       0.0       0.0       0.0       0.0      99.7
 5 O  s              99.9       0.0       0.0       0.0       0.0       0.0
 5 O  dyz             0.0       0.1       0.0       0.0       0.0       0.0

                      6         7         8         9        10        11   
                  -0.98427  -0.75213  -0.71247  -0.63155  -0.57095  -0.55001
                   2.00000   2.00000   2.00000   2.00000   2.00000   2.00000
                  --------  --------  --------  --------  --------  --------
 0 C  s               0.1       9.2      14.0      15.4       5.9       3.0
 0 C  pz              0.0       0.6       0.4       0.1       1.6       2.4
 0 C  px              0.1       0.7       0.1       0.5       0.3       0.4
 0 C  py              0.0       0.8       0.5       0.4       2.5       0.9
 1 C  s               0.8      16.2      12.4       0.2       8.6       5.9
 1 C  pz              0.0       0.8       0.5       0.3       1.5       4.8
 1 C  px              1.1       0.4       1.1       5.9       0.0       0.1
 1 C  py              0.4       0.4       0.5       2.7       3.2       0.0
 1 C  dxz             0.0       0.0       0.0       0.1       0.0       0.0
 2 C  s               9.5      11.6       0.0      11.7       0.0       4.3
 2 C  pz              2.2       0.0       0.1       0.2       0.0       7.3
 2 C  px              0.7       0.4       8.1       0.2       6.1       0.9
 2 C  py              5.6       5.3       0.4       0.2       2.3       5.8
 2 C  dyz             0.4       0.1       0.0       0.0       0.0       0.0
 2 C  dx2y2           0.2       0.1       0.0       0.0       0.1       0.1
 2 C  dxy             0.1       0.0       0.1       0.0       0.1       0.0
 3 C  s               0.8      15.4      13.6       0.2       9.0       4.1
 3 C  pz              0.0       0.3       0.3       0.1       0.8       2.3
 3 C  px              0.3       0.2       3.1       7.1       3.0       0.1
 3 C  py              1.2       0.4       0.0       0.5       0.8       2.8
 3 C  dxy             0.0       0.0       0.0       0.1       0.0       0.0
 4 C  s               0.1       7.0      17.0      12.3      10.2       0.8
 4 C  pz              0.0       0.2       0.2       0.0       1.0       0.7
 4 C  px              0.2       1.5       1.0       0.8       4.4       0.5
 4 C  py              0.0       0.1       0.1       0.0       0.3       0.8
 5 O  s              60.0       3.8       0.0       1.9       0.1       0.0
 5 O  pz              0.2       1.3       0.0       4.6       0.3      18.7
 5 O  px              0.1       0.2       0.2       0.8       0.8       0.3
 5 O  py              2.0       1.6       0.0       3.2       0.0       2.2
 5 O  dz2             0.0       0.3       0.0       0.1       0.0       0.1
 5 O  dyz             0.1       0.4       0.0       0.4       0.0       0.8
 5 O  dx2y2           0.1       0.3       0.1       0.4       0.3       0.0
 5 O  dxy             0.1       0.1       0.3       0.4       0.3       0.0
 6 H  s               0.0       1.3       2.3       3.6       2.3       2.0
 6 H  pz              0.0       0.1       0.2       0.3       0.1       0.1
 7 H  s               0.0       1.3       2.2       3.8       2.9       1.2
 7 H  py              0.0       0.1       0.2       0.2       0.1       0.1
 8 H  s               0.0       1.2       2.4       4.3       2.1       1.2
 8 H  px              0.0       0.1       0.2       0.3       0.1       0.1
 9 H  s               0.1       2.1       2.1       0.0       4.2       2.1
 9 H  px              0.0       0.1       0.1       0.0       0.1       0.0
 9 H  py              0.0       0.1       0.2       0.0       0.2       0.1
10 H  s               0.0       2.2       1.9       0.0       2.7       4.4
10 H  pz              0.0       0.2       0.2       0.0       0.2       0.2
11 H  s               0.6       1.8       0.0       3.1       0.0       5.6
11 H  pz              0.1       0.1       0.0       0.3       0.0       0.4
12 H  s               0.0       2.1       2.1       0.0       3.4       3.1
12 H  pz              0.0       0.2       0.2       0.0       0.3       0.2
13 H  s               0.0       2.4       2.1       0.0       3.8       2.1
13 H  py              0.0       0.2       0.1       0.0       0.2       0.1
14 H  s               0.0       0.9       2.8       3.0       3.8       0.6
14 H  py              0.0       0.1       0.2       0.2       0.2       0.0
15 H  s               0.0       1.0       2.8       3.4       4.0       0.2
15 H  px              0.0       0.0       0.1       0.1       0.1       0.0
15 H  py              0.0       0.0       0.1       0.1       0.2       0.0
16 H  s               0.0       1.0       2.8       2.9       3.9       0.7
16 H  pz              0.0       0.1       0.2       0.2       0.3       0.0
17 H  s              10.1       1.2       0.0       2.0       0.2       4.7
17 H  pz              2.2       0.3       0.0       0.3       0.0       0.3

                     12        13        14        15        16        17   
                  -0.44644  -0.43014  -0.40735  -0.40254  -0.37675  -0.34780
                   2.00000   2.00000   2.00000   2.00000   2.00000   2.00000
                  --------  --------  --------  --------  --------  --------
 0 C  s               0.1       0.1       0.1       0.0       0.1       0.0
 0 C  pz              1.6       0.2      11.0       2.7       1.2      11.1
 0 C  px              4.2       0.0       0.5       4.7      12.8      15.6
 0 C  py              0.0       3.9       0.0      13.7       0.2       1.2
 0 C  dx2y2           0.0       0.0       0.0       0.0       0.0       0.2
 1 C  s               0.2       0.2       0.5       0.0       0.3       0.3
 1 C  pz              4.8       3.1       4.1       4.3       1.6       0.1
 1 C  px              5.8       3.8       6.7       5.3       0.2       0.0
 1 C  py              0.2       3.8       4.3       7.8       6.3       0.0
 2 C  s               1.5       1.0       0.3       0.0       0.3       1.8
 2 C  pz              5.0       8.9       3.9       1.0       4.9       5.2
 2 C  px              2.5       2.1       9.3       0.8       0.3       0.1
 2 C  py              9.5       2.2       0.5       0.6       0.2       0.3
 2 C  dz2             0.1       0.0       0.0       0.0       0.0       0.3
 2 C  dyz             0.0       0.0       0.0       0.0       0.1       0.0
 2 C  dx2y2           0.1       0.0       0.0       0.2       0.0       0.0
 2 C  dxy             0.0       0.0       0.0       0.1       0.1       0.0
 3 C  s               0.8       1.2       0.1       0.3       0.0       0.1
 3 C  pz              7.0       3.8       8.9       1.2       5.3       0.2
 3 C  px              3.9       1.2       0.4       1.3       0.6       0.1
 3 C  py              0.2      15.1       2.6       8.2       0.1       0.0
 3 C  dxy             0.0       0.1       0.0       0.0       0.0       0.1
 4 C  s               0.1       0.1       0.1       0.1       0.0       0.0
 4 C  pz              4.3       0.3       3.6       3.5      14.6       4.6
 4 C  px              0.2       1.7       7.1       1.7       2.1       5.4
 4 C  py              0.2       8.0       3.6       5.4       2.5       7.0
 4 C  dxy             0.0       0.0       0.0       0.0       0.0       0.1
 5 O  s               0.2       2.4       0.7       0.7       1.9       0.4
 5 O  pz             20.9       2.9       1.0       4.1       3.4       3.6
 5 O  px              0.5       0.8       7.2       1.9       4.1       0.1
 5 O  py              3.5      11.2       2.2       0.2      12.5       0.2
 5 O  dz2             0.5       0.2       0.1       0.0       0.0       0.5
 5 O  dxz             0.0       0.1       0.1       0.0       0.0       0.1
 5 O  dyz             0.2       0.1       0.1       0.1       0.0       0.2
 5 O  dx2y2           0.0       0.5       0.0       0.0       0.0       0.1
 5 O  dxy             0.1       0.0       0.4       0.2       0.1       0.0
 6 H  s               0.2       0.2       3.9       3.2       0.6       5.5
 6 H  pz              0.0       0.0       0.1       0.1       0.0       0.1
 6 H  px              0.0       0.0       0.0       0.0       0.1       0.1
 7 H  s               0.1       1.2       0.2       7.0       0.6       0.8
 7 H  py              0.0       0.0       0.0       0.1       0.1       0.1
 8 H  s               1.7       0.2       0.7       0.2       4.5      13.0
 8 H  px              0.1       0.0       0.0       0.0       0.0       0.2
 9 H  s               1.6       3.2       0.1       4.4       1.2       0.3
 9 H  py              0.1       0.1       0.1       0.1       0.0       0.0
10 H  s               1.4       1.3       3.5       3.1       0.1       0.0
10 H  pz              0.0       0.0       0.1       0.1       0.0       0.0
11 H  s               3.0       1.7       0.5       0.5       1.4       6.2
11 H  pz              0.1       0.0       0.0       0.0       0.0       0.1
11 H  px              0.0       0.0       0.1       0.0       0.0       0.0
11 H  py              0.2       0.0       0.0       0.0       0.0       0.0
12 H  s               4.2       0.0       3.2       0.6       1.9       0.0
12 H  pz              0.2       0.0       0.1       0.0       0.0       0.0
12 H  py              0.0       0.1       0.0       0.1       0.0       0.0
13 H  s               0.1       7.5       0.0       3.4       0.7       0.3
13 H  px              0.0       0.1       0.0       0.0       0.0       0.0
13 H  py              0.0       0.2       0.0       0.0       0.0       0.0
14 H  s               0.0       3.8       0.0       1.5       4.2       0.5
14 H  py              0.0       0.1       0.0       0.0       0.1       0.0
15 H  s               0.0       0.1       5.3       1.9       0.3       8.1
16 H  s               1.8       0.0       1.1       1.3       6.2       2.9
16 H  pz              0.1       0.0       0.0       0.0       0.1       0.1
17 H  s               5.9       0.3       0.0       1.0       0.4       1.1
17 H  pz              0.2       0.0       0.0       0.0       0.0       0.0
17 H  py              0.1       0.1       0.0       0.0       0.2       0.0

                     18        19        20        21        22        23   
                  -0.33343  -0.32970  -0.31166  -0.30114  -0.29377  -0.27554
                   2.00000   2.00000   2.00000   2.00000   2.00000   2.00000
                  --------  --------  --------  --------  --------  --------
 0 C  s               0.2       0.1       0.4       0.0       0.1       0.0
 0 C  pz              0.3       0.2      22.4       0.0       0.1       0.4
 0 C  px              0.5       9.3       1.4       0.2       3.6       0.2
 0 C  py             21.9       0.6       0.2       0.0       6.3       2.2
 0 C  dz2             0.1       0.0       0.3       0.0       0.0       0.2
 0 C  dyz             0.0       0.0       0.2       0.0       0.0       0.0
 0 C  dx2y2           0.0       0.1       0.0       0.0       0.2       0.0
 0 C  dxy             0.1       0.0       0.0       0.0       0.2       0.0
 1 C  s               0.2       0.2       0.2       0.0       0.2       0.2
 1 C  pz              3.2       0.1      21.6       0.0       0.2       3.9
 1 C  px              1.1       0.6       1.1       2.1       7.7       1.0
 1 C  py             10.0       0.2       0.2       1.5       7.6       5.2
 1 C  dz2             0.0       0.0       0.4       0.0       0.0       0.4
 1 C  dxz             0.1       0.0       0.0       0.0       0.0       0.0
 1 C  dyz             0.1       0.0       0.2       0.0       0.0       0.0
 1 C  dx2y2           0.0       0.1       0.0       0.0       0.1       0.0
 1 C  dxy             0.0       0.0       0.2       0.1       0.4       0.1
 2 C  s               0.1       0.1       0.1       0.1       0.1       0.3
 2 C  pz              1.2       0.2       0.7       0.7       2.5       7.1
 2 C  px              3.5       0.6       1.3       1.9       3.8       0.0
 2 C  py              0.8       1.3       0.9       0.3       0.1       9.0
 2 C  dz2             0.1       0.0       0.0       0.1       0.1       0.9
 2 C  dxz             0.1       0.0       0.1       0.0       0.1       0.0
 2 C  dyz             0.0       0.1       0.1       0.2       0.0       0.0
 2 C  dx2y2           0.0       0.1       0.0       0.0       0.0       0.1
 2 C  dxy             0.2       0.0       0.0       0.0       0.0       0.1
 3 C  s               0.1       0.1       0.0       0.0       0.2       0.6
 3 C  pz              0.2       4.5       0.8      12.8       7.0       1.0
 3 C  px              2.7      15.2       0.0       6.2       2.6       0.7
 3 C  py              0.1       3.5       1.1       3.4       0.0       9.4
 3 C  dz2             0.0       0.1       0.0       0.5       0.2       0.1
 3 C  dyz             0.0       0.0       0.0       0.2       0.0       0.0
 3 C  dx2y2           0.0       0.1       0.0       0.1       0.1       0.2
 3 C  dxy             0.2       0.0       0.1       0.0       0.1       0.2
 4 C  s               0.0       0.3       0.0       0.0       0.5       0.1
 4 C  pz              2.3       5.6       1.4       9.3       5.5       0.1
 4 C  px              4.7       9.5       0.3       6.3       5.0       0.2
 4 C  py              9.0      11.2       3.4       2.1       0.6       3.3
 4 C  dz2             0.0       0.1       0.1       0.5       0.1       0.0
 4 C  dxz             0.0       0.1       0.0       0.1       0.0       0.0
 4 C  dx2y2           0.0       0.2       0.0       0.0       0.0       0.1
 4 C  dxy             0.2       0.0       0.1       0.0       0.1       0.1
 5 O  s               0.1       1.1       0.3       0.1       0.3       1.8
 5 O  pz              0.9       2.8       0.6       0.0       0.3       4.4
 5 O  px              6.8       0.0       3.2       1.5       9.5       1.5
 5 O  py              4.0       9.0       4.3       5.8       1.2      12.8
 5 O  dz2             0.0       0.2       0.0       0.0       0.2       2.3
 5 O  dx2y2           0.4       0.0       0.1       0.2       0.0       0.2
 6 H  s               0.9       0.3      11.7       0.0       0.5       1.5
 6 H  py              0.1       0.0       0.1       0.0       0.0       0.0
 7 H  s               7.4       2.7       0.3       0.3       7.1       1.0
 7 H  pz              0.0       0.0       0.2       0.0       0.0       0.0
 7 H  px              0.2       0.0       0.0       0.0       0.0       0.0
 8 H  s               0.8       3.6       0.3       0.2       1.7       0.4
 8 H  pz              0.0       0.0       0.2       0.0       0.0       0.0
 8 H  py              0.2       0.0       0.0       0.0       0.1       0.0
 9 H  s               2.4       0.0       0.0       2.3      10.4       2.5
 9 H  pz              0.0       0.0       0.2       0.0       0.0       0.0
 9 H  px              0.1       0.0       0.0       0.0       0.0       0.1
10 H  s               0.0       0.0      12.5       0.5       0.4       5.7
10 H  py              0.1       0.0       0.1       0.0       0.0       0.0
11 H  s               1.0       0.1       0.7       1.3       2.2       9.1
12 H  s               0.0       2.4       0.7       9.9       4.3       1.6
12 H  px              0.0       0.2       0.0       0.0       0.0       0.0
13 H  s               0.1       2.2       0.4      11.4       0.2       2.3
13 H  pz              0.0       0.1       0.0       0.0       0.0       0.1
13 H  py              0.0       0.0       0.0       0.2       0.0       0.0
14 H  s               3.4       5.3       0.7       6.8       0.9       1.7
14 H  pz              0.0       0.2       0.0       0.0       0.0       0.0
15 H  s               5.5       0.5       2.5       1.2       1.1       1.3
15 H  px              0.0       0.2       0.0       0.0       0.0       0.0
16 H  s               0.6       2.7       1.1       8.2       2.5       0.1
16 H  px              0.1       0.1       0.0       0.0       0.1       0.0
17 H  s               0.2       0.6       0.1       0.0       0.3       1.5
17 H  px              0.1       0.0       0.0       0.0       0.2       0.0
17 H  py              0.1       0.1       0.1       0.1       0.0       0.2

                     24        25        26        27        28        29   
                  -0.23411   0.08285   0.10022   0.11879   0.12740   0.13996
                   2.00000   0.00000   0.00000   0.00000   0.00000   0.00000
                  --------  --------  --------  --------  --------  --------
 0 C  s               0.1       1.0      23.4       0.5       0.8       3.3
 0 C  pz              0.0       1.1       0.3       3.1       1.7       1.1
 0 C  px              1.8       0.6       0.3       0.8       1.4       6.4
 0 C  py              0.6       2.1       0.6       0.4       0.0      11.7
 0 C  dz2             0.1       0.0       0.1       0.0       0.2       0.1
 0 C  dxz             0.0       0.0       0.1       0.0       0.2       0.5
 0 C  dyz             0.0       0.1       0.2       0.1       0.1       0.3
 0 C  dx2y2           0.1       0.0       0.1       0.1       0.3       0.7
 0 C  dxy             0.0       0.1       0.0       0.0       0.2       0.0
 1 C  s               0.8       1.7       8.7       3.7       0.1       3.5
 1 C  pz              0.6       1.6       1.1       2.2       8.2       4.6
 1 C  px              8.5       3.6       3.0       0.1       0.4       1.0
 1 C  py              1.0       2.4       0.6       0.1       0.9       3.2
 1 C  dz2             0.0       0.0       0.0       0.1       0.3       0.1
 1 C  dxz             0.0       0.6       0.1       0.0       0.3       0.0
 1 C  dyz             0.1       0.1       0.2       0.2       0.2       0.8
 1 C  dxy             0.0       0.2       0.5       0.0       0.1       0.0
 2 C  s               0.0       2.3       1.8       1.3       0.4       2.7
 2 C  pz              0.1       3.6       3.1       7.5       8.8       6.6
 2 C  px              8.6       1.6       2.7       3.4       0.5       1.7
 2 C  py              0.5      10.4       1.7       0.9      14.5       1.2
 2 C  dz2             0.0       0.0       0.0       0.3       0.5       0.5
 2 C  dxz             0.0       0.1       0.4       0.1       0.0       0.1
 2 C  dyz             0.0       0.7       0.2       0.1       1.5       0.0
 2 C  dx2y2           0.5       0.3       0.2       0.1       0.2       0.4
 2 C  dxy             1.1       0.1       0.1       0.1       0.3       0.0
 3 C  s               0.6       3.4       4.6       4.1       2.5       2.5
 3 C  pz              0.0       1.5       0.3       3.7       5.0       4.4
 3 C  px              4.1       0.2       5.5       5.1       1.8       0.0
 3 C  py              4.7       0.8       2.4       3.0       1.1      10.1
 3 C  dz2             0.0       0.0       0.0       0.0       0.9       0.0
 3 C  dxz             0.0       0.1       0.0       0.3       0.6       0.0
 3 C  dyz             0.0       0.2       0.0       0.0       0.1       0.2
 3 C  dx2y2           0.0       0.3       0.3       0.2       0.1       0.3
 3 C  dxy             0.1       0.1       0.3       0.1       0.0       0.0
 4 C  s               0.0       2.9       1.1      23.8       2.2       0.2
 4 C  pz              0.0       0.0       1.2       1.7       2.4       1.5
 4 C  px              2.0       0.7       2.5       1.1       1.1       0.7
 4 C  py              0.0       0.1       0.8       0.4       0.4       1.6
 4 C  dz2             0.0       0.1       0.1       0.1       0.0       0.1
 4 C  dxy             0.1       0.2       0.1       0.0       0.1       0.2
 5 O  s               0.0       9.6       0.9       0.3       0.8       0.0
 5 O  pz              0.5       2.9       0.2       0.9       5.7       0.5
 5 O  px             52.6       0.2       0.0       0.8       0.4       0.6
 5 O  py              3.4       3.2       0.9       0.1       1.1       0.5
 5 O  dz2             0.0       2.6       0.1       1.6       0.3       0.1
 5 O  dxz             0.2       0.1       0.1       0.8       0.1       0.1
 5 O  dyz             0.0       1.2       1.0       0.1       0.1       2.5
 5 O  dx2y2           0.3       0.1       0.2       0.0       0.6       0.2
 5 O  dxy             0.9       0.1       0.9       0.0       0.1       0.0
 6 H  s               0.1       0.0       2.3       0.1       1.9       0.1
 6 H  pz              0.0       0.1       0.8       0.1       0.4       0.0
 6 H  px              0.0       0.0       0.0       0.0       0.2       0.6
 6 H  py              0.0       0.1       0.6       0.0       0.3       0.0
 7 H  s               0.1       0.5       2.9       0.1       1.1       3.7
 7 H  pz              0.0       0.1       0.0       0.1       0.2       0.0
 7 H  px              0.0       0.1       1.0       0.1       0.0       0.0
 7 H  py              0.0       0.0       0.8       0.0       0.3       1.9
 8 H  s               1.5       0.0       3.0       0.6       2.5       1.7
 8 H  pz              0.0       0.0       0.4       0.0       0.0       0.3
 8 H  px              0.0       0.0       1.3       0.0       0.2       0.0
 9 H  s               0.5       0.3       2.6       0.1       0.0       0.4
 9 H  pz              0.0       0.0       0.1       0.1       0.3       0.6
 9 H  px              0.1       0.1       0.6       0.0       0.0       0.1
 9 H  py              0.0       0.3       0.7       0.2       0.0       0.6
10 H  s               0.0       0.5       2.1       1.7       0.1       1.3
10 H  pz              0.0       0.3       0.7       0.7       0.4       0.0
10 H  px              0.1       0.3       0.0       0.0       0.0       0.0
10 H  py              0.0       0.0       0.6       0.2       0.1       0.3
11 H  s               0.0       0.6       0.8       1.9       3.8       4.1
11 H  pz              0.0       0.1       0.4       0.8       0.8       1.9
11 H  px              0.1       0.1       0.3       0.2       0.0       0.2
11 H  py              0.0       0.6       0.0       0.1       1.5       0.0
12 H  s               0.0       0.8       0.6       0.3       7.2       0.4
12 H  pz              0.0       0.4       0.3       0.1       1.9       0.5
12 H  px              0.0       0.0       0.0       0.4       0.4       0.0
12 H  py              0.0       0.1       0.0       0.0       0.0       0.1
13 H  s               0.5       2.6       1.1       1.4       0.4       0.8
13 H  pz              0.0       0.1       0.1       0.4       0.5       0.0
13 H  px              0.1       0.0       0.9       0.0       0.0       0.0
13 H  py              0.0       0.4       0.2       0.8       0.2       0.8
14 H  s               0.1       0.8       0.1       1.5       0.1       0.0
14 H  pz              0.0       0.1       0.1       0.3       0.1       0.0
14 H  px              0.0       0.0       0.1       0.0       0.1       0.0
14 H  py              0.0       0.3       0.1       0.8       0.0       0.0
15 H  s               0.9       1.0       0.1       2.1       0.2       1.3
15 H  pz              0.0       0.0       0.0       0.4       0.1       0.0
15 H  px              0.0       0.1       0.1       0.4       0.1       0.1
15 H  py              0.0       0.2       0.0       1.0       0.0       0.3
16 H  s               0.1       0.2       0.3       4.4       0.5       0.3
16 H  pz              0.0       0.0       0.0       2.3       0.1       0.1
16 H  px              0.0       0.1       0.1       0.2       0.0       0.0
17 H  s               0.0      18.7       0.2       1.7       3.5       0.1
17 H  pz              0.0       4.6       0.1       0.6       0.5       0.0
17 H  px              1.0       0.0       0.0       0.0       0.0       0.0
17 H  py              0.1       0.1       0.1       0.0       0.1       0.1

                     30        31        32        33        34        35   
                   0.14732   0.15464   0.16478   0.16982   0.18291   0.19533
                   0.00000   0.00000   0.00000   0.00000   0.00000   0.00000
                  --------  --------  --------  --------  --------  --------
 0 C  s               6.0       0.5       2.3       1.5       0.6       0.7
 0 C  pz              3.2       2.8      19.7       0.0       2.0       2.1
 0 C  px              0.1       9.0       6.8       4.4       4.1       2.4
 0 C  py              2.4       2.0       5.9       0.1       4.1       9.3
 0 C  dz2             0.1       0.1       0.0       0.2       0.7       0.6
 0 C  dxz             0.0       0.2       0.6       0.0       0.1       0.4
 0 C  dyz             0.1       0.3       0.7       0.0       0.1       0.1
 0 C  dx2y2           0.1       0.0       0.0       0.0       0.6       0.1
 0 C  dxy             0.0       0.2       0.6       0.0       0.3       0.4
 1 C  s               0.1       2.8       7.2       1.2       1.0       0.2
 1 C  pz              0.3       2.0       2.1       4.0       4.3       6.9
 1 C  px              4.6       2.2       2.7      12.8       2.1       4.6
 1 C  py              0.1       1.0       3.7       4.2       1.6      11.8
 1 C  dz2             0.1       0.0       0.3       0.5       0.4       0.1
 1 C  dxz             0.2       0.0       0.0       0.4       0.0       0.2
 1 C  dyz             0.4       0.2       0.0       0.2       0.5       0.0
 1 C  dx2y2           0.1       0.5       0.1       0.7       0.1       0.1
 1 C  dxy             0.5       0.3       0.5       0.0       0.1       1.4
 2 C  s               0.4       0.5       2.9      12.4       0.8       1.3
 2 C  pz              0.9       1.5       0.3       2.5       0.4       5.6
 2 C  px              4.1       0.6       0.4       0.4       2.1       1.1
 2 C  py              1.5       2.6       0.5       1.5       0.6       0.2
 2 C  dz2             0.1       0.3       0.0       0.2       0.0       0.0
 2 C  dxz             0.4       0.0       0.1       0.0       0.1       0.0
 2 C  dyz             0.0       0.0       0.0       0.1       0.0       0.1
 2 C  dx2y2           0.0       0.0       0.2       0.1       0.4       0.1
 2 C  dxy             0.5       0.0       0.2       0.3       0.3       0.4
 3 C  s               5.4       5.1       0.2       0.7       1.6       0.6
 3 C  pz              4.4       5.1       0.3       1.9       2.8       1.0
 3 C  px              1.2       0.4       1.6       3.2       3.9       2.5
 3 C  py             10.7       1.1       6.0       8.7       0.9       0.2
 3 C  dz2             0.0       0.0       0.2       0.9       0.3       0.1
 3 C  dxz             0.2       0.0       0.0       0.0       0.1       0.0
[...]
 2 C  dxz             1.0       0.0       0.3       0.6       0.0       0.0
 2 C  dyz             0.2       0.1       0.5       5.2       0.8       0.0
 2 C  dx2y2           1.1       0.5       1.2       4.1       0.5       0.0
 2 C  dxy             0.2       1.2       0.2       2.3       0.3       0.0
 3 C  s               0.6       0.0       0.5       0.2       0.0       7.0
 3 C  pz              1.2       1.0       3.2       0.1       0.0       0.0
 3 C  px              3.2       1.2       1.9       0.1       0.0       0.0
 3 C  py              3.4       0.5       0.1       0.3       0.0       0.0
 3 C  dz2             1.5       0.5       8.8       0.0       0.0       0.0
 3 C  dxz             1.1       0.4       0.0       0.0       0.0       0.0
 3 C  dyz             4.1       0.8       1.4       0.3       0.0       0.0
 3 C  dx2y2           5.2       0.0       0.4       0.2       0.0       0.0
 3 C  dxy             1.0       1.5       0.0       0.3       0.0       0.0
 4 C  s               0.6       0.3       0.0       0.1       0.0      86.4
 4 C  pz              0.2       0.4       0.1       0.0       0.0       0.0
 4 C  px              1.6       0.6       0.0       0.1       0.0       0.0
 4 C  py              1.3       0.4       0.9       0.0       0.0       0.0
 4 C  dz2             0.2       0.7       0.3       0.0       0.0       0.0
 4 C  dxz             0.8       0.3       0.0       0.0       0.0       0.0
 4 C  dyz             1.7       0.3       0.5       0.0       0.0       0.0
 4 C  dx2y2           3.2       0.0       0.6       0.0       0.0       0.0
 4 C  dxy             0.5       1.4       0.3       0.0       0.0       0.0
 5 O  s               0.5       0.1       0.2      26.9       6.4       0.0
 5 O  pz              0.2       0.1       0.5       1.2      18.9       0.0
 5 O  px              0.3       0.1       0.0       1.6       0.3       0.0
 5 O  py              0.1       0.2       0.0      16.3       0.2       0.0
 5 O  dz2             0.1       0.1       0.1       0.9      33.2       0.0
 5 O  dxz             0.0       0.1       0.0       1.6       0.0       0.0
 5 O  dyz             0.0       0.2       0.6       5.9       6.2       0.0
 5 O  dx2y2           0.0       0.2       0.1       9.8       0.3       0.0
 5 O  dxy             0.4       0.0       0.0       4.8       0.3       0.0
 6 H  s               0.0       0.4       0.1       0.0       0.0       0.0
 6 H  pz              0.0       1.0       0.2       0.0       0.0       0.0
 7 H  s               0.1       2.0       0.1       0.0       0.0       0.0
 7 H  px              0.0       1.2       0.0       0.0       0.0       0.0
 7 H  py              0.1       4.3       0.2       0.0       0.0       0.0
 8 H  s               0.1       0.0       0.1       0.0       0.0       0.0
 8 H  pz              0.1       0.0       0.0       0.0       0.0       0.0
 8 H  px              0.1       0.1       0.2       0.1       0.0       0.0
 9 H  s               0.8       7.1       0.1       0.1       0.0       0.0
 9 H  px              0.3       5.1       0.2       0.0       0.0       0.0
 9 H  py              2.2      12.0       0.0       0.0       0.0       0.0
10 H  s               0.6       2.2       1.1       0.0       0.0       0.0
10 H  pz              1.5       4.8       2.9       0.1       0.0       0.0
10 H  px              0.2       0.0       0.0       0.0       0.0       0.0
10 H  py              0.7       0.0       0.4       0.0       0.0       0.0
11 H  s               1.8       0.0       5.5       0.4       0.2       0.0
11 H  pz              4.3       0.0      14.1       0.1       0.2       0.0
11 H  px              0.0       0.2       0.2       0.0       0.0       0.0
11 H  py              0.3       0.1       0.2       0.9       0.1       0.0
12 H  s               0.9       0.6       3.4       0.0       0.0       0.0
12 H  pz              1.4       1.3       8.2       0.0       0.0       0.0
12 H  px              0.2       0.2       0.0       0.0       0.0       0.0
12 H  py              0.2       0.1       0.4       0.0       0.0       0.0
13 H  s               5.6       0.5       1.5       0.1       0.0       0.0
13 H  pz              2.1       0.0       0.3       0.1       0.0       0.0
13 H  px              1.5       0.8       0.1       0.0       0.0       0.0
13 H  py             10.9       0.7       2.9       0.2       0.0       0.0
14 H  s               1.7       0.5       0.7       0.0       0.0       0.0
14 H  pz              0.8       0.0       0.3       0.0       0.0       0.0
14 H  px              0.3       0.3       0.6       0.0       0.0       0.0
14 H  py              3.7       0.6       0.8       0.0       0.0       0.0
15 H  s               0.1       0.4       0.3       0.0       0.0       0.0
15 H  px              0.2       0.3       0.2       0.0       0.0       0.0
15 H  py              0.0       0.6       0.3       0.0       0.0       0.0
16 H  s               0.0       0.2       0.0       0.0       0.0       0.0
16 H  pz              0.1       0.6       0.1       0.0       0.0       0.0
16 H  px              0.3       0.1       0.0       0.0       0.0       0.0
17 H  s               0.0       0.0       0.1       0.7      13.4       0.0
17 H  pz              0.0       0.0       0.0       1.2      16.1       0.0
17 H  py              0.1       0.2       0.0       0.0       0.4       0.0

                    174       175       176       177       178   
                  21.95563  22.01800  22.03516  22.11181  43.66718
                   0.00000   0.00000   0.00000   0.00000   0.00000
                  --------  --------  --------  --------  --------
 0 C  s              94.1       0.2       2.4       0.0       0.0
 1 C  s               2.1       1.4      92.1       4.0       0.0
 2 C  s               0.0       0.1       4.0      92.3       0.0
 3 C  s               1.1      90.4       1.2       0.0       0.0
 4 C  s               2.5       7.7       0.0       3.2       0.0
 5 O  s               0.0       0.0       0.0       0.1      99.9


                      *****************************
                      * MAYER POPULATION ANALYSIS *
                      *****************************

  NA   - Mulliken gross atomic population
  ZA   - Total nuclear charge
  QA   - Mulliken gross atomic charge
  VA   - Mayer's total valence
  BVA  - Mayer's bonded valence
  FA   - Mayer's free valence

  ATOM       NA         ZA         QA         VA         BVA        FA
  0 C      6.5368     6.0000    -0.5368     3.8368     3.8368     0.0000
  1 C      6.2308     6.0000    -0.2308     3.6146     3.6146     0.0000
  2 C      5.9726     6.0000     0.0274     3.5670     3.5670     0.0000
  3 C      6.2561     6.0000    -0.2561     3.6247     3.6247     0.0000
  4 C      6.5480     6.0000    -0.5480     3.8239     3.8239     0.0000
  5 O      8.5122     8.0000    -0.5122     1.7632     1.7632    -0.0000
  6 H      0.8423     1.0000     0.1577     0.9593     0.9593    -0.0000
  7 H      0.8418     1.0000     0.1582     0.9597     0.9597    -0.0000
  8 H      0.8407     1.0000     0.1593     0.9577     0.9577     0.0000
  9 H      0.8435     1.0000     0.1565     0.9581     0.9581    -0.0000
 10 H      0.8559     1.0000     0.1441     0.9648     0.9648     0.0000
 11 H      0.8552     1.0000     0.1448     0.9561     0.9561     0.0000
 12 H      0.8411     1.0000     0.1589     0.9620     0.9620     0.0000
 13 H      0.8480     1.0000     0.1520     0.9608     0.9608     0.0000
 14 H      0.8396     1.0000     0.1604     0.9592     0.9592     0.0000
 15 H      0.8416     1.0000     0.1584     0.9589     0.9589     0.0000
 16 H      0.8404     1.0000     0.1596     0.9601     0.9601     0.0000
 17 H      0.6534     1.0000     0.3466     0.8815     0.8815    -0.0000

  Mayer bond orders larger than 0.100000
B(  0-C ,  1-C ) :   0.8909 B(  0-C ,  6-H ) :   0.9834 B(  0-C ,  7-H ) :   0.9766 
B(  0-C ,  8-H ) :   0.9659 B(  1-C ,  2-C ) :   0.9134 B(  1-C ,  9-H ) :   0.9764 
B(  1-C , 10-H ) :   0.9565 B(  2-C ,  3-C ) :   0.9259 B(  2-C ,  5-O ) :   0.8923 
B(  2-C , 11-H ) :   0.9692 B(  3-C ,  4-C ) :   0.8828 B(  3-C , 12-H ) :   0.9705 
B(  3-C , 13-H ) :   0.9619 B(  4-C , 14-H ) :   0.9813 B(  4-C , 15-H ) :   0.9708 
B(  4-C , 16-H ) :   0.9832 B(  5-O , 17-H ) :   0.8691 

-------
TIMINGS
-------

Total SCF time: 0 days 0 hours 0 min 25 sec 

Total time                  ....      25.164 sec
Sum of individual times     ....      24.595 sec  ( 97.7%)

SCF preparation             ....       0.386 sec  (  1.5%)
Fock matrix formation       ....      22.799 sec  ( 90.6%)
  Startup                   ....       0.081 sec  (  0.4% of F)
  Split-RI-J                ....       3.394 sec  ( 14.9% of F)
  XC integration            ....      15.009 sec  ( 65.8% of F)
    XC Preparation          ....       0.000 sec  (  0.0% of XC)
    Basis function eval.    ....       2.771 sec  ( 18.5% of XC)
    Density eval.           ....       4.302 sec  ( 28.7% of XC)
    XC-Functional eval.     ....       2.168 sec  ( 14.4% of XC)
    XC-Potential eval.      ....       4.709 sec  ( 31.4% of XC)
  CPCM terms                ....       3.625 sec  ( 15.9% of F)
Diagonalization             ....       0.000 sec  (  0.0%)
Density matrix formation    ....       0.291 sec  (  1.2%)
Total Energy calculation    ....       0.075 sec  (  0.3%)
Population analysis         ....       0.111 sec  (  0.4%)
Orbital Transformation      ....       0.073 sec  (  0.3%)
Orbital Orthonormalization  ....       0.000 sec  (  0.0%)
DIIS solution               ....       0.805 sec  (  3.2%)
  MO trafo                  ....       0.000 sec  (  0.0 % of DIIS)
  Orb grad                  ....       0.000 sec  (  0.0 % of DIIS)
  Energy W gradient         ....       0.000 sec  (  0.0 % of DIIS)
  DIIS error                ....       0.010 sec  (  1.3 % of DIIS)
  DIIS work                 ....       0.735 sec  ( 91.3 % of DIIS)
  Form Q                    ....       0.000 sec  (  0.0 % of DIIS)
  Form QpQm                 ....       0.000 sec  (  0.0 % of DIIS)
  Exp/Cayley                ....       0.000 sec  (  0.0 % of DIIS)
  Orb update                ....       0.000 sec  (  0.0 % of DIIS)
  Wake-sleep                ....       0.031 sec  (  3.8 % of DIIS)
SOSCF solution              ....       0.055 sec  (  0.2%)
  MO trafo                  ....       0.044 sec  ( 80.3 % of SOSCF)
  Orb grad                  ....       0.001 sec  (  1.1 % of SOSCF)
  Rot update                ....       0.000 sec  (  0.1 % of SOSCF)
  Step                      ....       0.010 sec  ( 18.3 % of SOSCF)
Finished LeanSCF after  25.3 sec

Maximum memory used throughout the entire LEANSCF-calculation: 23.7 MB


-------------------------------------------------------------------------------
                          DFT DISPERSION CORRECTION                            
                                                                               
                                DFTD4 V3.4.0                                   
-------------------------------------------------------------------------------
The R2SCAN3C composite method is recognized
Using three-body term ABC
Active option DFTDOPT                   ...         5   

-------------------------   ----------------
Dispersion correction           -0.004251691
-------------------------   ----------------

------------------   -----------------
gCP correction             0.009576678
------------------   -----------------

-------------------------   --------------------
FINAL SINGLE POINT ENERGY      -272.908301138124
-------------------------   --------------------


------------------------------------------------------------------------------
                              ORCA PROPERTY CALCULATIONS
------------------------------------------------------------------------------

GBWName                                 ... sp_solv.gbw
Number of atoms                         ...     18
Number of basis functions               ...    179
Max core memory                         ...   1024 MB

Electric properties:
Dipole moment                           ... YES
Quadrupole moment                       ...  NO
Static polarizability (Dipole/Dipole)   ...  NO
Static polarizability (Dipole/Quad.)    ...  NO
Static polarizability (Quad./Quad.)     ...  NO
Static polarizability (Velocity)        ...  NO

Atomic electric properties:
Dipole moment                           ...  NO
Quadrupole moment                       ...  NO
Static polarizability                   ...  NO

Choice of electric origin               ... Center of mass
Position of electric origin             ...    -0.000004     0.000024     0.000007

General magnetic properties:
Magnetizability                         ...  NO

EPR properties:
g-Tensor (aka g-matrix)                 ...  NO
Zero-Field splitting spin-orbit         ...  NO
Zero-field splitting spin-spin          ...  NO
Hyperfine couplings                     ...  NO (   0 nuclei)
Quadrupole couplings                    ...  NO (   0 nuclei)
Contact density                         ...  NO (   0 nuclei)

NMR properties:
Chemical shifts                         ...  NO (   0 nuclei)
Spin-rotation constants                 ...  NO (   0 nuclei)
Spin-spin couplings                     ...  NO (   0 nuclei,    0 pairs)

Choice of magnetic origin               ... GIAO
Position of magnetic origin             ...     0.000000     0.000000     0.000000

Properties with geometric perturbations:
SCF Hessian                             ...  NO
IR spectrum                             ...  NO
VCD spectrum                            ...  NO
X-ray spectroscopy properties:
SCF XES/XAS/RIXS spectra                ...  NO


-------------
DIPOLE MOMENT
-------------

Method             : SCF
Type of density    : Electron Density
Multiplicity       :   1
Irrep              :   0
Energy             :  -272.9136261251647966 Eh
Relativity type    : 
Basis              : AO
                                X                 Y                 Z
Electronic contribution:      0.276989724      -3.525017681      -1.502889461
Nuclear contribution   :     -0.488282800       4.322487469       1.078291260
                        -----------------------------------------
Total Dipole Moment    :     -0.211293076       0.797469789      -0.424598201
                        -----------------------------------------
Magnitude (a.u.)       :      0.927839673
Magnitude (Debye)      :      2.358381026



--------------------
Rotational spectrum 
--------------------
 
Rotational constants in cm-1:             0.168420             0.074952             0.057316 
Rotational constants in MHz :          5049.103267          2246.990610          1718.279072 

Dipole components along the rotational axes: 
x,y,z [a.u.] :    -0.324872     0.541033    -0.680167 
x,y,z [Debye]:    -0.825759     1.375197    -1.728848 

 

Dipole moment calculation done in   0.0 sec 

Maximum memory used throughout the entire PROP-calculation: 10.6 MB

--------------------------------
SUGGESTED CITATIONS FOR THIS RUN
--------------------------------

Below you find a list of papers that are relevant to this ORCA run
We neither can nor want to force you to cite these papers, but we appreciate if you do
You receive ORCA, which is the product of decades of hard work by many enthusiastic individuals, for free
The only thing we kindly ask in return is that you cite our papers,
We deeply appreciate it, if you show your appreciation for ORCA by not just citing the generic ORCA reference.

Please note that relegating all ORCA citations to the supporting information does *not* help us.
SI sections are not indexed - citations you put there will not count into any citation statistics
But we need these citations in order to attract the funding resources that allow us to do what we are doing

Therefore, if you are a happy ORCA user, please consider citing a few of the papers listed below in the main body of your paper

In addition to the list printed below, the program has created the file sp_solv.bibtex that contains the list in bibtex format
You can import this file easily into all common literature databanks and citation aid programs


List of essential papers. We consider these as the minimum necessary citations

  1. Neese,F.
     Software update: the ORCA program system, version 5.0
     WIRES Comput. Molec. Sci., 2022 12(1)e1606
     doi.org/10.1002/wcms.1606
  2. Grimme,S.; Hansen,A.; Ehlert,S.; Mewes,J.
     r2SCAN-3c: A 'Swiss army knife' composite electronic-structure method
     J. Chem. Phys., 2021 154 064103
     doi.org/10.1063/5.0040021

List of papers to cite with high priority. The work reported in these papers was absolutely
necessary for this run to complete.
Our perspective: the developers of density functionals and basis sets usually get cited in chemistry papers
Good! But without the algorithms to do something with them, the functionals or basis sets would not do anything.
Hence, in our opinion, the algorithm design and method developments papers are equally worthy of getting cited

  1. Neese,F.
     An improvement of the resolution of the identity approximation for the formation of the Coulomb matrix
     J. Comp. Chem., 2003 24(14)1740-1747
     doi.org/10.1002/jcc.10318
  2. Garcia-Rates,M.; Neese,F.
     Effect of the Solute Cavity on the Solvation Energy and its Derivatives within the Framework of the Gaussian Charge Scheme
     J. Comput. Chem., 2020 41 922-939
     doi.org/10.1002/jcc.26139
  3. Neese,F.
     The SHARK Integral Generation and Digestion System
     J. Comp. Chem., 2022  1-16
     doi.org/10.1002/jcc.26942
  4. Lehtola,S.; Steigemann,C.; Oliveira,M.; Marques,M.
     Recent developments in Libxc - A comprehensive library of functionals for density functional theory
     Software X, 2018 7 
     doi.org/10.1016/j.softx.2017.11.002
  5. Caldeweyher,E.; Bannwarth,C.; Grimme,S.
     Extension of the D3 dispersion coefficient model
     J. Chem. Phys., 2017 147 034112-XXXX
     doi.org/10.1063/1.4993215
  6. Caldeweyher,E.; Ehlert,S.; Hansen,A.; Neugebauer,H.; Spicher,S.; Bannwarth,C.; Grimme,S.
     A generally applicable atomic-charge dependent London dispersion correction
     J. Chem. Phys., 2019 150 154122-XXXX
     doi.org/10.1063/1.5090222
  7. Caldeweyher,E.; Mewes,J.; Ehlert,S.; Grimme,S.
     Extension and evaluation of the D4 London-dispersion model for periodic systems
     Phys. Chem. Chem. Phys., 2020 22(16)8499-8512
     doi.org/10.1039/D0CP00502A

List of suggested additional citations. These are papers that are important in the 'surrounding' of 
of this run, or papers that preceded the highly important papers. If you like your results we are grateful for a citation.

  1. Neese,F.
     The ORCA program system
     WIRES Comput. Molec. Sci., 2012 2(1)73-78
     doi.org/10.1002/wcms.81
  2. Neese,F.
     Software update: the ORCA program system, version 4.0
     WIRES Comput. Molec. Sci., 2018 8(1)1-6
     doi.org/10.1002/wcms.1327
  3. Neese,F.; Wennmohs,F.; Becker,U.; Riplinger,C.
     The ORCA quantum chemistry program package
     J. Chem. Phys., 2020 152 Art. No. L224108
     doi.org/10.1063/5.0004608

List of optional additional citations

  1. Neese,F.
     Approximate second-order SCF convergence for spin unrestricted wavefunctions
     Chem. Phys. Lett., 2000 325(1-3)93-98
     doi.org/10.1016/s0009-2614(00)00662-x

Timings for individual modules:

Sum of individual times          ...       27.036 sec (=   0.451 min)
Startup calculation              ...        1.171 sec (=   0.020 min)   4.3 %
SCF iterations                   ...       25.748 sec (=   0.429 min)  95.2 %
Property calculations            ...        0.118 sec (=   0.002 min)   0.4 %
                             ****ORCA TERMINATED NORMALLY****
TOTAL RUN TIME: 0 days 0 hours 0 minutes 28 seconds 16 msec
