
                                 *****************
                                 * O   R   C   A *
                                 *****************

                                            #,                                       
                                            ###                                      
                                            ####                                     
                                            #####                                    
                                            ######                                   
                                           ########,                                 
                                     ,,################,,,,,                         
                               ,,#################################,,                 
                          ,,##########################################,,             
                       ,#########################################, ''#####,          
                    ,#############################################,,   '####,        
                  ,##################################################,,,,####,       
                ,###########''''           ''''###############################       
              ,#####''   ,,,,##########,,,,          '''####'''          '####       
            ,##' ,,,,###########################,,,                        '##       
           ' ,,###''''                  '''############,,,                           
         ,,##''                                '''############,,,,        ,,,,,,###''
      ,#''                                            '''#######################'''  
     '                                                          ''''####''''         
             ,#######,   #######,   ,#######,      ##                                
            ,#'     '#,  ##    ##  ,#'     '#,    #''#        ,####,   ,####,        
            ##       ##  ##   ,#'  ##            #'  '#       #'       #'  '#        
            ##       ##  #######   ##           ,######,      #####,   #    #        
            '#,     ,#'  ##    ##  '#,     ,#' ,#      #,     #,   #   #,  ,#        
             '#######'   ##     ##  '#######'  #'      '#     '####' # '####'        



                #########################################################
                #                        -***-                          #
                #          Department of theory and spectroscopy        #
                #                                                       #
                #                      Frank Neese                      #
                #                                                       #
                #     Directorship, Architecture, Infrastructure        #
                #                    SHARK, DRIVERS                     #
                #        Core code/Algorithms in most modules           #
                #                                                       #
                #        Max Planck Institute fuer Kohlenforschung      #
                #                Kaiser Wilhelm Platz 1                 #
                #                 D-45470 Muelheim/Ruhr                 #
                #                      Germany                          #
                #                                                       #
                #                  All rights reserved                  #
                #                        -***-                          #
                #########################################################


                         Program Version 6.0.0  -   RELEASE  -


 With contributions from (in alphabetic order):
   Daniel Aravena         : Magnetic Suceptibility
   Michael Atanasov       : Ab Initio Ligand Field Theory (pilot matlab implementation)
   Alexander A. Auer      : GIAO ZORA, VPT2 properties, NMR spectrum
   Ute Becker             : All parallelization in ORCA, NUMFREQ, NUMCALC
   Giovanni Bistoni       : ED, misc. LED, open-shell LED, HFLD
   Martin Brehm           : Molecular dynamics
   Dmytro Bykov           : pre 5.0 version of the SCF Hessian
   Marcos Casanova-Páez   : Triplet and SCS-CIS(D). UHF-(DLPNO)-IP/EA/STEOM-CCSD. UHF-CVS-IP/STEOM-CCSD
   Vijay G. Chilkuri      : MRCI spin determinant printing, contributions to CSF-ICE
   Pauline Colinet        : FMM embedding
   Dipayan Datta          : RHF DLPNO-CCSD density
   Achintya Kumar Dutta   : EOM-CC, STEOM-CC
   Nicolas Foglia         : Exact transition moments, OPA infrastructure, MCD improvements
   Dmitry Ganyushin       : Spin-Orbit,Spin-Spin,Magnetic field MRCI
   Miquel Garcia          : C-PCM and meta-GGA Hessian, CCSD/C-PCM, Gaussian charge scheme
   Tiago L. C. Gouveia    : GS-ROHF, GS-ROCIS
   Yang Guo               : DLPNO-NEVPT2, F12-NEVPT2, CIM, IAO-localization
   Andreas Hansen         : Spin unrestricted coupled pair/coupled cluster methods
   Ingolf Harden          : AUTO-CI MPn and infrastructure 
   Benjamin Helmich-Paris : MC-RPA, TRAH-(SCF,CASSCF), AVAS, COSX integrals, SCF dyn. polar.
   Lee Huntington         : MR-EOM, pCC
   Robert Izsak           : Overlap fitted RIJCOSX, COSX-SCS-MP3, EOM
   Riya Kayal             : Wick's Theorem for AUTO-CI, AUTO-CI UHF-CCSDT
   Emily Kempfer          : AUTO-CI, RHF CISDT and CCSDT
   Christian Kollmar      : KDIIS, OOCD, Brueckner-CCSD(T), CCSD density, CASPT2, CASPT2-K, improved NEVPT2
   Axel Koslowski         : Symmetry handling
   Simone Kossmann        : Meta GGA functionals, TD-DFT gradient, OOMP2, (MP2 Hessian; deprecated post 5.0)
   Lucas Lang             : DCDCAS
   Marvin Lechner         : AUTO-CI (C++ implementation), FIC-MRCC
   Spencer Leger          : CASSCF response
   Dagmar Lenk            : GEPOL surface, SMD, ORCA-2-JSON
   Dimitrios Liakos       : Extrapolation schemes; Compound Job, initial MDCI parallelization
   Dimitrios Manganas     : Further ROCIS development; embedding schemes. LFT, Crystal Embedding
   Dimitrios Pantazis     : SARC Basis sets
   Anastasios Papadopoulos: AUTO-CI, single reference methods and gradients
   Taras Petrenko         : pre 6.0 DFT Hessian and TD-DFT gradient, (ASA, deprecated), ECA, 1-Electron XAS/XES, NRVS
   Peter Pinski           : DLPNO-MP2, DLPNO-MP2 Gradient
   Christoph Reimann      : Effective Core Potentials
   Marius Retegan         : Local ZFS, SOC
   Christoph Riplinger    : Optimizer, TS searches, QM/MM, DLPNO-CCSD(T), (RO)-DLPNO pert. Triples
   Michael Roemelt        : Original ROCIS implementation
   Masaaki Saitow         : Open-shell DLPNO-CCSD energy and density
   Barbara Sandhoefer     : DKH picture change effects
   Kantharuban Sivalingam : CASSCF convergence/infrastructure, NEVPT2 and variants, FIC-MRCI
   Bernardo de Souza      : ESD, SOC TD-DFT
   Georgi Stoychev        : AutoAux, RI-MP2 NMR, DLPNO-MP2 response, X2C
   Van Anh Tran           : RI-MP2 g-tensors
   Willem Van den Heuvel  : Paramagnetic NMR
   Zikuan Wang            : NOTCH, Electric field optimization 
   Frank Wennmohs         : Technical directorship and infrastructure
   Hang Xu                : AUTO-CI-Response properties 


 We gratefully acknowledge several colleagues who have allowed us to
 interface, adapt or use parts of their codes:
   Stefan Grimme, W. Hujo, H. Kruse, P. Pracht,  : VdW corrections, initial TS optimization,
                  C. Bannwarth, S. Ehlert,         DFT functionals, gCP, sTDA/sTD-DF
                  L. Wittmann, M. Mueller
   Ed Valeev, F. Pavosevic, A. Kumar             : LibInt (2-el integral package), F12 methods
   Garnet Chan, S. Sharma, J. Yang, R. Olivares  : DMRG
   Ulf Ekstrom                                   : XCFun DFT Library
   Mihaly Kallay                                 : mrcc  (arbitrary order and MRCC methods)
   Frank Weinhold                                : gennbo (NPA and NBO analysis)
   Simon Mueller                                 : openCOSMO-RS
   Christopher J. Cramer and Donald G. Truhlar   : smd solvation model
   Lars Goerigk                                  : TD-DFT with DH, B97 family of functionals
   V. Asgeirsson, H. Jonsson                     : NEB implementation
   FAccTs GmbH                                   : IRC, NEB, NEB-TS, DLPNO-Multilevel, CI-OPT
                                                   MM, QMMM, 2- and 3-layer-ONIOM, Crystal-QMMM,
                                                   LR-CPCM, SF, NACMEs, symmetry and pop. for TD-DFT,
                                                   nearIR, NL-DFT gradient (VV10), updates on ESD,
                                                   ML-optimized integration grids, MBIS, APM,
                                                   GOAT, DOCKER, SOLVATOR, interface openCOSMO-RS
   S Lehtola, MJT Oliveira, MAL Marques          : LibXC Library
   Liviu Ungur et al                             : ANISO software


 Your calculation uses the libint2 library for the computation of 2-el integrals
 For citations please refer to: http://libint.valeyev.net

 Your ORCA version has been built with support for libXC version: 6.2.2
 For citations please refer to: https://libxc.gitlab.io

 This ORCA versions uses:
   CBLAS   interface :  Fast vector & matrix operations
   LAPACKE interface :  Fast linear algebra routines
   SCALAPACK package :  Parallel linear algebra routines
   Shared memory     :  Shared parallel matrices
   BLAS/LAPACK       :  OpenBLAS 0.3.27  USE64BITINT DYNAMIC_ARCH NO_AFFINITY SkylakeX SINGLE_THREADED
        Core in use  :  SkylakeX
   Copyright (c) 2011-2014, The OpenBLAS Project


Your calculation utilizes the geometrical counterpoise correction gCP
Please cite in your paper:
H.Kruse, S. Grimme J.Chem.Phys., 136, (2012), 154101 
   

Your calculation utilizes the atom-pairwise dispersion correction
based on EEQ partial charges (D4)


================================================================================

----- Orbital basis set information -----
Your calculation utilizes the basis: def2-SV(P)
   F. Weigend and R. Ahlrichs, Phys. Chem. Chem. Phys. 7, 3297 (2005).

----- AuxJ basis set information -----
Your calculation utilizes the auxiliary basis: def2/J
   F. Weigend, Phys. Chem. Chem. Phys. 8, 1057 (2006).

================================================================================
                                        WARNINGS
                       Please study these warnings very carefully!
================================================================================


================================================================================
                                       INPUT FILE
================================================================================
NAME = sp.inp
|  1> ! pbe def2-sv(p) def2/J RI DEFGRID1 loosescf d4 GCP(DFT/SV(P)) printgap
|  2> %output
|  3>     printlevel normal
|  4> end
|  5> * xyz 0 1
|  6> C -2.6583119447 -0.4832154886 1.4623470263
|  7> C -2.0837146277 -0.3054320764 0.0581208022
|  8> C -3.2167001364 -0.0632105864 -0.937588631
|  9> C -1.070961454 0.8612355228 0.0074897509
| 10> C 0.353593778 0.4082350992 -0.0451120433
| 11> C 0.9136519346 -0.4613772651 0.8948742971
| 12> N 2.1733829442 -0.8581892578 0.8307094687
| 13> C 2.9041357575 -0.3916963798 -0.1752485833
| 14> C 2.3622603282 0.4729104502 -1.1138200677
| 15> N 1.0985503959 0.866745152 -1.0490617238
| 16> H -3.3284204433 -1.3392499977 1.489989961
| 17> H -3.221339504 0.4014878685 1.7516717771
| 18> H -1.8716396339 -0.644667968 2.1948316954
| 19> H -1.568366338 -1.229581844 -0.2281093839
| 20> H -2.8284680886 0.0126254541 -1.9502360034
| 21> H -3.9299723927 -0.8833255502 -0.904799283
| 22> H -3.7409597998 0.8583445725 -0.695696635
| 23> H -1.2048191579 1.4955488025 0.8860623166
| 24> H -1.2443414275 1.473970989 -0.8771246069
| 25> H 0.3398424709 -0.8514432964 1.7228208888
| 26> H 3.9315077396 -0.7216987159 -0.2169421996
| 27> H 2.942226272 0.862811497 -1.9382367296
| 28> *
| 29> 
| 30>                          ****END OF INPUT****
================================================================================

                       ****************************
                       * Single Point Calculation *
                       ****************************

---------------------------------
CARTESIAN COORDINATES (ANGSTROEM)
---------------------------------
  C     -2.658312   -0.483215    1.462347
  C     -2.083715   -0.305432    0.058121
  C     -3.216700   -0.063211   -0.937589
  C     -1.070961    0.861236    0.007490
  C      0.353594    0.408235   -0.045112
  C      0.913652   -0.461377    0.894874
  N      2.173383   -0.858189    0.830709
  C      2.904136   -0.391696   -0.175249
  C      2.362260    0.472910   -1.113820
  N      1.098550    0.866745   -1.049062
  H     -3.328420   -1.339250    1.489990
  H     -3.221340    0.401488    1.751672
  H     -1.871640   -0.644668    2.194832
  H     -1.568366   -1.229582   -0.228109
  H     -2.828468    0.012625   -1.950236
  H     -3.929972   -0.883326   -0.904799
  H     -3.740960    0.858345   -0.695697
  H     -1.204819    1.495549    0.886062
  H     -1.244341    1.473971   -0.877125
  H      0.339842   -0.851443    1.722821
  H      3.931508   -0.721699   -0.216942
  H      2.942226    0.862811   -1.938237

----------------------------
CARTESIAN COORDINATES (A.U.)
----------------------------
  NO LB      ZA    FRAG     MASS         X           Y           Z
   0 C     6.0000    0    12.011   -5.023482   -0.913145    2.763435
   1 C     6.0000    0    12.011   -3.937650   -0.577183    0.109832
   2 C     6.0000    0    12.011   -6.078682   -0.119451   -1.771786
   3 C     6.0000    0    12.011   -2.023824    1.627499    0.014154
   4 C     6.0000    0    12.011    0.668195    0.771453   -0.085249
   5 C     6.0000    0    12.011    1.726552   -0.871877    1.691067
   6 N     7.0000    0    14.007    4.107099   -1.621743    1.569813
   7 C     6.0000    0    12.011    5.488021   -0.740199   -0.331172
   8 C     6.0000    0    12.011    4.464025    0.893671   -2.104815
   9 N     7.0000    0    14.007    2.075959    1.637911   -1.982439
  10 H     1.0000    0     1.008   -6.289803   -2.530816    2.815673
  11 H     1.0000    0     1.008   -6.087449    0.758702    3.310180
  12 H     1.0000    0     1.008   -3.536886   -1.218246    4.147631
  13 H     1.0000    0     1.008   -2.963783   -2.323573   -0.431064
  14 H     1.0000    0     1.008   -5.345030    0.023859   -3.685412
  15 H     1.0000    0     1.008   -7.426572   -1.669243   -1.709823
  16 H     1.0000    0     1.008   -7.069389    1.622036   -1.314676
  17 H     1.0000    0     1.008   -2.276778    2.826178    1.674415
  18 H     1.0000    0     1.008   -2.351465    2.785401   -1.657525
  19 H     1.0000    0     1.008    0.642209   -1.608995    3.255660
  20 H     1.0000    0     1.008    7.429473   -1.363813   -0.409961
  21 H     1.0000    0     1.008    5.560002    1.630477   -3.662737

--------------------------------
INTERNAL COORDINATES (ANGSTROEM)
--------------------------------
 C      0   0   0     0.000000000000     0.00000000     0.00000000
 C      1   0   0     1.527619162883     0.00000000     0.00000000
 C      2   1   0     1.527666419250   109.79331178     0.00000000
 C      2   1   3     1.545750879417   111.36994143   122.30545523
 C      4   2   1     1.495772021918   113.36336831   104.27585925
 C      5   4   2     1.397664166764   123.12126587   305.43657763
 N      6   5   4     1.322308246704   122.39987949   179.64183624
 C      7   6   5     1.327993554862   117.10163518     0.12590133
 C      8   7   6     1.386394742738   121.11882571   359.96547508
 N      9   8   7     1.325240434201   121.66528846   359.87945223
 H      1   2   3     1.087476258364   110.28902393    60.61460550
 H      1   2   3     1.087845978997   110.15167712   301.08791338
 H      1   2   3     1.086947109178   111.37782024   180.73647416
 H      2   1   3     1.096158917350   108.58734857   241.89795019
 H      3   2   1     1.087166007934   110.69077352   183.01715834
 H      3   2   1     1.087391836827   110.31872752   302.94052349
 H      3   2   1     1.087485100262   110.29910663    62.70725594
 H      4   2   1     1.091861243427   109.37773840   342.76896823
 H      4   2   1     1.089976113856   110.28289852   224.28596134
 H      6   5   4     1.080233478519   121.82225218   359.60014225
 H      8   7   6     1.079876423058   116.44977931   179.94142558
 H      9   8   7     1.080761839945   122.11751872   179.95312138

---------------------------
INTERNAL COORDINATES (A.U.)
---------------------------
 C      0   0   0     0.000000000000     0.00000000     0.00000000
 C      1   0   0     2.886781854779     0.00000000     0.00000000
 C      2   1   0     2.886871156371   109.79331178     0.00000000
 C      2   1   3     2.921045833366   111.36994143   122.30545523
 C      4   2   1     2.826599480207   113.36336831   104.27585925
 C      5   4   2     2.641202502379   123.12126587   305.43657763
 N      6   5   4     2.498800450897   122.39987949   179.64183624
 C      7   6   5     2.509544126301   117.10163518     0.12590133
 C      8   7   6     2.619906377282   121.11882571   359.96547508
 N      9   8   7     2.504341482238   121.66528846   359.87945223
 H      1   2   3     2.055032305449   110.28902393    60.61460550
 H      1   2   3     2.055730976193   110.15167712   301.08791338
 H      1   2   3     2.054032358404   111.37782024   180.73647416
 H      2   1   3     2.071440153048   108.58734857   241.89795019
 H      3   2   1     2.054446017103   110.69077352   183.01715834
 H      3   2   1     2.054872771865   110.31872752   302.94052349
 H      3   2   1     2.055049014216   110.29910663    62.70725594
 H      4   2   1     2.063318726320   109.37773840   342.76896823
 H      4   2   1     2.059756347703   110.28289852   224.28596134
 H      6   5   4     2.041345435094   121.82225218   359.60014225
 H      8   7   6     2.040670698057   116.44977931   179.94142558
 H      9   8   7     2.042343893489   122.11751872   179.95312138

---------------------
BASIS SET INFORMATION
---------------------
There are 3 groups of distinct atoms

 Group   1 Type C   : 7s4p1d contracted to 3s2p1d pattern {511/31/1}
 Group   2 Type N   : 7s4p1d contracted to 3s2p1d pattern {511/31/1}
 Group   3 Type H   : 4s contracted to 2s pattern {31}

Atom   0C    basis set group =>   1
Atom   1C    basis set group =>   1
Atom   2C    basis set group =>   1
Atom   3C    basis set group =>   1
Atom   4C    basis set group =>   1
Atom   5C    basis set group =>   1
Atom   6N    basis set group =>   2
Atom   7C    basis set group =>   1
Atom   8C    basis set group =>   1
Atom   9N    basis set group =>   2
Atom  10H    basis set group =>   3
Atom  11H    basis set group =>   3
Atom  12H    basis set group =>   3
Atom  13H    basis set group =>   3
Atom  14H    basis set group =>   3
Atom  15H    basis set group =>   3
Atom  16H    basis set group =>   3
Atom  17H    basis set group =>   3
Atom  18H    basis set group =>   3
Atom  19H    basis set group =>   3
Atom  20H    basis set group =>   3
Atom  21H    basis set group =>   3
---------------------------------
AUXILIARY/J BASIS SET INFORMATION
---------------------------------
There are 3 groups of distinct atoms

 Group   1 Type C   : 12s5p4d2f1g contracted to 6s4p3d1f1g pattern {711111/2111/211/2/1}
 Group   2 Type N   : 12s5p4d2f1g contracted to 6s4p3d1f1g pattern {711111/2111/211/2/1}
 Group   3 Type H   : 5s2p1d contracted to 3s1p1d pattern {311/2/1}

Atom   0C    basis set group =>   1
Atom   1C    basis set group =>   1
Atom   2C    basis set group =>   1
Atom   3C    basis set group =>   1
Atom   4C    basis set group =>   1
Atom   5C    basis set group =>   1
Atom   6N    basis set group =>   2
Atom   7C    basis set group =>   1
Atom   8C    basis set group =>   1
Atom   9N    basis set group =>   2
Atom  10H    basis set group =>   3
Atom  11H    basis set group =>   3
Atom  12H    basis set group =>   3
Atom  13H    basis set group =>   3
Atom  14H    basis set group =>   3
Atom  15H    basis set group =>   3
Atom  16H    basis set group =>   3
Atom  17H    basis set group =>   3
Atom  18H    basis set group =>   3
Atom  19H    basis set group =>   3
Atom  20H    basis set group =>   3
Atom  21H    basis set group =>   3
------------------------------------------------------------------------------
                             ORCA STARTUP CALCULATIONS
                           -- RI-GTO INTEGRALS CHOSEN --
------------------------------------------------------------------------------
------------------------------------------------------------------------------
                   ___                                                        
                  /   \      - P O W E R E D   B Y -                         
                 /     \                                                     
                 |  |  |   _    _      __       _____    __    __             
                 |  |  |  | |  | |    /  \     |  _  \  |  |  /  |          
                  \  \/   | |  | |   /    \    | | | |  |  | /  /          
                 / \  \   | |__| |  /  /\  \   | |_| |  |  |/  /          
                |  |  |   |  __  | /  /__\  \  |    /   |      \           
                |  |  |   | |  | | |   __   |  |    \   |  |\   \          
                \     /   | |  | | |  |  |  |  | |\  \  |  | \   \       
                 \___/    |_|  |_| |__|  |__|  |_| \__\ |__|  \__/        
                                                                              
                      - O R C A' S   B I G   F R I E N D -                    
                                      &                                       
                       - I N T E G R A L  F E E D E R -                       
                                                                              
 v1 FN, 2020, v2 2021, v3 2022-2024                                           
------------------------------------------------------------------------------


----------------------
SHARK INTEGRAL PACKAGE
----------------------

Number of atoms                             ...     22
Number of basis functions                   ...    164
Number of shells                            ...     84
Maximum angular momentum                    ...      2
Integral batch strategy                     ... SHARK/LIBINT Hybrid
RI-J (if used) integral strategy            ... SPLIT-RIJ (Revised 2003 algorithm where possible)
Printlevel                                  ...      1
Contraction scheme used                     ... SEGMENTED contraction
Prescreening option                         ... SCHWARTZ
   Thresh                                   ... 1.000e-09
   Tcut                                     ... 1.000e-10
   Tpresel                                  ... 1.000e-10 
Coulomb Range Separation                    ... NOT USED
Exchange Range Separation                   ... NOT USED
Multipole approximations                    ... NOT USED
Finite Nucleus Model                        ... NOT USED
CABS basis                                  ... NOT available
Auxiliary Coulomb fitting basis             ... AVAILABLE
   # of basis functions in Aux-J            ...    622
   # of shells in Aux-J                     ...    210
   Maximum angular momentum in Aux-J        ...      4
Auxiliary J/K fitting basis                 ... NOT available
Auxiliary Correlation fitting basis         ... NOT available
Auxiliary 'external' fitting basis          ... NOT available

Checking pre-screening integrals            ... done (  0.0 sec) Dimension = 84
Check shell pair data                       ... done (  0.0 sec)
Shell pair information
Shell pair cut-off parameter TPreSel        ...   1.0e-10
Total number of shell pairs                 ...      3570
Shell pairs after pre-screening             ...      3233
Total number of primitive shell pairs       ...     14362
Primitive shell pairs kept                  ...      8940
          la=0 lb=0:   1328 shell pairs
          la=1 lb=0:   1014 shell pairs
          la=1 lb=1:    204 shell pairs
          la=2 lb=0:    460 shell pairs
          la=2 lb=1:    184 shell pairs
          la=2 lb=2:     43 shell pairs

Calculating one electron integrals          ... done (  0.0 sec)
Calculating RI/J V-Matrix + Cholesky decomp.... done (  0.1 sec)
Calculating Nuclear repulsion               ... done (  0.0 sec) ENN=    509.780069057327 Eh

Diagonalization of the overlap matrix:
Smallest eigenvalue                        ... 1.455e-03
Time for diagonalization                   ...    0.006 sec
Threshold for overlap eigenvalues          ... 1.000e-07
Number of eigenvalues below threshold      ... 0
Time for construction of square roots      ...    0.014 sec
Total time needed                          ...    0.029 sec

-------------------
DFT GRID GENERATION
-------------------

General Integration Accuracy     IntAcc      ... 4.159
Radial Grid Type                 RadialGrid  ... OptM3 with GC (2021)
Angular Grid (max. ang.)         AngularGrid ... 3 (Lebedev-194)
Angular grid pruning method      GridPruning ... 4 (adaptive)
Weight generation scheme         WeightScheme... mBecke (2022)
Basis function cutoff            BFCut       ... 1.0000e-10
Integration weight cutoff        WCut        ... 1.0000e-14
Partially contracted basis set               ... off
Rotationally invariant grid construction     ... off
Angular grids for H and He will be reduced by one unit

Total number of grid points                  ...    49298
Total number of batches                      ...      780
Average number of points per batch           ...       63
Average number of grid points per atom       ...     2241
Initializing property integral containers    ... done (  0.0 sec)

SHARK setup successfully completed in   0.9 seconds

Maximum memory used throughout the entire STARTUP-calculation: 24.4 MB
-------------------------------------------------------------------------------
                                 ORCA GUESS
                   Start orbitals & Density for SCF / CASSCF
-------------------------------------------------------------------------------

------------
SCF SETTINGS
------------
Hamiltonian:
 Density Functional     Method          .... DFT(GTOs)
 Exchange Functional    Exchange        .... PBE
   PBE kappa parameter   XKappa         ....  0.804000
   PBE mue parameter    XMuePBE         ....  0.219520
 Correlation Functional Correlation     .... PBE
   PBE beta parameter  CBetaPBE         ....  0.066725
 LDA part of GGA corr.  LDAOpt          .... PW91-LDA
 Gradients option       PostSCFGGA      .... off
   NL short-range parameter             ....  6.400000
 RI-approximation to the Coulomb term is turned on
   Number of AuxJ basis functions       .... 622


General Settings:
 Integral files         IntName         .... sp
 Hartree-Fock type      HFTyp           .... RHF
 Total Charge           Charge          ....    0
 Multiplicity           Mult            ....    1
 Number of Electrons    NEL             ....   74
 Basis Dimension        Dim             ....  164
 Nuclear Repulsion      ENuc            ....    509.7800690573 Eh

Convergence Acceleration:
 AO-DIIS                CNVDIIS         .... on
   Start iteration      DIISMaxIt       ....    12
   Startup error        DIISStart       ....  0.200000
   # of expansion vecs  DIISMaxEq       ....     5
   Bias factor          DIISBfac        ....   1.050
   Max. coefficient     DIISMaxC        ....  10.000
 MO-DIIS                CNVKDIIS        .... off
 Trust-Rad. Augm. Hess. CNVTRAH         .... auto
   Auto Start mean grad. ratio tolernc. ....  1.125000
   Auto Start start iteration           ....    50
   Auto Start num. interpolation iter.  ....    10
   Max. Number of Micro iterations      ....    24
   Max. Number of Macro iterations      .... Maxiter - #DIIS iter
   Number of Davidson start vectors     ....     2
   Converg. threshold    (grad. norm)   ....   1.000e-04
   Grad. Scal. Fac. for Micro threshold ....   0.100
   Minimum threshold for Micro iter.    ....   1.000e-02
   NR start threshold (gradient norm)   ....   1.000e-04
   Initial trust radius                 ....   0.400
   Minimum AH scaling param. (alpha)    ....   1.000
   Maximum AH scaling param. (alpha)    .... 1000.000
   Quad. conv. algorithm                .... NR
   White noise on init. David. guess    .... on
   Maximum white noise                  ....   0.010
   Pseudo random numbers                .... off
   Inactive MOs                         .... canonical
   Orbital update algorithm             .... Taylor
   Preconditioner                       .... Diag
   Full preconditioner red. dimension   ....   250
 SOSCF                  CNVSOSCF        .... on
   Start iteration      SOSCFMaxIt      ....   150
   Startup grad/error   SOSCFStart      ....  0.003300
   Hessian update       SOSCFHessUp     .... L-BFGS
 Level Shifting         CNVShift        .... on
   Level shift para.    LevelShift      ....    0.2500
   Turn off err/grad.   ShiftErr        ....    0.0010
 Zerner damping         CNVZerner       .... off
 Static damping         CNVDamp         .... on
   Fraction old density DampFac         ....    0.7000
   Max. Damping (<1)    DampMax         ....    0.9800
   Min. Damping (>=0)   DampMin         ....    0.0000
   Turn off err/grad.   DampErr         ....    0.1000

SCF Procedure:
 Maximum # iterations   MaxIter         ....   125
 SCF integral mode      SCFMode         .... Direct
   Integral package                     .... SHARK and LIBINT hybrid scheme
 Reset frequency        DirectResetFreq ....    20
 Integral Threshold     Thresh          ....  1.000e-09 Eh
 Primitive CutOff       TCut            ....  1.000e-10 Eh

Convergence Tolerance:
 Convergence Check Mode ConvCheckMode   .... Total+1el-Energy
 Convergence forced     ConvForced      .... 0
 Energy Change          TolE            ....  1.000e-05 Eh
 1-El. energy change                    ....  1.000e-02 Eh
 Orbital Gradient       TolG            ....  1.000e-04
 Orbital Rotation angle TolX            ....  1.000e-04
 DIIS Error             TolErr          ....  5.000e-04

------------------------------
INITIAL GUESS: MODEL POTENTIAL
------------------------------
Loading Hartree-Fock densities                     ... done
Calculating cut-offs                               ... done
Initializing the effective Hamiltonian             ... done
Setting up the integral package (SHARK)            ... done
Starting the Coulomb interaction                   ... done (   0.2 sec)
Making the grid                                    ... done (   0.2 sec)
Mapping shells                                     ... done
Starting the XC term evaluation                    ... done (   0.2 sec)
  promolecular density results
     # of electrons  =     73.993535878
     EX              =    -57.547455257
     EC              =     -2.450037183
     EX+EC           =    -59.997492440
Transforming the Hamiltonian                       ... done (   0.0 sec)
Diagonalizing the Hamiltonian                      ... done (   0.0 sec)
Back transforming the eigenvectors                 ... done (   0.0 sec)
Now organizing SCF variables                       ... done
                      ------------------
                      INITIAL GUESS DONE (   0.7 sec)
                      ------------------
             **** ENERGY FILE WAS UPDATED (sp.en.tmp) ****
Finished Guess after   0.9 sec
Maximum memory used throughout the entire GUESS-calculation: 18.9 MB

-------------------------------------------------------------------------------------------
                                      ORCA LEAN-SCF
                              memory conserving SCF solver
-------------------------------------------------------------------------------------------

----------------------------------------D-I-I-S--------------------------------------------
Iteration    Energy (Eh)           Delta-E    RMSDP     MaxDP     DIISErr   Damp  Time(sec)
-------------------------------------------------------------------------------------------
               ***  Starting incremental Fock matrix formation  ***
    1    -420.4776493144872234     0.00e+00  3.70e-03  8.35e-02  1.60e-01  0.700   1.0
    2    -420.5808457556551616    -1.03e-01  2.71e-03  4.81e-02  7.59e-02  0.700   1.0
                               ***Turning on AO-DIIS***
    3    -420.6178287120557684    -3.70e-02  1.16e-03  2.35e-02  2.14e-02  0.700   1.0
    4    -420.6395767552245957    -2.17e-02  1.81e-03  4.27e-02  9.36e-03  0.000   1.1
    5    -420.6884323338068157    -4.89e-02  4.68e-04  1.12e-02  5.32e-03  0.000   1.0
                              *** Initializing SOSCF ***
---------------------------------------S-O-S-C-F--------------------------------------
Iteration    Energy (Eh)           Delta-E    RMSDP     MaxDP     MaxGrad    Time(sec)
--------------------------------------------------------------------------------------
    6    -420.6888639892362676    -4.32e-04  1.62e-04  3.32e-03  1.70e-03     1.0
               *** Restarting incremental Fock matrix formation ***
    7    -420.6888989867845225    -3.50e-05  1.14e-04  3.47e-03  2.75e-04     1.1
    8    -420.6888955755138682     3.41e-06  4.38e-05  8.73e-04  5.05e-04     0.9
                 **** Energy Check signals convergence ****

               *****************************************************
               *                     SUCCESS                       *
               *           SCF CONVERGED AFTER   8 CYCLES          *
               *****************************************************

             **** ENERGY FILE WAS UPDATED (sp.en.tmp) ****

----------------
TOTAL SCF ENERGY
----------------

Total Energy       :       -420.68889557551387 Eh          -11447.52683 eV

Components:
Nuclear Repulsion  :        509.78006905732735 Eh           13871.82091 eV
Electronic Energy  :       -930.46896463284122 Eh          -25319.34774 eV
One Electron Energy:      -1578.01827409852422 Eh          -42940.06027 eV
Two Electron Energy:        647.54930946568300 Eh           17620.71253 eV

Virial components:
Potential Energy   :       -837.76818778874610 Eh          -22796.83136 eV
Kinetic Energy     :        417.07929221323224 Eh           11349.30453 eV
Virial Ratio       :          2.00865447752903

DFT components:
N(Alpha)           :       37.000394240885 electrons
N(Beta)            :       37.000394240885 electrons
N(Total)           :       74.000788481770 electrons
E(X)               :      -58.704575384053 Eh       
E(C)               :       -2.461337294827 Eh       
E(XC)              :      -61.165912678880 Eh       

---------------
SCF CONVERGENCE
---------------

  Last Energy change         ...   -3.4113e-06  Tolerance :   1.0000e-05
  Last MAX-Density change    ...    8.7263e-04  Tolerance :   1.0000e-03
  Last RMS-Density change    ...    4.3805e-05  Tolerance :   1.0000e-04
  Last DIIS Error            ...    1.7006e-03  Tolerance :   5.0000e-04
  Last Orbital Gradient      ...    5.0514e-04  Tolerance :   1.0000e-04
  Last Orbital Rotation      ...    8.5144e-04  Tolerance :   1.0000e-04


----------------
ORBITAL ENERGIES
----------------

  NO   OCC          E(Eh)            E(eV) 
   0   2.0000     -13.998747      -380.9253 
   1   2.0000     -13.997719      -380.8973 
   2   2.0000      -9.942522      -270.5498 
   3   2.0000      -9.930678      -270.2275 
   4   2.0000      -9.930540      -270.2237 
   5   2.0000      -9.928280      -270.1622 
   6   2.0000      -9.905571      -269.5443 
   7   2.0000      -9.891614      -269.1645 
   8   2.0000      -9.881132      -268.8793 
   9   2.0000      -9.878490      -268.8074 
  10   2.0000      -0.896984       -24.4082 
  11   2.0000      -0.822432       -22.3795 
  12   2.0000      -0.745540       -20.2872 
  13   2.0000      -0.702445       -19.1145 
  14   2.0000      -0.636278       -17.3140 
  15   2.0000      -0.617729       -16.8093 
  16   2.0000      -0.592387       -16.1197 
  17   2.0000      -0.563665       -15.3381 
  18   2.0000      -0.511184       -13.9100 
  19   2.0000      -0.473184       -12.8760 
  20   2.0000      -0.466869       -12.7041 
  21   2.0000      -0.432341       -11.7646 
  22   2.0000      -0.410786       -11.1781 
  23   2.0000      -0.404628       -11.0105 
  24   2.0000      -0.386712       -10.5230 
  25   2.0000      -0.383559       -10.4372 
  26   2.0000      -0.369387       -10.0515 
  27   2.0000      -0.349495        -9.5102 
  28   2.0000      -0.345557        -9.4031 
  29   2.0000      -0.326608        -8.8875 
  30   2.0000      -0.305126        -8.3029 
  31   2.0000      -0.294933        -8.0255 
  32   2.0000      -0.294330        -8.0091 
  33   2.0000      -0.290401        -7.9022 
  34   2.0000      -0.247925        -6.7464 
  35   2.0000      -0.242430        -6.5969 
  36   2.0000      -0.197483        -5.3738 
  37   0.0000      -0.075740        -2.0610 
  38   0.0000      -0.056308        -1.5322 
  39   0.0000       0.034324         0.9340 
  40   0.0000       0.063778         1.7355 
  41   0.0000       0.066548         1.8109 
  42   0.0000       0.069658         1.8955 
  43   0.0000       0.082991         2.2583 
  44   0.0000       0.087411         2.3786 
  45   0.0000       0.097886         2.6636 
  46   0.0000       0.099924         2.7191 
  47   0.0000       0.111312         3.0290 
*Only the first 10 virtual orbitals were printed.

                    ********************************
                    * MULLIKEN POPULATION ANALYSIS *
                    ********************************

-----------------------
MULLIKEN ATOMIC CHARGES
-----------------------
   0 C :   -0.262479
   1 C :   -0.199621
   2 C :   -0.251424
   3 C :   -0.015621
   4 C :   -0.109897
   5 C :   -0.079436
   6 N :   -0.040173
   7 C :   -0.060869
   8 C :   -0.047714
   9 N :   -0.045571
  10 H :    0.102623
  11 H :    0.098905
  12 H :    0.110338
  13 H :    0.092295
  14 H :    0.109669
  15 H :    0.100064
  16 H :    0.098813
  17 H :    0.098259
  18 H :    0.082964
  19 H :    0.069057
  20 H :    0.075363
  21 H :    0.074453
Sum of atomic charges:    0.0000000

--------------------------------
MULLIKEN REDUCED ORBITAL CHARGES
--------------------------------
  0 C s       :     3.088696  s :     3.088696
      pz      :     1.020020  p :     3.144528
      px      :     1.060996
      py      :     1.063511
      dz2     :     0.006417  d :     0.029255
      dxz     :     0.008279
      dyz     :     0.003771
      dx2y2   :     0.002134
      dxy     :     0.008653

  1 C s       :     3.131273  s :     3.131273
      pz      :     1.010325  p :     3.025120
      px      :     1.005484
      py      :     1.009310
      dz2     :     0.010125  d :     0.043228
      dxz     :     0.009408
      dyz     :     0.006784
      dx2y2   :     0.006058
      dxy     :     0.010853

  2 C s       :     3.088358  s :     3.088358
      pz      :     1.039687  p :     3.133759
      px      :     1.034143
      py      :     1.059929
      dz2     :     0.009701  d :     0.029307
      dxz     :     0.005081
      dyz     :     0.001639
      dx2y2   :     0.002595
      dxy     :     0.010291

  3 C s       :     2.960623  s :     2.960623
      pz      :     1.026778  p :     3.021789
      px      :     0.964418
      py      :     1.030594
      dz2     :     0.005151  d :     0.033209
      dxz     :     0.003716
      dyz     :     0.009879
      dx2y2   :     0.008125
      dxy     :     0.006338

  4 C s       :     3.100321  s :     3.100321
      pz      :     0.969034  p :     2.949796
      px      :     1.029746
      py      :     0.951017
      dz2     :     0.012550  d :     0.059780
      dxz     :     0.015221
      dyz     :     0.009845
      dx2y2   :     0.011655
      dxy     :     0.010510

  5 C s       :     3.214176  s :     3.214176
      pz      :     0.932818  p :     2.813144
      px      :     0.921366
      py      :     0.958960
      dz2     :     0.007111  d :     0.052115
      dxz     :     0.017524
      dyz     :     0.004911
      dx2y2   :     0.010166
      dxy     :     0.012403

  6 N s       :     3.442589  s :     3.442589
      pz      :     1.260686  p :     3.568080
      px      :     1.061374
      py      :     1.246020
      dz2     :     0.006681  d :     0.029504
      dxz     :     0.006175
      dyz     :     0.004647
      dx2y2   :     0.005360
      dxy     :     0.006640

  7 C s       :     3.178407  s :     3.178407
      pz      :     0.951251  p :     2.829986
      px      :     0.921573
      py      :     0.957161
      dz2     :     0.013036  d :     0.052476
      dxz     :     0.011039
      dyz     :     0.009530
      dx2y2   :     0.011459
      dxy     :     0.007411

  8 C s       :     3.177425  s :     3.177425
      pz      :     0.927580  p :     2.817412
      px      :     0.942805
      py      :     0.947027
      dz2     :     0.007346  d :     0.052877
      dxz     :     0.017609
      dyz     :     0.004985
      dx2y2   :     0.010470
      dxy     :     0.012467

  9 N s       :     3.463981  s :     3.463981
      pz      :     1.259864  p :     3.553018
      px      :     1.046808
      py      :     1.246345
      dz2     :     0.006485  d :     0.028573
      dxz     :     0.005986
      dyz     :     0.004438
      dx2y2   :     0.005251
      dxy     :     0.006412

 10 H s       :     0.897377  s :     0.897377

 11 H s       :     0.901095  s :     0.901095

 12 H s       :     0.889662  s :     0.889662

 13 H s       :     0.907705  s :     0.907705

 14 H s       :     0.890331  s :     0.890331

 15 H s       :     0.899936  s :     0.899936

 16 H s       :     0.901187  s :     0.901187

 17 H s       :     0.901741  s :     0.901741

 18 H s       :     0.917036  s :     0.917036

 19 H s       :     0.930943  s :     0.930943

 20 H s       :     0.924637  s :     0.924637

 21 H s       :     0.925547  s :     0.925547


------------------------
MULLIKEN OVERLAP CHARGES
------------------------
B(  0-C ,  1-C ) :   0.8596 B(  0-C ,  2-C ) :  -0.1282 B(  0-C ,  3-C ) :  -0.0649 
B(  0-C , 10-H ) :   0.7240 B(  0-C , 11-H ) :   0.7416 B(  0-C , 12-H ) :   0.7394 
B(  0-C , 13-H ) :  -0.0664 B(  1-C ,  2-C ) :   0.8775 B(  1-C ,  3-C ) :   0.6995 
B(  1-C , 12-H ) :  -0.0542 B(  1-C , 13-H ) :   0.7586 B(  2-C ,  3-C ) :  -0.0748 
B(  2-C , 13-H ) :  -0.0578 B(  2-C , 14-H ) :   0.7355 B(  2-C , 15-H ) :   0.7421 
B(  2-C , 16-H ) :   0.7456 B(  3-C ,  4-C ) :   0.5569 B(  3-C ,  5-C ) :  -0.2737 
B(  3-C ,  9-N ) :  -0.2395 B(  3-C , 13-H ) :  -0.1431 B(  3-C , 17-H ) :   0.6034 
B(  3-C , 18-H ) :   0.5458 B(  4-C ,  5-C ) :   0.7636 B(  4-C ,  6-N ) :  -0.0751 
B(  4-C ,  7-C ) :  -0.0857 B(  4-C ,  8-C ) :  -0.1427 B(  4-C ,  9-N ) :   1.1472 
B(  4-C , 19-H ) :  -0.1373 B(  5-C ,  6-N ) :   1.0747 B(  5-C ,  7-C ) :  -0.1627 
B(  5-C ,  8-C ) :  -0.0996 B(  5-C ,  9-N ) :  -0.1521 B(  5-C , 19-H ) :   0.7734 
B(  6-N ,  7-C ) :   1.0439 B(  6-N ,  8-C ) :  -0.0786 B(  6-N ,  9-N ) :  -0.0797 
B(  6-N , 19-H ) :  -0.0914 B(  6-N , 20-H ) :  -0.1006 B(  7-C ,  8-C ) :   0.8376 
B(  7-C ,  9-N ) :  -0.0744 B(  7-C , 20-H ) :   0.7765 B(  7-C , 21-H ) :  -0.1461 
B(  8-C ,  9-N ) :   1.0282 B(  8-C , 20-H ) :  -0.1451 B(  8-C , 21-H ) :   0.7741 
B(  9-N , 21-H ) :  -0.1059 B( 14-H , 16-H ) :  -0.0506 B( 15-H , 16-H ) :  -0.0506 



                     *******************************
                     * LOEWDIN POPULATION ANALYSIS *
                     *******************************

----------------------
LOEWDIN ATOMIC CHARGES
----------------------
   0 C :   -0.330759
   1 C :   -0.151922
   2 C :   -0.327802
   3 C :   -0.211325
   4 C :   -0.020632
   5 C :   -0.095969
   6 N :   -0.050226
   7 C :   -0.105045
   8 C :   -0.096027
   9 N :   -0.055615
  10 H :    0.119581
  11 H :    0.118173
  12 H :    0.114171
  13 H :    0.116762
  14 H :    0.120412
  15 H :    0.118021
  16 H :    0.117970
  17 H :    0.134442
  18 H :    0.129672
  19 H :    0.117521
  20 H :    0.119303
  21 H :    0.119294

-------------------------------
LOEWDIN REDUCED ORBITAL CHARGES
-------------------------------
  0 C s       :     2.949045  s :     2.949045
      pz      :     1.074131  p :     3.310325
      px      :     1.112447
      py      :     1.123747
      dz2     :     0.017059  d :     0.071389
      dxz     :     0.020522
      dyz     :     0.007747
      dx2y2   :     0.005253
      dxy     :     0.020809

  1 C s       :     2.878908  s :     2.878908
      pz      :     1.060415  p :     3.169381
      px      :     1.047752
      py      :     1.061214
      dz2     :     0.024931  d :     0.103633
      dxz     :     0.024411
      dyz     :     0.013165
      dx2y2   :     0.013542
      dxy     :     0.027583

  2 C s       :     2.949308  s :     2.949308
      pz      :     1.094401  p :     3.307246
      px      :     1.090117
      py      :     1.122728
      dz2     :     0.022481  d :     0.071248
      dxz     :     0.014601
      dyz     :     0.003606
      dx2y2   :     0.006735
      dxy     :     0.023826

  3 C s       :     2.910142  s :     2.910142
      pz      :     1.106287  p :     3.217397
      px      :     1.035014
      py      :     1.076096
      dz2     :     0.013831  d :     0.083786
      dxz     :     0.007591
      dyz     :     0.024473
      dx2y2   :     0.018993
      dxy     :     0.018897

  4 C s       :     2.861645  s :     2.861645
      pz      :     1.006972  p :     3.009632
      px      :     1.027365
      py      :     0.975294
      dz2     :     0.030922  d :     0.149356
      dxz     :     0.038003
      dyz     :     0.026519
      dx2y2   :     0.029203
      dxy     :     0.024709

  5 C s       :     2.899077  s :     2.899077
      pz      :     1.040332  p :     3.066568
      px      :     1.022237
      py      :     1.003999
      dz2     :     0.018321  d :     0.130323
      dxz     :     0.042273
      dyz     :     0.013074
      dx2y2   :     0.025462
      dxy     :     0.031193

  6 N s       :     3.219037  s :     3.219037
      pz      :     1.311683  p :     3.768068
      px      :     1.204537
      py      :     1.251848
      dz2     :     0.013368  d :     0.063122
      dxz     :     0.015028
      dyz     :     0.007818
      dx2y2   :     0.012388
      dxy     :     0.014519

  7 C s       :     2.902397  s :     2.902397
      pz      :     1.018492  p :     3.072636
      px      :     1.048676
      py      :     1.005468
      dz2     :     0.030988  d :     0.130012
      dxz     :     0.029320
      dyz     :     0.026284
      dx2y2   :     0.026007
      dxy     :     0.017413

  8 C s       :     2.902619  s :     2.902619
      pz      :     1.038350  p :     3.062156
      px      :     1.024677
      py      :     0.999129
      dz2     :     0.018545  d :     0.131252
      dxz     :     0.042187
      dyz     :     0.013272
      dx2y2   :     0.026209
      dxy     :     0.031038

  9 N s       :     3.219555  s :     3.219555
      pz      :     1.315573  p :     3.773990
      px      :     1.194764
      py      :     1.263653
      dz2     :     0.013037  d :     0.062071
      dxz     :     0.014957
      dyz     :     0.007539
      dx2y2   :     0.012502
      dxy     :     0.014036

 10 H s       :     0.880419  s :     0.880419

 11 H s       :     0.881827  s :     0.881827

 12 H s       :     0.885829  s :     0.885829

 13 H s       :     0.883238  s :     0.883238

 14 H s       :     0.879588  s :     0.879588

 15 H s       :     0.881979  s :     0.881979

 16 H s       :     0.882030  s :     0.882030

 17 H s       :     0.865558  s :     0.865558

 18 H s       :     0.870328  s :     0.870328

 19 H s       :     0.882479  s :     0.882479

 20 H s       :     0.880697  s :     0.880697

 21 H s       :     0.880706  s :     0.880706


---------------------------------
LOEWDIN BOND ORDERS (THRESH 0.050000)
---------------------------------
B(  0-C ,  1-C ) :   1.0995 B(  0-C ,  2-C ) :   0.0564 B(  0-C ,  3-C ) :   0.0555 
B(  0-C , 10-H ) :   0.9343 B(  0-C , 11-H ) :   0.9347 B(  0-C , 12-H ) :   0.9328 
B(  1-C ,  2-C ) :   1.0990 B(  1-C ,  3-C ) :   1.0255 B(  1-C ,  4-C ) :   0.0610 
B(  1-C , 13-H ) :   0.8759 B(  2-C ,  3-C ) :   0.0568 B(  2-C , 14-H ) :   0.9359 
B(  2-C , 15-H ) :   0.9347 B(  2-C , 16-H ) :   0.9364 B(  3-C ,  4-C ) :   1.0746 
B(  3-C ,  5-C ) :   0.0727 B(  3-C ,  9-N ) :   0.0843 B(  3-C , 17-H ) :   0.8817 
B(  3-C , 18-H ) :   0.8865 B(  4-C ,  5-C ) :   1.4067 B(  4-C ,  6-N ) :   0.0890 
B(  4-C ,  7-C ) :   0.1303 B(  4-C ,  8-C ) :   0.1048 B(  4-C ,  9-N ) :   1.5689 
B(  5-C ,  6-N ) :   1.6559 B(  5-C ,  7-C ) :   0.1083 B(  5-C ,  8-C ) :   0.1400 
B(  5-C ,  9-N ) :   0.0860 B(  5-C , 19-H ) :   0.8854 B(  6-N ,  7-C ) :   1.6136 
B(  6-N ,  8-C ) :   0.0891 B(  6-N ,  9-N ) :   0.1040 B(  7-C ,  8-C ) :   1.5000 
B(  7-C ,  9-N ) :   0.0887 B(  7-C , 20-H ) :   0.8940 B(  8-C ,  9-N ) :   1.6230 
B(  8-C , 21-H ) :   0.8924 

------------------------------------------
LOEWDIN REDUCED ORBITAL POPULATIONS PER MO
-------------------------------------------
THRESHOLD FOR PRINTING IS 0.1%%
                      0         1         2         3         4         5   
                 -13.99875 -13.99772  -9.94252  -9.93068  -9.93054  -9.92828
                   2.00000   2.00000   2.00000   2.00000   2.00000   2.00000
                  --------  --------  --------  --------  --------  --------
 4 C  s               0.0       0.0      99.5       0.0       0.0       0.0
 5 C  s               0.0       0.0       0.0      97.0       2.5       0.0
 6 N  s              99.4       0.4       0.0       0.0       0.0       0.0
 6 N  pz              0.0       0.0       0.0       0.0       0.0       0.1
 6 N  px              0.0       0.0       0.0       0.2       0.0       0.1
 7 C  s               0.0       0.0       0.0       0.0       0.3      99.3
 8 C  s               0.0       0.0       0.0       2.5      96.7       0.3
 9 N  s               0.4      99.4       0.0       0.0       0.0       0.0
 9 N  pz              0.0       0.0       0.1       0.0       0.0       0.0
 9 N  px              0.0       0.0       0.1       0.0       0.2       0.0

                      6         7         8         9        10        11   
                  -9.90557  -9.89161  -9.88113  -9.87849  -0.89698  -0.82243
                   2.00000   2.00000   2.00000   2.00000   2.00000   2.00000
                  --------  --------  --------  --------  --------  --------
 0 C  s               0.0       0.0      99.7       0.0       0.0       0.0
 1 C  s              99.6       0.0       0.0       0.0       0.1       0.1
 2 C  s               0.0       0.0       0.0      99.7       0.0       0.0
 3 C  s               0.0      99.6       0.0       0.0       0.8       0.9
 3 C  px              0.0       0.0       0.0       0.0       0.8       0.5
 4 C  s               0.0       0.0       0.0       0.0      10.0       4.7
 4 C  pz              0.0       0.0       0.0       0.0       0.5       4.5
 4 C  px              0.0       0.1       0.0       0.0       3.1       0.4
 4 C  py              0.0       0.0       0.0       0.0       0.0       1.8
 4 C  dxz             0.0       0.0       0.0       0.0       0.1       0.3
 4 C  dyz             0.0       0.0       0.0       0.0       0.1       0.0
 5 C  s               0.0       0.0       0.0       0.0       9.6       4.0
 5 C  pz              0.0       0.0       0.0       0.0       1.4       0.3
 5 C  px              0.0       0.0       0.0       0.0       2.4       6.0
 5 C  py              0.0       0.0       0.0       0.0       0.1       1.6
 5 C  dz2             0.0       0.0       0.0       0.0       0.0       0.1
 5 C  dx2y2           0.0       0.0       0.0       0.0       0.1       0.3
 6 N  s               0.0       0.0       0.0       0.0      16.5      23.6
 6 N  pz              0.0       0.0       0.0       0.0       1.3       0.9
 6 N  px              0.0       0.0       0.0       0.0       0.5       0.3
 6 N  py              0.0       0.0       0.0       0.0       1.2       0.8
 7 C  s               0.0       0.0       0.0       0.0       9.1       4.5
 7 C  pz              0.0       0.0       0.0       0.0       0.5       4.7
 7 C  px              0.0       0.0       0.0       0.0       3.4       0.8
 7 C  py              0.0       0.0       0.0       0.0       0.1       1.6
 7 C  dxz             0.0       0.0       0.0       0.0       0.1       0.4
 7 C  dyz             0.0       0.0       0.0       0.0       0.1       0.0
 8 C  s               0.0       0.0       0.0       0.0       9.4       3.4
 8 C  pz              0.0       0.0       0.0       0.0       1.4       0.4
 8 C  px              0.0       0.0       0.0       0.0       2.6       5.2
 8 C  py              0.0       0.0       0.0       0.0       0.1       1.4
 8 C  dz2             0.0       0.0       0.0       0.0       0.0       0.1
 8 C  dx2y2           0.0       0.0       0.0       0.0       0.1       0.3
 9 N  s               0.0       0.0       0.0       0.0      17.4      21.4
 9 N  pz              0.0       0.0       0.0       0.0       1.5       0.9
 9 N  px              0.0       0.0       0.0       0.0       0.4       0.2
 9 N  py              0.0       0.0       0.0       0.0       1.2       0.6
17 H  s               0.0       0.1       0.0       0.0       0.1       0.1
18 H  s               0.0       0.1       0.0       0.0       0.2       0.2
19 H  s               0.0       0.0       0.0       0.0       1.0       0.5
20 H  s               0.0       0.0       0.0       0.0       0.9       0.6
21 H  s               0.0       0.0       0.0       0.0       0.9       0.4

                     12        13        14        15        16        17   
                  -0.74554  -0.70244  -0.63628  -0.61773  -0.59239  -0.56366
                   2.00000   2.00000   2.00000   2.00000   2.00000   2.00000
                  --------  --------  --------  --------  --------  --------
 0 C  s               7.3       5.6       5.6      21.0       1.6       1.2
 0 C  pz              1.9       0.8       0.0       0.7       0.1       0.2
 0 C  px              0.4       0.0       0.1       0.1       0.1       0.4
 0 C  py              0.1       0.0       0.1       0.0       0.0       0.2
 1 C  s              20.0       7.4       0.3       0.0       0.0       0.9
 1 C  pz              0.0       0.0       0.3      13.8       0.3       0.0
 1 C  px              0.0       1.8       5.3       1.0       0.4       2.4
 1 C  py              0.8       0.0       2.0       0.4       0.0       1.5
 1 C  dxz             0.0       0.0       0.0       0.3       0.0       0.0
 2 C  s               6.8       6.0       3.6      23.0       0.1       2.6
 2 C  pz              1.0       0.5       0.1       0.5       0.0       0.1
 2 C  px              1.3       0.3       0.1       0.0       0.0       0.9
 2 C  py              0.0       0.0       0.1       0.0       0.0       0.1
 3 C  s              15.5       0.3      15.6       0.0       0.1       6.3
 3 C  pz              0.0       0.0       0.0       1.0       0.5       0.0
 3 C  px              0.1       4.3       0.7       0.1       0.0       3.2
 3 C  py              1.6       0.2       0.2       0.0       0.3       0.4
 4 C  s               5.2       9.5       1.3       0.0       0.1       6.8
 4 C  pz              0.9       0.9       0.0       0.3      10.8       1.0
 4 C  px              3.7       0.0       8.2       0.0       0.3       2.0
 4 C  py              0.0       0.3       1.2       0.1       4.9       1.3
 4 C  dxz             0.0       0.0       0.0       0.0       0.2       0.0
 4 C  dyz             0.0       0.1       0.0       0.0       0.0       0.1
 5 C  s               2.6       9.2       3.6       0.1      10.3       0.4
 5 C  pz              0.1       0.2       0.3       0.0       0.4       2.9
 5 C  px              0.6       0.6       1.0       0.2       3.3       6.3
 5 C  py              0.2       0.4       0.5       0.0       0.0       4.5
 5 C  dz2             0.0       0.0       0.0       0.0       0.0       0.1
 5 C  dyz             0.0       0.1       0.0       0.0       0.1       0.1
 5 C  dx2y2           0.0       0.0       0.0       0.0       0.0       0.2
 6 N  s               0.0       0.0       0.1       0.1       3.1       3.8
 6 N  pz              0.2       1.5       2.1       0.0       1.3       1.9
 6 N  px              0.7       5.1       7.4       0.0       6.1       2.5
 6 N  py              0.0       0.0       0.0       0.0       0.1       0.3
 7 C  s               1.4       9.3      10.0       0.1       0.1       5.6
 7 C  pz              0.3       0.9       0.2       0.2       9.6       0.9
 7 C  px              0.0       0.1       0.6       0.0       0.1       1.3
 7 C  py              0.2       0.5       0.0       0.1       4.7       0.1
 7 C  dxz             0.0       0.0       0.0       0.0       0.2       0.0
 7 C  dyz             0.0       0.1       0.1       0.0       0.0       0.0
 8 C  s               3.7      10.3       0.7       0.3      12.0       0.6
 8 C  pz              0.0       0.2       0.7       0.0       0.4       3.1
 8 C  px              0.2       0.6       3.9       0.1       2.7       4.3
 8 C  py              0.0       0.3       1.6       0.0       0.0       3.9
 9 N  s               1.0       0.0       1.5       0.1       3.2       1.7
 9 N  pz              0.4       1.6       0.1       0.0       1.6       4.3
 9 N  px              2.7       5.9       0.8       0.1       8.0       5.3
 9 N  py              0.0       0.0       0.1       0.0       0.1       0.5
10 H  s               1.2       1.2       1.7       5.2       0.5       0.8
11 H  s               1.4       1.2       1.3       5.2       0.5       0.4
12 H  s               1.4       0.9       1.2       6.7       0.3       0.3
13 H  s               3.7       1.1       0.1       0.0       0.1       0.1
14 H  s               1.2       1.1       0.6       6.8       0.0       0.7
15 H  s               1.1       1.2       1.2       5.6       0.0       1.4
16 H  s               1.3       1.2       0.8       5.8       0.0       0.8
17 H  s               3.0       0.0       3.8       0.2       0.1       2.3
18 H  s               2.7       0.0       3.8       0.2       0.0       2.6
19 H  s               0.7       1.8       0.9       0.1       5.0       0.0
20 H  s               0.2       1.9       3.2       0.0       0.0       3.0
21 H  s               0.6       2.1       0.2       0.1       5.4       0.6

                     18        19        20        21        22        23   
                  -0.51118  -0.47318  -0.46687  -0.43234  -0.41079  -0.40463
                   2.00000   2.00000   2.00000   2.00000   2.00000   2.00000
                  --------  --------  --------  --------  --------  --------
 0 C  s               3.2       0.0       0.0       0.2       0.3       0.2
 0 C  pz              5.9       0.2       0.0       0.7      10.3       1.6
 0 C  px              2.1       0.0       0.1       0.2       1.8       0.8
 0 C  py              0.3       0.3       0.8       5.2       2.0       3.7
 0 C  dz2             0.1       0.0       0.0       0.0       0.1       0.0
 0 C  dxz             0.1       0.0       0.0       0.0       0.1       0.0
 1 C  s              13.1       0.6       0.0       0.3       0.8       0.0
 1 C  pz              0.5       0.3       0.1       0.7       1.8       0.8
 1 C  px              2.9       0.0       0.1       0.8       7.3       0.2
 1 C  py              4.6       0.9       2.5       7.7       0.2       7.6
 2 C  s               3.4       0.3       0.1       0.1       0.1       0.0
 2 C  pz              1.5       0.2       0.2       1.7      11.0       0.0
 2 C  px              5.1       0.7       0.1       0.3       0.5       2.0
 2 C  py              1.3       0.2       0.6       3.2       0.1       7.9
 2 C  dxz             0.1       0.0       0.0       0.0       0.1       0.0
 3 C  s               2.4       0.1       0.5       0.0       0.2       0.2
 3 C  pz              0.0       4.2       0.1       1.1       3.3       6.2
 3 C  px              1.1       0.0       3.1      10.2       0.1       2.4
 3 C  py              9.2       0.0       0.9       0.7       0.7       3.7
 3 C  dz2             0.1       0.0       0.0       0.0       0.0       0.0
 3 C  dxy             0.1       0.0       0.0       0.1       0.0       0.0
 4 C  s               0.0       0.0       0.2       1.5       1.1       0.4
 4 C  pz              0.0      11.4       0.1       0.2       1.2       1.8
 4 C  px              1.0       0.0       3.1       5.4       1.1       0.2
 4 C  py              2.6       3.4       0.3       0.0       1.5       8.1
 4 C  dxz             0.0       0.0       0.0       0.1       0.0       0.1
 4 C  dxy             0.0       0.0       0.1       0.1       0.0       0.0
 5 C  s               0.0       0.0       1.1       1.5       0.0       0.1
 5 C  pz              1.1       2.6       7.2       4.8       1.2       7.0
 5 C  px              0.4       6.2       4.5       1.4       1.6       0.0
 5 C  py              0.3       5.1       1.9       0.5       3.4       0.4
 6 N  s               0.1       0.0       1.3       0.9       0.3       0.0
 6 N  pz              0.6       4.1       1.4       0.8       0.6       1.2
 6 N  px              0.6      10.3       4.1       0.0       0.1       0.1
 6 N  py              0.0       0.2       2.6       0.2       0.4       1.7
 6 N  dxz             0.0       0.0       0.2       0.1       0.0       0.0
 7 C  s               0.0       0.3       0.9       1.8       0.4       0.2
 7 C  pz              0.3       9.2       2.5       0.2       0.7       0.3
 7 C  px              0.1       1.6      12.7       6.3       2.0       0.4
 7 C  py              0.1       2.8       5.9       0.3       0.1       3.5
 7 C  dz2             0.0       0.0       0.0       0.1       0.0       0.0
 7 C  dxy             0.0       0.0       0.0       0.1       0.0       0.1
 8 C  s               0.5       0.3       0.2       1.6       0.2       0.1
 8 C  pz              0.4       0.3       7.8       4.7       4.9       9.4
 8 C  px              0.6      10.8       0.1       1.7       4.1       0.5
 8 C  py              0.1       2.6       3.8       0.8       4.3       0.1
 8 C  dz2             0.0       0.0       0.0       0.1       0.0       0.0
 8 C  dxz             0.0       0.0       0.0       0.1       0.1       0.0
 8 C  dxy             0.0       0.0       0.0       0.1       0.0       0.1
 9 N  s               0.0       0.0       2.8       1.2       0.0       0.0
 9 N  pz              0.1       1.9       3.1       0.8       0.5       2.0
 9 N  px              0.0      13.2       0.2       0.0       0.5       1.2
 9 N  py              0.4       0.0       1.6       0.1       2.1       2.4
10 H  s               1.8       0.1       0.1       2.4       0.3       0.2
11 H  s               3.8       0.1       0.2       0.3       0.1       3.0
12 H  s               1.8       0.0       0.2       0.3       6.4       0.0
13 H  s              10.9       0.7       0.7       2.0       0.7       1.3
14 H  s               1.7       0.1       0.1       0.6       5.4       0.1
15 H  s               1.9       0.1       0.3       1.4       0.1       4.2
16 H  s               3.7       0.5       0.0       0.6       0.1       0.9
17 H  s               3.3       1.2       1.0       1.1       0.8       4.5
18 H  s               2.7       0.5       0.4       0.0       1.2       0.3
19 H  s               0.2       0.2       7.3       6.1       3.4       1.5
20 H  s               0.0       0.7       8.0       6.5       0.3       0.3
21 H  s               0.8       0.6       2.3       6.8       7.4       4.1

                     24        25        26        27        28        29   
                  -0.38671  -0.38356  -0.36939  -0.34950  -0.34556  -0.32661
                   2.00000   2.00000   2.00000   2.00000   2.00000   2.00000
                  --------  --------  --------  --------  --------  --------
 0 C  s               0.0       0.1       0.0       0.0       0.0       0.0
 0 C  pz              0.6       4.2       0.1       1.0       0.1       2.2
 0 C  px             21.4       0.6       0.3       8.4       1.2       5.7
 0 C  py              4.2       0.2       3.1      21.5       2.0       3.1
 0 C  dxy             0.1       0.0       0.0       0.2       0.0       0.1
 1 C  pz              5.8       2.9       0.0       2.2       0.3       0.0
 1 C  px              5.1       0.9       0.1       0.1       2.7       0.1
 1 C  py              0.3       0.1       1.3       0.1       0.1       0.1
 1 C  dz2             0.0       0.0       0.0       0.0       0.1       0.0
 1 C  dyz             0.1       0.0       0.0       0.3       0.0       0.0
 2 C  s               0.4       0.0       0.0       0.0       0.0       0.0
 2 C  pz              3.7       5.1       2.3       2.0       0.9       4.9
 2 C  px              3.8       8.7       0.0       1.7       5.8       8.8
 2 C  py              0.9       0.7       4.9      11.8       6.5      10.7
 2 C  dz2             0.0       0.1       0.0       0.0       0.1       0.3
 2 C  dxy             0.0       0.0       0.1       0.1       0.1       0.3
 3 C  s               0.3       0.1       0.5       0.0       0.4       0.2
 3 C  pz             11.7       1.2       2.2       1.3       0.5      12.3
 3 C  px              0.0       1.8       1.9       1.7       2.4       1.2
 3 C  py              4.6       0.1       5.6       3.1       8.3       0.1
 3 C  dz2             0.0       0.0       0.1       0.0       0.1       0.0
 3 C  dyz             0.1       0.0       0.0       0.1       0.0       0.3
 3 C  dx2y2           0.0       0.0       0.2       0.0       0.0       0.0
 4 C  s               0.1       0.0       0.1       0.1       0.1       0.1
 4 C  pz              0.7       2.3       0.2       0.0       0.4       0.3
 4 C  px              0.0       4.6       3.3       2.1       4.9       0.2
 4 C  py              0.3       1.6       2.0       0.1       0.1       1.5
 4 C  dz2             0.0       0.0       0.0       0.0       0.2       0.0
 4 C  dxz             0.1       0.1       0.0       0.0       0.0       0.2
 4 C  dx2y2           0.0       0.0       0.0       0.1       0.2       0.0
 4 C  dxy             0.1       0.0       0.1       0.0       0.0       0.0
 5 C  s               0.7       0.1       0.2       0.1       0.2       0.2
 5 C  pz              0.1       0.3       8.8       0.0       0.5       0.1
 5 C  px              1.3       1.4       2.7       0.6       4.7       0.0
 5 C  py              0.1       8.1       0.1       0.1       0.3       0.7
 5 C  dz2             0.0       0.0       0.0       0.0       0.1       0.0
 5 C  dxz             0.0       0.0       0.1       0.0       0.3       0.0
 5 C  dxy             0.0       0.0       0.1       0.0       0.1       0.1
 6 N  s               0.3       0.0       0.1       0.0       0.0       0.2
 6 N  pz              0.2       3.1       0.3       0.8       4.1       0.2
 6 N  px              0.3       0.5       4.9       0.5       2.8       0.1
 6 N  py              0.1       6.8       2.0       0.0       1.1       2.8
 7 C  s               0.1       0.0       0.1       0.0       0.2       0.0
 7 C  pz              0.1       3.2       1.9       0.2       0.3       0.9
 7 C  px              0.0       3.9       9.2       0.4       6.2       0.5
 7 C  py              0.0       3.1       4.9       0.1       1.1       0.8
 7 C  dz2             0.0       0.0       0.2       0.0       0.1       0.0
 7 C  dyz             0.0       0.0       0.1       0.0       0.1       0.0
 7 C  dx2y2           0.0       0.0       0.2       0.0       0.1       0.0
 7 C  dxy             0.0       0.0       0.0       0.0       0.2       0.0
 8 C  s               0.0       0.0       0.5       0.0       0.2       0.0
 8 C  pz              0.4       0.4       1.8       0.7       3.2       0.0
 8 C  px              1.3       1.6       1.0       0.6       2.7       0.0
 8 C  py              0.0       7.9       0.6       0.0       0.3       0.4
 8 C  dz2             0.0       0.0       0.2       0.0       0.1       0.0
 8 C  dxz             0.0       0.0       0.0       0.0       0.2       0.0
 8 C  dxy             0.0       0.0       0.0       0.0       0.2       0.0
 9 N  pz              0.3       3.2       0.4       0.1       0.6       0.2
 9 N  px              1.5       0.5       0.4       0.5       4.1       0.1
 9 N  py              0.0       5.3       1.7       0.0       0.1       0.1
10 H  s               9.4       0.0       0.7       1.6       1.8       5.0
11 H  s               0.2       0.0       1.3      16.6       0.2       0.1
12 H  s               4.9       2.1       0.2       2.7       0.5       4.0
13 H  s               0.0       0.2       0.3       0.0       0.0       0.0
14 H  s               1.1       4.4       0.7       1.4       1.3       7.2
15 H  s               0.3       3.2       1.5       1.3       0.0      12.8
16 H  s               1.6       0.7       2.3       7.6       6.8       0.5
17 H  s               0.6       0.3       5.9       0.0       3.0       3.0
18 H  s               8.6       0.6       0.4       2.9       0.5       6.9
19 H  s               0.7       0.7       5.3       0.5       4.4       0.0
20 H  s               0.0       0.8       9.4       0.4       4.5       0.1
21 H  s               0.9       0.8       0.1       1.2       4.5       0.0

                     30        31        32        33        34        35   
                  -0.30513  -0.29493  -0.29433  -0.29040  -0.24792  -0.24243
                   2.00000   2.00000   2.00000   2.00000   2.00000   2.00000
                  --------  --------  --------  --------  --------  --------
 0 C  s               0.0       0.3       0.7       0.2       0.1       0.0
 0 C  pz              1.7       1.7      17.4       2.1       0.2       0.0
 0 C  px              3.5       7.2       0.1       0.6       0.2       0.2
 0 C  py              2.5       0.0       4.0       2.8       0.1       0.0
 0 C  dz2             0.1       0.2       0.0       0.0       0.0       0.0
 0 C  dxz             0.1       0.1       0.4       0.0       0.0       0.0
 0 C  dyz             0.0       0.0       0.0       0.2       0.0       0.0
 0 C  dxy             0.2       0.0       0.0       0.2       0.0       0.0
 1 C  s               0.0       0.0       0.0       0.1       0.0       0.3
 1 C  pz              1.8       0.6      18.1       2.4       0.1       0.0
 1 C  px              2.9      13.7       0.2       0.9       0.2       3.1
 1 C  py              3.0       0.2       4.0      14.8       0.2       0.4
 1 C  dz2             0.0       0.5       0.2       0.1       0.0       0.0
 1 C  dxz             0.1       0.1       0.6       0.0       0.0       0.0
 1 C  dyz             0.0       0.1       0.0       0.1       0.0       0.0
 1 C  dx2y2           0.0       0.1       0.0       0.1       0.0       0.0
 1 C  dxy             0.3       0.0       0.0       0.7       0.0       0.0
 2 C  s               0.1       0.3       0.6       0.0       0.0       0.1
 2 C  pz              3.9       0.1      13.9       0.7       0.0       0.3
 2 C  px              1.8       8.8       1.8       0.6       0.0       1.3
 2 C  py              1.2       0.1       0.8       4.9       0.0       0.0
 2 C  dz2             0.0       0.3       0.2       0.1       0.0       0.0
 2 C  dxz             0.0       0.0       0.2       0.0       0.0       0.0
 2 C  dxy             0.2       0.0       0.0       0.4       0.0       0.0
 3 C  s               0.4       0.1       0.1       0.4       0.1       0.0
 3 C  pz              0.9       0.2       5.9       0.5       0.9       1.1
 3 C  px              6.1       6.1       0.2       0.4       0.5       0.6
 3 C  py              2.3       0.2       2.2       7.4       0.2       1.6
 3 C  dyz             0.0       0.0       0.4       0.1       0.0       0.1
 3 C  dx2y2           0.0       0.2       0.0       0.1       0.0       0.0
 3 C  dxy             0.0       0.1       0.0       0.1       0.0       0.2
 4 C  s               0.1       0.3       0.1       0.1       1.3       0.0
 4 C  pz              3.0       0.3       0.1       0.1       0.3       5.8
 4 C  px              0.7       3.8       0.0       0.3       0.3       2.1
 4 C  py              3.7       0.1       0.1       0.2       0.1      11.5
 4 C  dz2             0.3       0.1       0.0       0.1       0.1       0.0
 4 C  dxz             0.0       0.1       0.1       0.0       0.1       0.1
 4 C  dyz             0.0       0.1       0.0       0.0       0.2       0.0
 4 C  dx2y2           0.0       0.0       0.0       0.0       0.2       0.1
 4 C  dxy             0.0       0.3       0.0       0.1       0.0       0.1
 5 C  s               0.0       0.0       0.2       0.0       1.0       0.0
 5 C  pz              2.1       0.7       0.3       0.7       0.1       7.2
 5 C  px              0.1       1.0       0.1       0.2       0.9       1.6
 5 C  py              1.2       3.5       0.1       1.6       0.1      13.6
 5 C  dxz             0.0       0.1       0.0       0.0       0.4       0.1
 5 C  dyz             0.0       0.0       0.0       0.0       0.1       0.0
 5 C  dxy             0.2       0.0       0.0       0.1       0.2       0.0
 6 N  s               0.0       0.0       0.2       0.0       5.0       0.0
 6 N  pz              5.0       2.4       0.6       1.6      16.4       0.0
 6 N  px              3.1       0.1       0.1       0.6       5.4       0.0
 6 N  py              8.6       4.7       0.1       4.8      13.7       0.0
 6 N  dz2             0.0       0.0       0.0       0.0       0.0       0.1
 6 N  dxy             0.0       0.0       0.0       0.0       0.0       0.2
 7 C  s               0.0       0.0       0.0       0.0       1.2       0.0
 7 C  pz              2.4       0.1       0.0       0.2       0.5       7.3
 7 C  px              0.1       0.1       0.0       0.0       0.4       1.8
 7 C  py              2.9       0.1       0.0       0.2       0.2      15.1
 7 C  dz2             0.3       0.1       0.0       0.1       0.1       0.1
 7 C  dxz             0.0       0.0       0.0       0.0       0.2       0.0
 7 C  dyz             0.0       0.1       0.0       0.0       0.3       0.0
 7 C  dx2y2           0.0       0.1       0.0       0.0       0.2       0.0
 8 C  s               0.0       0.0       0.0       0.0       1.3       0.0
 8 C  pz              1.1       1.2       0.2       1.9       0.1       5.8
 8 C  px              0.2       2.2       0.0       0.3       0.9       1.2
 8 C  py              0.8       5.0       0.4       2.7       0.1      10.6
 8 C  dxz             0.0       0.3       0.0       0.0       0.4       0.1
 8 C  dyz             0.0       0.0       0.0       0.0       0.1       0.0
 8 C  dx2y2           0.1       0.0       0.0       0.0       0.1       0.1
 8 C  dxy             0.2       0.0       0.0       0.1       0.2       0.0
 9 N  s               0.0       0.0       0.0       0.0       5.9       0.0
 9 N  pz              1.3       9.3       0.1       2.6      16.3       0.5
 9 N  px              2.9       0.4       0.1       0.8       6.0       0.1
 9 N  py             10.2       4.7       1.0       5.9      14.3       0.5
 9 N  dz2             0.0       0.0       0.0       0.0       0.0       0.1
 9 N  dxy             0.0       0.1       0.0       0.0       0.0       0.2
10 H  s               5.0       1.9       1.6       1.2       0.2       0.1
11 H  s               0.4       2.1       0.9       4.6       0.0       0.1
12 H  s               3.1       1.7       5.3       0.0       0.0       0.2
13 H  s               1.0       5.1       0.5      15.1       0.0       0.1
14 H  s               0.9       1.1       6.5       0.8       0.0       0.0
15 H  s               2.0       1.8       0.1       1.6       0.0       0.6
16 H  s               0.9       1.8       0.1       6.1       0.0       0.0
17 H  s               0.3       0.5       1.6       3.8       0.2       2.5
18 H  s               0.4       0.0       6.9       0.2       0.6       0.1
19 H  s               0.4       0.4       0.0       0.0       0.3       0.0
20 H  s               0.3       0.1       0.0       0.0       0.2       0.0
21 H  s               0.7       0.8       0.0       0.0       0.3       0.0

                     36        37        38        39        40        41   
                  -0.19748  -0.07574  -0.05631   0.03432   0.06378   0.06655
                   2.00000   0.00000   0.00000   0.00000   0.00000   0.00000
                  --------  --------  --------  --------  --------  --------
 0 C  s               0.0       0.0       0.0       9.6       0.3       0.5
 0 C  pz              0.1       0.0       0.1       3.2       1.5       0.0
 0 C  px              0.0       0.0       0.0       0.3       2.3       2.5
 0 C  py              0.0       0.0       0.0       0.1       0.9       2.5
 0 C  dz2             0.0       0.0       0.0       0.1       0.0       0.0
 0 C  dxz             0.0       0.0       0.0       0.2       0.0       0.0
 0 C  dx2y2           0.0       0.0       0.0       0.0       0.1       0.0
 1 C  s               0.0       0.2       0.5       3.4       1.0       0.2
 1 C  pz              0.0       0.0       0.0       0.1       0.2       0.6
 1 C  px              0.1       0.3       0.6       0.3       0.5       0.2
 1 C  py              0.0       0.0       0.5       0.8       3.0       2.4
 1 C  dz2             0.0       0.0       0.0       0.0       0.0       0.2
 1 C  dx2y2           0.0       0.0       0.0       0.0       0.5       0.0
 1 C  dxy             0.0       0.0       0.0       0.0       0.2       0.2
 2 C  s               0.0       0.0       0.0       7.4       3.4       0.9
 2 C  pz              0.0       0.0       0.0       0.8       0.2       0.0
 2 C  px              0.0       0.1       0.0       1.5       1.0       0.4
 2 C  py              0.0       0.0       0.0       0.0       0.7       1.6
 2 C  dz2             0.0       0.0       0.0       0.0       0.0       0.1
 2 C  dxz             0.0       0.0       0.0       0.1       0.0       0.0
 2 C  dxy             0.0       0.0       0.0       0.1       0.1       0.1
 3 C  s               0.4       0.0       0.0       2.0       0.1       1.9
 3 C  pz              0.0       0.0       0.0       0.1       0.4       1.0
 3 C  px              2.0       0.0       0.1       0.2       0.6       0.1
 3 C  py              0.1       0.1       0.2       1.8       1.8       2.2
 3 C  dz2             0.0       0.0       0.1       0.0       0.2       0.0
 3 C  dxz             0.0       0.0       0.1       0.0       0.0       0.0
 3 C  dyz             0.0       0.0       0.1       0.0       0.0       0.2
 3 C  dx2y2           0.0       0.0       0.1       0.1       0.6       0.1
 3 C  dxy             0.0       0.1       0.5       0.1       0.0       0.1
 4 C  s               0.2       0.0       0.0       0.0       0.6       0.0
 4 C  pz              3.1       1.8       8.0       0.1       0.1       0.8
 4 C  px              0.3       0.5       1.8       0.1       0.2       0.2
 4 C  py              1.9       3.4      15.4       0.1       1.8       1.1
 4 C  dz2             0.3       1.0       0.2       0.0       0.1       0.0
 4 C  dyz             0.2       0.2       0.0       0.1       0.0       0.1
[...]
 4 C  dz2             1.1       0.6       7.2       6.4       1.5       0.1
 4 C  dxz             0.0       8.8       0.1       0.2       0.2       2.1
 4 C  dyz             5.0       0.0       0.2       1.2       2.5       0.0
 4 C  dx2y2           0.3       0.9      11.1       2.1       2.1       0.2
 4 C  dxy             2.2       9.8       5.0       1.0       0.0       0.7
 5 C  s               3.0       0.4       0.0       0.0       0.5       2.7
 5 C  pz              0.6       0.6       0.1       0.0       0.1       0.1
 5 C  px              0.2       0.3       0.3       0.0       1.2       2.1
 5 C  py              0.2       0.4       0.0       0.0       0.4       0.1
 5 C  dz2             0.0       4.2       2.1       0.8       0.2       0.7
 5 C  dxz             0.2       0.2       3.1       3.7       1.0       0.5
 5 C  dyz             3.4       3.6       0.6       0.0       0.9       0.2
 5 C  dx2y2           1.0       3.4       0.0       4.1       0.1       1.9
 5 C  dxy             2.9       0.1       3.5       2.4       2.0       0.1
 6 N  s               1.6       0.9       0.2       0.0       2.2       0.0
 6 N  pz              0.5       0.2       0.2       0.0       0.2       0.8
 6 N  px              0.9       0.3       0.5       0.0       0.0       3.1
 6 N  py              0.2       0.2       0.0       0.0       0.1       0.0
 6 N  dz2             0.9       0.3       0.0       5.5       0.6      12.2
 6 N  dxz             0.6       0.1       0.0       4.1      19.7       5.8
 6 N  dyz            14.7       1.3       0.6       3.5       0.3       3.2
 6 N  dx2y2           2.7       0.3       0.4       1.1      15.4       6.0
 6 N  dxy             3.0       0.0       2.1      12.6       0.2      11.7
 7 C  s               0.2       0.3       0.4       0.0       0.7       1.9
 7 C  pz              0.7       1.1       0.1       0.0       1.3       0.9
 7 C  px              0.4       0.1       0.0       0.0       0.2       0.8
 7 C  py              0.2       0.6       0.1       0.0       0.5       0.1
 7 C  dz2             6.1       0.2       0.9       7.2       1.7       0.1
 7 C  dxz             0.0       4.3       0.2       0.1       0.0       2.4
 7 C  dyz             1.8       1.8       2.6       1.3       3.1       0.0
 7 C  dx2y2           5.7       1.3       0.7       1.4       0.5       0.4
 7 C  dxy             2.0       1.0       0.4       0.8       0.1       0.6
 8 C  s               0.0       0.1       1.6       0.0       0.2       1.6
 8 C  pz              0.1       0.3       0.1       0.0       0.1       0.1
 8 C  px              0.8       1.9       0.3       0.0       1.0       1.0
 8 C  py              0.1       0.9       0.0       0.0       0.3       0.0
 8 C  dz2             2.7       0.7       0.9       1.0       0.0       0.3
 8 C  dxz             4.0       4.6       1.0       3.1       1.1       0.3
 8 C  dyz             0.7       2.1       0.5       0.0       0.6       0.1
 8 C  dx2y2           0.6       4.2       1.8       3.7       0.0       0.9
 8 C  dxy             5.2       0.2       2.8       3.4       1.0       0.0
 9 N  s               0.7       2.2       2.5       0.0       1.6       0.1
 9 N  pz              0.2       0.7       0.3       0.0       0.0       0.7
 9 N  px              0.7       0.6       0.9       0.0       0.1       2.0
 9 N  py              0.2       0.5       0.4       0.0       0.0       0.0
 9 N  dz2             0.4       0.1       0.6       5.4       1.1       8.0
 9 N  dxz             0.8       0.3       3.7       3.1      15.3       5.6
 9 N  dyz             4.8       2.0      10.4       4.0       0.0       3.0
 9 N  dx2y2           0.9       3.6       3.1       2.2      13.0       2.6
 9 N  dxy             0.7       5.0       1.3      12.6       0.0       7.5
18 H  s               0.0       0.2       0.1       0.0       0.0       0.0
19 H  s               0.0       0.2       0.6       0.0       0.0       0.0
20 H  s               1.2       0.1       0.1       0.0       0.1       0.0
21 H  s               0.9       0.1       0.1       0.0       0.0       0.0

                    162       163   
                   3.23455   3.44757
                   0.00000   0.00000
                  --------  --------
 1 C  dx2y2           0.2       0.0
 3 C  px              0.0       0.3
 3 C  dz2             0.0       0.2
 3 C  dxz             0.8       0.0
 3 C  dx2y2           0.3       0.3
 3 C  dxy             0.4       0.3
 4 C  s               0.5       0.6
 4 C  pz              1.7       0.1
 4 C  px              0.3       0.2
 4 C  py              0.5       0.0
 4 C  dz2             0.3       4.6
 4 C  dxz             6.8       0.0
 4 C  dyz             0.1       5.2
 4 C  dx2y2           0.7       3.2
 4 C  dxy             2.8       0.8
 5 C  s               0.3       0.9
 5 C  pz              0.1       0.0
 5 C  px              2.0       0.0
 5 C  py              0.6       0.0
 5 C  dz2             1.7       1.5
 5 C  dxz             0.5       4.3
 5 C  dyz             1.3       0.1
 5 C  dx2y2           2.7       0.4
 5 C  dxy             0.2       5.3
 6 N  s               0.0       1.3
 6 N  pz              0.7       0.0
 6 N  px              2.5       0.0
 6 N  dz2             6.7       0.7
 6 N  dxz             3.5      10.5
 6 N  dyz             2.1       0.5
 6 N  dx2y2           2.8       7.9
 6 N  dxy             6.2       0.4
 7 C  s               0.4       1.0
 7 C  pz              1.4       0.0
 7 C  px              0.2       0.0
 7 C  py              0.5       0.0
 7 C  dz2             0.2       3.6
 7 C  dxz             3.0       0.1
 7 C  dyz             0.0       4.9
 7 C  dx2y2           0.2       2.0
 7 C  dxy             1.1       0.5
 8 C  s               0.7       1.0
 8 C  px              2.1       0.1
 8 C  py              0.5       0.0
 8 C  dz2             1.4       1.5
 8 C  dxz             0.5       4.3
 8 C  dyz             0.8       0.2
 8 C  dx2y2           2.5       0.4
 8 C  dxy             0.2       5.3
 9 N  s               0.0       1.5
 9 N  pz              1.1       0.0
 9 N  px              3.1       0.1
 9 N  dz2             9.6       0.9
 9 N  dxz             5.2      11.6
 9 N  dyz             3.4       0.6
 9 N  dx2y2           3.7       8.9
 9 N  dxy             8.5       0.4
19 H  s               0.0       0.3
20 H  s               0.0       0.3
21 H  s               0.0       0.3


                      *****************************
                      * MAYER POPULATION ANALYSIS *
                      *****************************

  NA   - Mulliken gross atomic population
  ZA   - Total nuclear charge
  QA   - Mulliken gross atomic charge
  VA   - Mayer's total valence
  BVA  - Mayer's bonded valence
  FA   - Mayer's free valence

  ATOM       NA         ZA         QA         VA         BVA        FA
  0 C      6.2625     6.0000    -0.2625     3.9695     3.9695     0.0000
  1 C      6.1996     6.0000    -0.1996     4.2356     4.2356     0.0000
  2 C      6.2514     6.0000    -0.2514     3.9784     3.9784    -0.0000
  3 C      6.0156     6.0000    -0.0156     3.8110     3.8110     0.0000
  4 C      6.1099     6.0000    -0.1099     4.2048     4.2048     0.0000
  5 C      6.0794     6.0000    -0.0794     3.9524     3.9524    -0.0000
  6 N      7.0402     7.0000    -0.0402     3.2245     3.2245     0.0000
  7 C      6.0609     6.0000    -0.0609     3.9760     3.9760     0.0000
  8 C      6.0477     6.0000    -0.0477     3.9705     3.9705     0.0000
  9 N      7.0456     7.0000    -0.0456     3.2166     3.2166     0.0000
 10 H      0.8974     1.0000     0.1026     0.9559     0.9559     0.0000
 11 H      0.9011     1.0000     0.0989     0.9616     0.9616     0.0000
 12 H      0.8897     1.0000     0.1103     0.9608     0.9608     0.0000
 13 H      0.9077     1.0000     0.0923     0.9427     0.9427     0.0000
 14 H      0.8903     1.0000     0.1097     0.9524     0.9524     0.0000
 15 H      0.8999     1.0000     0.1001     0.9570     0.9570     0.0000
 16 H      0.9012     1.0000     0.0988     0.9591     0.9591     0.0000
 17 H      0.9017     1.0000     0.0983     0.9612     0.9612    -0.0000
 18 H      0.9170     1.0000     0.0830     1.0039     1.0039     0.0000
 19 H      0.9309     1.0000     0.0691     0.9780     0.9780     0.0000
 20 H      0.9246     1.0000     0.0754     0.9582     0.9582     0.0000
 21 H      0.9255     1.0000     0.0745     0.9576     0.9576    -0.0000

  Mayer bond orders larger than 0.100000
B(  0-C ,  1-C ) :   1.1037 B(  0-C , 10-H ) :   0.9473 B(  0-C , 11-H ) :   0.9460 
B(  0-C , 12-H ) :   0.9447 B(  1-C ,  2-C ) :   1.1204 B(  1-C ,  3-C ) :   1.0176 
B(  1-C , 13-H ) :   0.9178 B(  2-C , 14-H ) :   0.9481 B(  2-C , 15-H ) :   0.9513 
B(  2-C , 16-H ) :   0.9488 B(  3-C ,  4-C ) :   1.0700 B(  3-C , 17-H ) :   0.8906 
B(  3-C , 18-H ) :   0.8957 B(  4-C ,  5-C ) :   1.3237 B(  4-C ,  7-C ) :   0.1031 
B(  4-C ,  9-N ) :   1.5727 B(  5-C ,  6-N ) :   1.5688 B(  5-C , 19-H ) :   0.9411 
B(  6-N ,  7-C ) :   1.5320 B(  7-C ,  8-C ) :   1.3655 B(  7-C , 20-H ) :   0.9474 
B(  8-C ,  9-N ) :   1.5251 B(  8-C , 21-H ) :   0.9457 

-------
TIMINGS
-------

Total SCF time: 0 days 0 hours 0 min 8 sec 

Total time                  ....       8.523 sec
Sum of individual times     ....       8.110 sec  ( 95.2%)

SCF preparation             ....       0.182 sec  (  2.1%)
Fock matrix formation       ....       7.123 sec  ( 83.6%)
  Startup                   ....       0.050 sec  (  0.7% of F)
  Split-RI-J                ....       2.804 sec  ( 39.4% of F)
  XC integration            ....       3.844 sec  ( 54.0% of F)
    XC Preparation          ....       0.000 sec  (  0.0% of XC)
    Basis function eval.    ....       1.331 sec  ( 34.6% of XC)
    Density eval.           ....       0.534 sec  ( 13.9% of XC)
    XC-Functional eval.     ....       0.296 sec  (  7.7% of XC)
    XC-Potential eval.      ....       0.836 sec  ( 21.7% of XC)
Diagonalization             ....       0.000 sec  (  0.0%)
Density matrix formation    ....       0.169 sec  (  2.0%)
Total Energy calculation    ....       0.030 sec  (  0.4%)
Population analysis         ....       0.095 sec  (  1.1%)
Orbital Transformation      ....       0.056 sec  (  0.7%)
Orbital Orthonormalization  ....       0.000 sec  (  0.0%)
DIIS solution               ....       0.369 sec  (  4.3%)
  MO trafo                  ....       0.000 sec  (  0.0 % of DIIS)
  Orb grad                  ....       0.000 sec  (  0.0 % of DIIS)
  Energy W gradient         ....       0.000 sec  (  0.0 % of DIIS)
  DIIS error                ....       0.007 sec  (  2.0 % of DIIS)
  DIIS work                 ....       0.311 sec  ( 84.4 % of DIIS)
  Form Q                    ....       0.000 sec  (  0.0 % of DIIS)
  Form QpQm                 ....       0.000 sec  (  0.0 % of DIIS)
  Exp/Cayley                ....       0.000 sec  (  0.0 % of DIIS)
  Orb update                ....       0.000 sec  (  0.0 % of DIIS)
  Wake-sleep                ....       0.019 sec  (  5.2 % of DIIS)
SOSCF solution              ....       0.087 sec  (  1.0%)
  MO trafo                  ....       0.046 sec  ( 52.4 % of SOSCF)
  Orb grad                  ....       0.001 sec  (  1.6 % of SOSCF)
  Rot update                ....       0.017 sec  ( 19.1 % of SOSCF)
  Step                      ....       0.023 sec  ( 26.7 % of SOSCF)
Finished LeanSCF after   8.6 sec

Maximum memory used throughout the entire LEANSCF-calculation: 15.4 MB


-------------------------------------------------------------------------------
                          DFT DISPERSION CORRECTION                            
                                                                               
                                DFTD4 V3.4.0                                   
-------------------------------------------------------------------------------
The PBE functional is recognized
Active option DFTDOPT                   ...         5   

-------------------------   ----------------
Dispersion correction           -0.021814712
-------------------------   ----------------

------------------   -----------------
gCP correction             0.089994240
------------------   -----------------

-------------------------   --------------------
FINAL SINGLE POINT ENERGY      -420.620716047976
-------------------------   --------------------


------------------------------------------------------------------------------
                              ORCA PROPERTY CALCULATIONS
------------------------------------------------------------------------------

GBWName                                 ... sp.gbw
Number of atoms                         ...     22
Number of basis functions               ...    164
Max core memory                         ...   1024 MB

Electric properties:
Dipole moment                           ... YES
Quadrupole moment                       ...  NO
Static polarizability (Dipole/Dipole)   ...  NO
Static polarizability (Dipole/Quad.)    ...  NO
Static polarizability (Quad./Quad.)     ...  NO
Static polarizability (Velocity)        ...  NO

Atomic electric properties:
Dipole moment                           ...  NO
Quadrupole moment                       ...  NO
Static polarizability                   ...  NO

Choice of electric origin               ... Center of mass
Position of electric origin             ...    -0.000008    -0.000001     0.000001

General magnetic properties:
Magnetizability                         ...  NO

EPR properties:
g-Tensor (aka g-matrix)                 ...  NO
Zero-Field splitting spin-orbit         ...  NO
Zero-field splitting spin-spin          ...  NO
Hyperfine couplings                     ...  NO (   0 nuclei)
Quadrupole couplings                    ...  NO (   0 nuclei)
Contact density                         ...  NO (   0 nuclei)

NMR properties:
Chemical shifts                         ...  NO (   0 nuclei)
Spin-rotation constants                 ...  NO (   0 nuclei)
Spin-spin couplings                     ...  NO (   0 nuclei,    0 pairs)

Choice of magnetic origin               ... GIAO
Position of magnetic origin             ...     0.000000     0.000000     0.000000

Properties with geometric perturbations:
SCF Hessian                             ...  NO
IR spectrum                             ...  NO
VCD spectrum                            ...  NO
X-ray spectroscopy properties:
SCF XES/XAS/RIXS spectra                ...  NO


-------------
DIPOLE MOMENT
-------------

Method             : SCF
Type of density    : Electron Density
Multiplicity       :   1
Irrep              :   0
Energy             :  -420.6888955755138682 Eh
Relativity type    : 
Basis              : AO
                                X                 Y                 Z
Electronic contribution:     14.434570925       0.565534501      -1.177061658
Nuclear contribution   :    -14.734523593      -0.530185269       1.156719982
                        -----------------------------------------
Total Dipole Moment    :     -0.299952668       0.035349232      -0.020341676
                        -----------------------------------------
Magnitude (a.u.)       :      0.302712661
Magnitude (Debye)      :      0.769434436



--------------------
Rotational spectrum 
--------------------
 
Rotational constants in cm-1:             0.104233             0.025486             0.021950 
Rotational constants in MHz :          3124.823974           764.052808           658.049544 

Dipole components along the rotational axes: 
x,y,z [a.u.] :    -0.297289     0.056065     0.010540 
x,y,z [Debye]:    -0.755648     0.142506     0.026790 

 

Dipole moment calculation done in   0.0 sec 

Maximum memory used throughout the entire PROP-calculation: 9.8 MB

--------------------------------
SUGGESTED CITATIONS FOR THIS RUN
--------------------------------

Below you find a list of papers that are relevant to this ORCA run
We neither can nor want to force you to cite these papers, but we appreciate if you do
You receive ORCA, which is the product of decades of hard work by many enthusiastic individuals, for free
The only thing we kindly ask in return is that you cite our papers,
We deeply appreciate it, if you show your appreciation for ORCA by not just citing the generic ORCA reference.

Please note that relegating all ORCA citations to the supporting information does *not* help us.
SI sections are not indexed - citations you put there will not count into any citation statistics
But we need these citations in order to attract the funding resources that allow us to do what we are doing

Therefore, if you are a happy ORCA user, please consider citing a few of the papers listed below in the main body of your paper

In addition to the list printed below, the program has created the file sp.bibtex that contains the list in bibtex format
You can import this file easily into all common literature databanks and citation aid programs


List of essential papers. We consider these as the minimum necessary citations

  1. Neese,F.
     Software update: the ORCA program system, version 5.0
     WIRES Comput. Molec. Sci., 2022 12(1)e1606
     doi.org/10.1002/wcms.1606

List of papers to cite with high priority. The work reported in these papers was absolutely
necessary for this run to complete.
Our perspective: the developers of density functionals and basis sets usually get cited in chemistry papers
Good! But without the algorithms to do something with them, the functionals or basis sets would not do anything.
Hence, in our opinion, the algorithm design and method developments papers are equally worthy of getting cited

  1. Neese,F.
     An improvement of the resolution of the identity approximation for the formation of the Coulomb matrix
     J. Comp. Chem., 2003 24(14)1740-1747
     doi.org/10.1002/jcc.10318
  2. Neese,F.
     The SHARK Integral Generation and Digestion System
     J. Comp. Chem., 2022  1-16
     doi.org/10.1002/jcc.26942
  3. Caldeweyher,E.; Bannwarth,C.; Grimme,S.
     Extension of the D3 dispersion coefficient model
     J. Chem. Phys., 2017 147 034112-XXXX
     doi.org/10.1063/1.4993215
  4. Caldeweyher,E.; Ehlert,S.; Hansen,A.; Neugebauer,H.; Spicher,S.; Bannwarth,C.; Grimme,S.
     A generally applicable atomic-charge dependent London dispersion correction
     J. Chem. Phys., 2019 150 154122-XXXX
     doi.org/10.1063/1.5090222
  5. Caldeweyher,E.; Mewes,J.; Ehlert,S.; Grimme,S.
     Extension and evaluation of the D4 London-dispersion model for periodic systems
     Phys. Chem. Chem. Phys., 2020 22(16)8499-8512
     doi.org/10.1039/D0CP00502A

List of suggested additional citations. These are papers that are important in the 'surrounding' of 
of this run, or papers that preceded the highly important papers. If you like your results we are grateful for a citation.

  1. Neese,F.
     The ORCA program system
     WIRES Comput. Molec. Sci., 2012 2(1)73-78
     doi.org/10.1002/wcms.81
  2. Neese,F.
     Software update: the ORCA program system, version 4.0
     WIRES Comput. Molec. Sci., 2018 8(1)1-6
     doi.org/10.1002/wcms.1327
  3. Neese,F.; Wennmohs,F.; Becker,U.; Riplinger,C.
     The ORCA quantum chemistry program package
     J. Chem. Phys., 2020 152 Art. No. L224108
     doi.org/10.1063/5.0004608

List of optional additional citations

  1. Neese,F.
     Approximate second-order SCF convergence for spin unrestricted wavefunctions
     Chem. Phys. Lett., 2000 325(1-3)93-98
     doi.org/10.1016/s0009-2614(00)00662-x

Timings for individual modules:

Sum of individual times          ...       10.622 sec (=   0.177 min)
Startup calculation              ...        0.928 sec (=   0.015 min)   8.7 %
SCF iterations                   ...        9.577 sec (=   0.160 min)  90.2 %
Property calculations            ...        0.117 sec (=   0.002 min)   1.1 %
                             ****ORCA TERMINATED NORMALLY****
TOTAL RUN TIME: 0 days 0 hours 0 minutes 11 seconds 422 msec
