      -----------------------------------------------------------      
     |                   =====================                   |     
     |                           x T B                           |     
     |                   =====================                   |     
     |                         S. Grimme                         |     
     |          Mulliken Center for Theoretical Chemistry        |     
     |                    University of Bonn                     |     
      -----------------------------------------------------------      

   * xtb version 6.7.1 (edcfbbe) compiled by 'albert@albert-system' on 2024-07-22

   xtb is free software: you can redistribute it and/or modify it under
   the terms of the GNU Lesser General Public License as published by
   the Free Software Foundation, either version 3 of the License, or
   (at your option) any later version.
   
   xtb is distributed in the hope that it will be useful,
   but WITHOUT ANY WARRANTY; without even the implied warranty of
   MERCHANTABILITY or FITNESS FOR A PARTICULAR PURPOSE.  See the
   GNU Lesser General Public License for more details.
   
   Cite this work as:
   * C. Bannwarth, E. Caldeweyher, S. Ehlert, A. Hansen, P. Pracht,
     J. Seibert, S. Spicher, S. Grimme, WIREs Comput. Mol. Sci., 2020, 11,
     e01493. DOI: 10.1002/wcms.1493
   
   for GFN2-xTB:
   * C. Bannwarth, S. Ehlert and S. Grimme., J. Chem. Theory Comput., 2019,
     15, 1652-1671. DOI: 10.1021/acs.jctc.8b01176
   for GFN1-xTB:
   * S. Grimme, C. Bannwarth, P. Shushkov, J. Chem. Theory Comput., 2017,
     13, 1989-2009. DOI: 10.1021/acs.jctc.7b00118
   for GFN0-xTB:
   * P. Pracht, E. Caldeweyher, S. Ehlert, S. Grimme, ChemRxiv, 2019, preprint.
     DOI: 10.26434/chemrxiv.8326202.v1
   for GFN-FF:
   * S. Spicher and S. Grimme, Angew. Chem. Int. Ed., 2020, 59, 15665-15673.
     DOI: 10.1002/anie.202004239
   
   for ALPB and GBSA implicit solvation:
   * S. Ehlert, M. Stahn, S. Spicher, S. Grimme, J. Chem. Theory Comput.,
     2021, 17, 4250-4261. DOI: 10.1021/acs.jctc.1c00471
   
   for ddCOSMO and CPCM-X implicit solvation:
   * M. Stahn, S. Ehlert, S. Grimme, J. Phys. Chem. A,
     2023, XX, XXXX-XXXX. DOI: 10.1021/acs.jpca.3c04382
   
   for DFT-D4:
   * E. Caldeweyher, C. Bannwarth and S. Grimme, J. Chem. Phys., 2017,
     147, 034112. DOI: 10.1063/1.4993215
   * E. Caldeweyher, S. Ehlert, A. Hansen, H. Neugebauer, S. Spicher,
     C. Bannwarth and S. Grimme, J. Chem. Phys., 2019, 150, 154122.
     DOI: 10.1063/1.5090222
   * E. Caldeweyher, J.-M. Mewes, S. Ehlert and S. Grimme, Phys. Chem. Chem. Phys.
     2020, 22, 8499-8512. DOI: 10.1039/D0CP00502A
   
   for sTDA-xTB:
   * S. Grimme and C. Bannwarth, J. Chem. Phys., 2016, 145, 054103.
     DOI: 10.1063/1.4959605
   
   in the mass-spec context:
   * V. Asgeirsson, C. Bauer and S. Grimme, Chem. Sci., 2017, 8, 4879.
     DOI: 10.1039/c7sc00601b
   * J. Koopman and S. Grimme, ACS Omega 2019, 4, 12, 15120-15133.
     DOI: 10.1021/acsomega.9b02011
   
   for metadynamics refer to:
   * S. Grimme, J. Chem. Theory Comput., 2019, 155, 2847-2862
     DOI: 10.1021/acs.jctc.9b00143
   
   for SPH calculations refer to:
   * S. Spicher and S. Grimme, J. Chem. Theory Comput., 2021, 17, 1701-1714
     DOI: 10.1021/acs.jctc.0c01306
   
   for ONIOM refer to:
   * C. Plett, A. Katbashev, S. Ehlert, S. Grimme, M. Bursch,
     Phys. Chem. Chem. Phys., 2023, 25, 17860-17868. DOI: 10.1039/D3CP02178E
   
   for DIPRO refer to:
   * J. Kohn, N. Gildemeister, S. Grimme, D. Fazzi, A. Hansen,
     J. Chem. Phys., 2023, just accepted.
   
   for PTB refer to:
   * S. Grimme, M. Mueller, A. Hansen, J. Chem. Phys., 2023, 158, 124111.
     DOI: 10.1063/5.0137838
   
   with help from (in alphabetical order)
   P. Atkinson, C. Bannwarth, F. Bohle, G. Brandenburg, E. Caldeweyher
   M. Checinski, S. Dohm, S. Ehlert, S. Ehrlich, I. Gerasimov, C. Hölzer
   A. Katbashev, J. Kohn, J. Koopman, C. Lavigne, S. Lehtola, F. März, M. Müller,
   F. Musil, H. Neugebauer, J. Pisarek, C. Plett, P. Pracht, F. Pultar,
   J. Seibert, P. Shushkov, S. Spicher, M. Stahn, M. Steiner, T. Strunk,
   J. Stückrath, T. Rose, and J. Unsleber
   
 * started run on 2025/04/11 at 11:59:29.185     
   ID    Z sym.   atoms
    1    6 C      1, 3-9, 12
    2    8 O      2, 10, 11
    3    1 H      13-22

           -------------------------------------------------
          |                Calculation Setup                |
           -------------------------------------------------

          program call               : /srv/scratch/z5358697/.xtb/bin/xtb solv.coord --gfn2 --sp --chrg 0 --norestart --parallel 1 --alpb water reference -I xtb_sp-xcontrol-inp
          hostname                   : k121
          coordinate file            : solv.coord
          omp threads                :                     1


           -------------------------------------------------
          |                 G F N 2 - x T B                 |
           -------------------------------------------------

        Reference                      10.1021/acs.jctc.8b01176
      * Hamiltonian:
        H0-scaling (s, p, d)           1.850000    2.230000    2.230000
        zeta-weighting                 0.500000
      * Dispersion:
        s8                             2.700000
        a1                             0.520000
        a2                             5.000000
        s9                             5.000000
      * Repulsion:
        kExp                           1.500000    1.000000
        rExp                           1.000000
      * Coulomb:
        alpha                          2.000000
        third order                    shell-resolved
        anisotropic                    true
        a3                             3.000000
        a5                             4.000000
        cn-shift                       1.200000
        cn-exp                         4.000000
        max-rad                        5.000000

      * Solvation model:               ALPB
        Solvent                        water
        Parameter file                 internal GFN2-xTB/ALPB
        Dielectric constant                8.0200E+01
        Reference state                gsolv=reference [X=1]
        Free energy shift                  2.8945E-03 Eh       1.8164E+00 kcal/mol
        Temperature                        2.9815E+02 K
        Density                            1.0000E+00 kg/L
        Solvent mass                       1.8000E+01 g/mol
        Interaction kernel             P16
        Born radius scaling (c1)           1.4744E+00
        Born radii integrator          GBOBC
        Born offset                        0.0000E+00 a0       0.0000E+00 AA
        H-bond correction              true
        Ion screening                  false
        Surface tension                    1.0000E-05 Eh       1.5569E+01 dyn/cm
        Grid points                               974 per atom

          ...................................................
          :                      SETUP                      :
          :.................................................:
          :  # basis functions                  58          :
          :  # atomic orbitals                  58          :
          :  # shells                           34          :
          :  # electrons                        64          :
          :  max. iterations                   250          :
          :  Hamiltonian                  GFN2-xTB          :
          :  restarted?                      false          :
          :  GBSA solvation                   true          :
          :  PC potential                    false          :
          :  electronic temp.          300.0000000     K    :
          :  accuracy                    1.0000000          :
          :  -> integral cutoff          0.2500000E+02      :
          :  -> integral neglect         0.1000000E-07      :
          :  -> SCF convergence          0.1000000E-05 Eh   :
          :  -> wf. convergence          0.1000000E-03 e    :
          :  Broyden damping             0.4000000          :
          :  net charge                          0          :
          :  unpaired electrons                  0          :
          ...................................................

 iter      E             dE          RMSdq      gap      omega  full diag
   1    -36.9885078 -0.369885E+02  0.531E+00    3.43       0.0  T
   2    -37.0395538 -0.510460E-01  0.288E+00    3.14       1.0  T
   3    -37.0377383  0.181552E-02  0.118E+00    3.39       1.0  T
   4    -37.0436622 -0.592392E-02  0.282E-01    3.28       1.0  T
   5    -37.0443344 -0.672189E-03  0.918E-02    3.28       1.0  T
   6    -37.0443680 -0.335297E-04  0.505E-02    3.27       1.0  T
   7    -37.0443724 -0.447134E-05  0.153E-02    3.27       1.4  T
   8    -37.0443736 -0.117257E-05  0.545E-03    3.27       3.9  T
   9    -37.0443738 -0.245819E-06  0.268E-03    3.27       8.0  T
  10    -37.0443739 -0.230557E-07  0.115E-03    3.27      18.6  T
  11    -37.0443739 -0.336155E-08  0.366E-04    3.27      58.2  T
  12    -37.0443739 -0.128113E-08  0.154E-04    3.27     138.3  T

   *** convergence criteria satisfied after 12 iterations ***

         #    Occupation            Energy/Eh            Energy/eV
      -------------------------------------------------------------
         1        2.0000           -0.7469951             -20.3268
       ...           ...                  ...                  ...
        26        2.0000           -0.4612458             -12.5511
        27        2.0000           -0.4572186             -12.4416
        28        2.0000           -0.4496617             -12.2359
        29        2.0000           -0.4287473             -11.6668
        30        2.0000           -0.4212166             -11.4619
        31        2.0000           -0.4192206             -11.4076
        32        2.0000           -0.3932417             -10.7007 (HOMO)
        33                         -0.2730807              -7.4309 (LUMO)
        34                         -0.2348793              -6.3914
        35                         -0.1868409              -5.0842
        36                         -0.0905769              -2.4647
        37                          0.0092874               0.2527
       ...                                ...                  ...
        58                          0.6764698              18.4077
      -------------------------------------------------------------
                  HL-Gap            0.1201610 Eh            3.2697 eV
             Fermi-level           -0.3331612 Eh           -9.0658 eV

 SCC (total)                   0 d,  0 h,  0 min,  0.023 sec
 SCC setup                      ...        0 min,  0.001 sec (  6.234%)
 Dispersion                     ...        0 min,  0.000 sec (  0.797%)
 classical contributions        ...        0 min,  0.000 sec (  0.168%)
 integral evaluation            ...        0 min,  0.002 sec ( 10.600%)
 iterations                     ...        0 min,  0.012 sec ( 50.196%)
 molecular gradient             ...        0 min,  0.007 sec ( 31.121%)
 printout                       ...        0 min,  0.000 sec (  0.789%)

         :::::::::::::::::::::::::::::::::::::::::::::::::::::
         ::                     SUMMARY                     ::
         :::::::::::::::::::::::::::::::::::::::::::::::::::::
         :: total energy             -36.575915228339 Eh    ::
         :: total w/o Gsasa/hb       -36.577166483229 Eh    ::
         :: gradient norm              0.000072983230 Eh/a0 ::
         :: HOMO-LUMO gap              3.269746151586 eV    ::
         ::.................................................::
         :: SCC energy               -37.044449129741 Eh    ::
         :: -> isotropic ES            0.074703990953 Eh    ::
         :: -> anisotropic ES         -0.000221898755 Eh    ::
         :: -> anisotropic XC          0.008995663640 Eh    ::
         :: -> dispersion             -0.017510007012 Eh    ::
         :: -> Gsolv                  -0.011016539483 Eh    ::
         ::    -> Gelec               -0.012267794372 Eh    ::
         ::    -> Gsasa                0.001174954386 Eh    ::
         ::    -> Ghb                 -0.002818248656 Eh    ::
         ::    -> Gshift               0.002894549160 Eh    ::
         :: repulsion energy           0.468533901402 Eh    ::
         :: add. restraining           0.000000000000 Eh    ::
         :: total charge              -0.000000000000 e     ::
         :::::::::::::::::::::::::::::::::::::::::::::::::::::

           -------------------------------------------------
          |                Property Printout                |
           -------------------------------------------------

    * Orbital Energies and Occupations

         #    Occupation            Energy/Eh            Energy/eV
      -------------------------------------------------------------
         1        2.0000           -0.7469951             -20.3268
       ...           ...                  ...                  ...
        20        2.0000           -0.5004433             -13.6178
        21        2.0000           -0.4925549             -13.4031
        22        2.0000           -0.4905904             -13.3496
        23        2.0000           -0.4864747             -13.2376
        24        2.0000           -0.4769655             -12.9789
        25        2.0000           -0.4693966             -12.7729
        26        2.0000           -0.4612458             -12.5511
        27        2.0000           -0.4572186             -12.4416
        28        2.0000           -0.4496617             -12.2359
        29        2.0000           -0.4287473             -11.6668
        30        2.0000           -0.4212166             -11.4619
        31        2.0000           -0.4192206             -11.4076
        32        2.0000           -0.3932417             -10.7007 (HOMO)
        33                         -0.2730807              -7.4309 (LUMO)
        34                         -0.2348793              -6.3914
        35                         -0.1868409              -5.0842
        36                         -0.0905769              -2.4647
        37                          0.0092874               0.2527
        38                          0.0196684               0.5352
        39                          0.1099982               2.9932
        40                          0.1191519               3.2423
        41                          0.1355209               3.6877
        42                          0.1391260               3.7858
        43                          0.1572026               4.2777
       ...                                ...                  ...
        58                          0.6764698              18.4077
      -------------------------------------------------------------
                  HL-Gap            0.1201610 Eh            3.2697 eV
             Fermi-level           -0.3331612 Eh           -9.0658 eV

     #   Z          covCN         q      C6AA      α(0)
     1   6 C        3.642     0.011    20.751     6.550
     2   8 O        1.705    -0.274    18.550     5.815
     3   6 C        2.864     0.157    24.603     8.130
     4   6 C        2.918    -0.058    29.447     8.899
     5   6 C        2.919    -0.026    28.652     8.778
     6   6 C        2.971    -0.038    28.949     8.826
     7   6 C        2.925    -0.023    28.576     8.766
     8   6 C        2.914    -0.067    29.676     8.933
     9   6 C        2.727     0.353    21.009     7.504
    10   8 O        0.856    -0.503    23.844     6.547
    11   8 O        1.704    -0.276    18.573     5.819
    12   6 C        3.651     0.015    20.637     6.525
    13   1 H        0.925     0.090     1.875     2.141
    14   1 H        0.924     0.064     2.156     2.296
    15   1 H        0.924     0.064     2.156     2.296
    16   1 H        0.926     0.072     2.060     2.244
    17   1 H        0.926     0.070     2.091     2.261
    18   1 H        0.926     0.060     2.199     2.319
    19   1 H        0.926     0.066     2.127     2.281
    20   1 H        0.925     0.100     1.784     2.089
    21   1 H        0.924     0.072     2.064     2.247
    22   1 H        0.924     0.072     2.063     2.246

 Mol. C6AA /au·bohr⁶  :       5363.779235
 Mol. C8AA /au·bohr⁸  :     125893.974035
 Mol. α(0) /au        :        113.511227


Wiberg/Mayer (AO) data.
largest (>0.10) Wiberg bond orders for each atom

 ---------------------------------------------------------------------------
     #   Z sym  total        # sym  WBO       # sym  WBO       # sym  WBO
 ---------------------------------------------------------------------------
     1   6 C    3.921 --    13 H    0.976    14 H    0.976    15 H    0.976
                             2 O    0.963
     2   8 O    2.245 --     3 C    1.099     1 C    0.963
     3   6 C    3.938 --     8 C    1.352     4 C    1.323     2 O    1.099
     4   6 C    3.986 --     5 C    1.505     3 C    1.323    16 H    0.965
     5   6 C    3.988 --     4 C    1.505     6 C    1.348    17 H    0.965
     6   6 C    3.983 --     7 C    1.374     5 C    1.348     9 C    1.035
     7   6 C    3.988 --     8 C    1.470     6 C    1.374    18 H    0.966
     8   6 C    3.986 --     7 C    1.470     3 C    1.352    19 H    0.963
     9   6 C    3.906 --    10 O    1.651    11 O    1.136     6 C    1.035
    10   8 O    1.947 --     9 C    1.651    11 O    0.159
    11   8 O    2.298 --     9 C    1.136    12 C    0.944    10 O    0.159
    12   6 C    3.907 --    20 H    0.977    21 H    0.976    22 H    0.976
                            11 O    0.944
    13   1 H    0.991 --     1 C    0.976
    14   1 H    0.995 --     1 C    0.976
    15   1 H    0.995 --     1 C    0.976
    16   1 H    0.994 --     4 C    0.965
    17   1 H    0.994 --     5 C    0.965
    18   1 H    0.996 --     7 C    0.966
    19   1 H    0.995 --     8 C    0.963
    20   1 H    0.990 --    12 C    0.977
    21   1 H    0.994 --    12 C    0.976
    22   1 H    0.994 --    12 C    0.976
 ---------------------------------------------------------------------------

Topologies differ in total number of bonds
Writing topology from bond orders to xtbtopo.mol

molecular dipole:
                 x           y           z       tot (Debye)
 q only:       -1.275      -0.701       0.002
   full:       -1.204      -0.584       0.002       3.402
molecular quadrupole (traceless):
                xx          xy          yy          xz          yz          zz
 q only:       14.756     -16.130      -7.730       0.018       0.010      -7.026
  q+dip:       13.000     -16.457      -6.290       0.011       0.019      -6.710
   full:       12.683     -16.943      -8.216       0.013       0.016      -4.467


           -------------------------------------------------
          | TOTAL ENERGY              -36.575915228339 Eh   |
          | GRADIENT NORM               0.000072983230 Eh/α |
          | HOMO-LUMO GAP               3.269746151586 eV   |
           -------------------------------------------------

------------------------------------------------------------------------
 * finished run on 2025/04/11 at 11:59:29.249     
------------------------------------------------------------------------
 total:
 * wall-time:     0 d,  0 h,  0 min,  0.063 sec
 *  cpu-time:     0 d,  0 h,  0 min,  0.035 sec
 * ratio c/w:     0.551 speedup
 SCF:
 * wall-time:     0 d,  0 h,  0 min,  0.024 sec
 *  cpu-time:     0 d,  0 h,  0 min,  0.023 sec
 * ratio c/w:     0.991 speedup

