
                                 *****************
                                 * O   R   C   A *
                                 *****************

                                            #,                                       
                                            ###                                      
                                            ####                                     
                                            #####                                    
                                            ######                                   
                                           ########,                                 
                                     ,,################,,,,,                         
                               ,,#################################,,                 
                          ,,##########################################,,             
                       ,#########################################, ''#####,          
                    ,#############################################,,   '####,        
                  ,##################################################,,,,####,       
                ,###########''''           ''''###############################       
              ,#####''   ,,,,##########,,,,          '''####'''          '####       
            ,##' ,,,,###########################,,,                        '##       
           ' ,,###''''                  '''############,,,                           
         ,,##''                                '''############,,,,        ,,,,,,###''
      ,#''                                            '''#######################'''  
     '                                                          ''''####''''         
             ,#######,   #######,   ,#######,      ##                                
            ,#'     '#,  ##    ##  ,#'     '#,    #''#        ,####,   ,####,        
            ##       ##  ##   ,#'  ##            #'  '#       #'       #'  '#        
            ##       ##  #######   ##           ,######,      #####,   #    #        
            '#,     ,#'  ##    ##  '#,     ,#' ,#      #,     #,   #   #,  ,#        
             '#######'   ##     ##  '#######'  #'      '#     '####' # '####'        



                #########################################################
                #                        -***-                          #
                #          Department of theory and spectroscopy        #
                #                                                       #
                #                      Frank Neese                      #
                #                                                       #
                #     Directorship, Architecture, Infrastructure        #
                #                    SHARK, DRIVERS                     #
                #        Core code/Algorithms in most modules           #
                #                                                       #
                #        Max Planck Institute fuer Kohlenforschung      #
                #                Kaiser Wilhelm Platz 1                 #
                #                 D-45470 Muelheim/Ruhr                 #
                #                      Germany                          #
                #                                                       #
                #                  All rights reserved                  #
                #                        -***-                          #
                #########################################################


                         Program Version 6.0.0  -   RELEASE  -


 With contributions from (in alphabetic order):
   Daniel Aravena         : Magnetic Suceptibility
   Michael Atanasov       : Ab Initio Ligand Field Theory (pilot matlab implementation)
   Alexander A. Auer      : GIAO ZORA, VPT2 properties, NMR spectrum
   Ute Becker             : All parallelization in ORCA, NUMFREQ, NUMCALC
   Giovanni Bistoni       : ED, misc. LED, open-shell LED, HFLD
   Martin Brehm           : Molecular dynamics
   Dmytro Bykov           : pre 5.0 version of the SCF Hessian
   Marcos Casanova-Páez   : Triplet and SCS-CIS(D). UHF-(DLPNO)-IP/EA/STEOM-CCSD. UHF-CVS-IP/STEOM-CCSD
   Vijay G. Chilkuri      : MRCI spin determinant printing, contributions to CSF-ICE
   Pauline Colinet        : FMM embedding
   Dipayan Datta          : RHF DLPNO-CCSD density
   Achintya Kumar Dutta   : EOM-CC, STEOM-CC
   Nicolas Foglia         : Exact transition moments, OPA infrastructure, MCD improvements
   Dmitry Ganyushin       : Spin-Orbit,Spin-Spin,Magnetic field MRCI
   Miquel Garcia          : C-PCM and meta-GGA Hessian, CCSD/C-PCM, Gaussian charge scheme
   Tiago L. C. Gouveia    : GS-ROHF, GS-ROCIS
   Yang Guo               : DLPNO-NEVPT2, F12-NEVPT2, CIM, IAO-localization
   Andreas Hansen         : Spin unrestricted coupled pair/coupled cluster methods
   Ingolf Harden          : AUTO-CI MPn and infrastructure 
   Benjamin Helmich-Paris : MC-RPA, TRAH-(SCF,CASSCF), AVAS, COSX integrals, SCF dyn. polar.
   Lee Huntington         : MR-EOM, pCC
   Robert Izsak           : Overlap fitted RIJCOSX, COSX-SCS-MP3, EOM
   Riya Kayal             : Wick's Theorem for AUTO-CI, AUTO-CI UHF-CCSDT
   Emily Kempfer          : AUTO-CI, RHF CISDT and CCSDT
   Christian Kollmar      : KDIIS, OOCD, Brueckner-CCSD(T), CCSD density, CASPT2, CASPT2-K, improved NEVPT2
   Axel Koslowski         : Symmetry handling
   Simone Kossmann        : Meta GGA functionals, TD-DFT gradient, OOMP2, (MP2 Hessian; deprecated post 5.0)
   Lucas Lang             : DCDCAS
   Marvin Lechner         : AUTO-CI (C++ implementation), FIC-MRCC
   Spencer Leger          : CASSCF response
   Dagmar Lenk            : GEPOL surface, SMD, ORCA-2-JSON
   Dimitrios Liakos       : Extrapolation schemes; Compound Job, initial MDCI parallelization
   Dimitrios Manganas     : Further ROCIS development; embedding schemes. LFT, Crystal Embedding
   Dimitrios Pantazis     : SARC Basis sets
   Anastasios Papadopoulos: AUTO-CI, single reference methods and gradients
   Taras Petrenko         : pre 6.0 DFT Hessian and TD-DFT gradient, (ASA, deprecated), ECA, 1-Electron XAS/XES, NRVS
   Peter Pinski           : DLPNO-MP2, DLPNO-MP2 Gradient
   Christoph Reimann      : Effective Core Potentials
   Marius Retegan         : Local ZFS, SOC
   Christoph Riplinger    : Optimizer, TS searches, QM/MM, DLPNO-CCSD(T), (RO)-DLPNO pert. Triples
   Michael Roemelt        : Original ROCIS implementation
   Masaaki Saitow         : Open-shell DLPNO-CCSD energy and density
   Barbara Sandhoefer     : DKH picture change effects
   Kantharuban Sivalingam : CASSCF convergence/infrastructure, NEVPT2 and variants, FIC-MRCI
   Bernardo de Souza      : ESD, SOC TD-DFT
   Georgi Stoychev        : AutoAux, RI-MP2 NMR, DLPNO-MP2 response, X2C
   Van Anh Tran           : RI-MP2 g-tensors
   Willem Van den Heuvel  : Paramagnetic NMR
   Zikuan Wang            : NOTCH, Electric field optimization 
   Frank Wennmohs         : Technical directorship and infrastructure
   Hang Xu                : AUTO-CI-Response properties 


 We gratefully acknowledge several colleagues who have allowed us to
 interface, adapt or use parts of their codes:
   Stefan Grimme, W. Hujo, H. Kruse, P. Pracht,  : VdW corrections, initial TS optimization,
                  C. Bannwarth, S. Ehlert,         DFT functionals, gCP, sTDA/sTD-DF
                  L. Wittmann, M. Mueller
   Ed Valeev, F. Pavosevic, A. Kumar             : LibInt (2-el integral package), F12 methods
   Garnet Chan, S. Sharma, J. Yang, R. Olivares  : DMRG
   Ulf Ekstrom                                   : XCFun DFT Library
   Mihaly Kallay                                 : mrcc  (arbitrary order and MRCC methods)
   Frank Weinhold                                : gennbo (NPA and NBO analysis)
   Simon Mueller                                 : openCOSMO-RS
   Christopher J. Cramer and Donald G. Truhlar   : smd solvation model
   Lars Goerigk                                  : TD-DFT with DH, B97 family of functionals
   V. Asgeirsson, H. Jonsson                     : NEB implementation
   FAccTs GmbH                                   : IRC, NEB, NEB-TS, DLPNO-Multilevel, CI-OPT
                                                   MM, QMMM, 2- and 3-layer-ONIOM, Crystal-QMMM,
                                                   LR-CPCM, SF, NACMEs, symmetry and pop. for TD-DFT,
                                                   nearIR, NL-DFT gradient (VV10), updates on ESD,
                                                   ML-optimized integration grids, MBIS, APM,
                                                   GOAT, DOCKER, SOLVATOR, interface openCOSMO-RS
   S Lehtola, MJT Oliveira, MAL Marques          : LibXC Library
   Liviu Ungur et al                             : ANISO software


 Your calculation uses the libint2 library for the computation of 2-el integrals
 For citations please refer to: http://libint.valeyev.net

 Your ORCA version has been built with support for libXC version: 6.2.2
 For citations please refer to: https://libxc.gitlab.io

 This ORCA versions uses:
   CBLAS   interface :  Fast vector & matrix operations
   LAPACKE interface :  Fast linear algebra routines
   SCALAPACK package :  Parallel linear algebra routines
   Shared memory     :  Shared parallel matrices
   BLAS/LAPACK       :  OpenBLAS 0.3.27  USE64BITINT DYNAMIC_ARCH NO_AFFINITY SkylakeX SINGLE_THREADED
        Core in use  :  SkylakeX
   Copyright (c) 2011-2014, The OpenBLAS Project


Your calculation utilizes the geometrical counterpoise correction gCP
Please cite in your paper:
H.Kruse, S. Grimme J.Chem.Phys., 136, (2012), 154101 
   

Your calculation utilizes the atom-pairwise dispersion correction
based on EEQ partial charges (D4)


================================================================================

----- Orbital basis set information -----
Your calculation utilizes the basis: def2-mTZVPP
   Stefan Grimme, Andreas Hansen, Sebastian Ehlert, and Jan-Michael Mewes 
   J. Chem. Phys. 154, 064103 (2021). DOI: 10.1063/5.0040021

----- AuxJ basis set information -----
Your calculation utilizes the auxiliary basis: def2/J
   F. Weigend, Phys. Chem. Chem. Phys. 8, 1057 (2006).

================================================================================
                                        WARNINGS
                       Please study these warnings very carefully!
================================================================================

Using LibXC functional ID 497 : Re-regularized SCAN exchange by Furness et al
[ 1]  J. W. Furness, A. D. Kaplan, J. Ning, J. P. Perdew, and J. Sun.,  J. Phys. Chem. Lett. 11, 8208-8215 (2020)
[ 2]  J. W. Furness, A. D. Kaplan, J. Ning, J. P. Perdew, and J. Sun.,  J. Phys. Chem. Lett. 11, 9248-9248 (2020)
Using LibXC functional ID 498 : Re-regularized SCAN correlation by Furness et al
[ 1]  J. W. Furness, A. D. Kaplan, J. Ning, J. P. Perdew, and J. Sun.,  J. Phys. Chem. Lett. 11, 8208-8215 (2020)
[ 2]  J. W. Furness, A. D. Kaplan, J. Ning, J. P. Perdew, and J. Sun.,  J. Phys. Chem. Lett. 11, 9248-9248 (2020)
Using LibXC functional ID 497 : Re-regularized SCAN exchange by Furness et al
[ 1]  J. W. Furness, A. D. Kaplan, J. Ning, J. P. Perdew, and J. Sun.,  J. Phys. Chem. Lett. 11, 8208-8215 (2020)
[ 2]  J. W. Furness, A. D. Kaplan, J. Ning, J. P. Perdew, and J. Sun.,  J. Phys. Chem. Lett. 11, 9248-9248 (2020)
Using LibXC functional ID 498 : Re-regularized SCAN correlation by Furness et al
[ 1]  J. W. Furness, A. D. Kaplan, J. Ning, J. P. Perdew, and J. Sun.,  J. Phys. Chem. Lett. 11, 8208-8215 (2020)
[ 2]  J. W. Furness, A. D. Kaplan, J. Ning, J. P. Perdew, and J. Sun.,  J. Phys. Chem. Lett. 11, 9248-9248 (2020)

================================================================================
                                       INPUT FILE
================================================================================
NAME = sp_gas.inp
|  1> ! r2scan-3c def2/J RI DEFGRID2 scfconv6 printgap
|  2> %output
|  3>     printlevel normal
|  4> end
|  5> * xyz 0 1
|  6> C -2.4775044254 0.9695888951 -0.3457441441
|  7> C -1.7735962097 0.0729474234 0.6771474815
|  8> C -0.517670546 -0.4902957743 0.063938698
|  9> O -0.4289933368 -1.5885389343 -0.4473697091
| 10> O 0.4811856693 0.3765036748 0.1244390601
| 11> C 1.7541161973 0.0197630384 -0.4410908878
| 12> C 2.8535822753 0.6150248148 0.4198968766
| 13> H -1.8325701938 1.7982397612 -0.6261205156
| 14> H -2.7262483045 0.4005752693 -1.2384774166
| 15> H -3.3930463977 1.3651951745 0.0832926674
| 16> H -2.4212813995 -0.7563699528 0.9586096904
| 17> H -1.5046385056 0.657234313 1.5559172861
| 18> H 1.8182225714 -1.0718882038 -0.4903951507
| 19> H 1.7866027674 0.4226545071 -1.4577969599
| 20> H 2.7364634626 1.6931725807 0.476280786
| 21> H 2.8093879498 0.2043977403 1.424753047
| 22> H 3.8180876077 0.3809835205 -0.0185322251
| 23> *
| 24> 
| 25>                          ****END OF INPUT****
================================================================================

                       ****************************
                       * Single Point Calculation *
                       ****************************

---------------------------------
CARTESIAN COORDINATES (ANGSTROEM)
---------------------------------
  C     -2.477504    0.969589   -0.345744
  C     -1.773596    0.072947    0.677147
  C     -0.517671   -0.490296    0.063939
  O     -0.428993   -1.588539   -0.447370
  O      0.481186    0.376504    0.124439
  C      1.754116    0.019763   -0.441091
  C      2.853582    0.615025    0.419897
  H     -1.832570    1.798240   -0.626121
  H     -2.726248    0.400575   -1.238477
  H     -3.393046    1.365195    0.083293
  H     -2.421281   -0.756370    0.958610
  H     -1.504639    0.657234    1.555917
  H      1.818223   -1.071888   -0.490395
  H      1.786603    0.422655   -1.457797
  H      2.736463    1.693173    0.476281
  H      2.809388    0.204398    1.424753
  H      3.818088    0.380984   -0.018532

----------------------------
CARTESIAN COORDINATES (A.U.)
----------------------------
  NO LB      ZA    FRAG     MASS         X           Y           Z
   0 C     6.0000    0    12.011   -4.681805    1.832257   -0.653362
   1 C     6.0000    0    12.011   -3.351611    0.137851    1.279623
   2 C     6.0000    0    12.011   -0.978256   -0.926525    0.120827
   3 O     8.0000    0    15.999   -0.810680   -3.001904   -0.845406
   4 O     8.0000    0    15.999    0.909309    0.711489    0.235156
   5 C     6.0000    0    12.011    3.314799    0.037347   -0.833541
   6 C     6.0000    0    12.011    5.392489    1.162228    0.793490
   7 H     1.0000    0     1.008   -3.463056    3.398181   -1.183196
   8 H     1.0000    0     1.008   -5.151863    0.756978   -2.340383
   9 H     1.0000    0     1.008   -6.411928    2.579845    0.157400
  10 H     1.0000    0     1.008   -4.575559   -1.429332    1.811510
  11 H     1.0000    0     1.008   -2.843355    1.241993    2.940258
  12 H     1.0000    0     1.008    3.435943   -2.025575   -0.926713
  13 H     1.0000    0     1.008    3.376190    0.798701   -2.754837
  14 H     1.0000    0     1.008    5.171167    3.199632    0.900040
  15 H     1.0000    0     1.008    5.308974    0.386256    2.692393
  16 H     1.0000    0     1.008    7.215140    0.719955   -0.035021

--------------------------------
INTERNAL COORDINATES (ANGSTROEM)
--------------------------------
 C      0   0   0     0.000000000000     0.00000000     0.00000000
 C      1   0   0     1.531587406133     0.00000000     0.00000000
 C      2   1   0     1.506856723334   109.27498636     0.00000000
 O      3   2   1     1.214676077434   124.75759333   263.07208487
 O      3   2   1     1.323901551331   111.43909764    81.71006890
 C      5   3   2     1.437859566420   119.17776674   181.35160902
 C      6   5   3     1.518045509714   108.71280101   215.56567305
 H      1   2   3     1.086836386340   110.23832026   298.95480276
 H      1   2   3     1.087484583598   110.30780351    59.17933655
 H      1   2   3     1.085722808532   109.69149478   179.00070702
 H      2   1   3     1.089258642652   110.18300510   240.96158292
 H      2   1   3     1.089020562446   109.77520280   119.30416419
 H      6   5   3     1.094642851407   108.48092343   337.55493047
 H      6   5   3     1.094106096242   107.48249169    95.13769118
 H      7   6   5     1.085955140253   109.91597535   301.97098405
 H      7   6   5     1.086417809091   110.29891979    61.97922792
 H      7   6   5     1.085018866602   109.27236178   181.99476257

---------------------------
INTERNAL COORDINATES (A.U.)
---------------------------
 C      0   0   0     0.000000000000     0.00000000     0.00000000
 C      1   0   0     2.894280747754     0.00000000     0.00000000
 C      2   1   0     2.847546530159   109.27498636     0.00000000
 O      3   2   1     2.295405127775   124.75759333   263.07208487
 O      3   2   1     2.501811360290   111.43909764    81.71006890
 C      5   3   2     2.717160799572   119.17776674   181.35160902
 C      6   5   3     2.868690272188   108.71280101   215.56567305
 H      1   2   3     2.053823122564   110.23832026   298.95480276
 H      1   2   3     2.055048037862   110.30780351    59.17933655
 H      1   2   3     2.051718765477   109.69149478   179.00070702
 H      2   1   3     2.058400523619   110.18300510   240.96158292
 H      2   1   3     2.057950617232   109.77520280   119.30416419
 H      6   5   3     2.068575203615   108.48092343   337.55493047
 H      6   5   3     2.067560883350   107.48249169    95.13769118
 H      7   6   5     2.052157808803   109.91597535   301.97098405
 H      7   6   5     2.053032126196   110.29891979    61.97922792
 H      7   6   5     2.050388508016   109.27236178   181.99476257

---------------------
BASIS SET INFORMATION
---------------------
There are 3 groups of distinct atoms

 Group   1 Type C   : 11s6p1d contracted to 5s3p1d pattern {62111/411/1}
 Group   2 Type O   : 11s6p2d contracted to 5s3p2d pattern {62111/411/11}
 Group   3 Type H   : 4s1p contracted to 2s1p pattern {31/1}

Atom   0C    basis set group =>   1
Atom   1C    basis set group =>   1
Atom   2C    basis set group =>   1
Atom   3O    basis set group =>   2
Atom   4O    basis set group =>   2
Atom   5C    basis set group =>   1
Atom   6C    basis set group =>   1
Atom   7H    basis set group =>   3
Atom   8H    basis set group =>   3
Atom   9H    basis set group =>   3
Atom  10H    basis set group =>   3
Atom  11H    basis set group =>   3
Atom  12H    basis set group =>   3
Atom  13H    basis set group =>   3
Atom  14H    basis set group =>   3
Atom  15H    basis set group =>   3
Atom  16H    basis set group =>   3
---------------------------------
AUXILIARY/J BASIS SET INFORMATION
---------------------------------
There are 3 groups of distinct atoms

 Group   1 Type C   : 12s5p4d2f1g contracted to 6s4p3d1f1g pattern {711111/2111/211/2/1}
 Group   2 Type O   : 12s5p4d2f1g contracted to 6s4p3d1f1g pattern {711111/2111/211/2/1}
 Group   3 Type H   : 5s2p1d contracted to 3s1p1d pattern {311/2/1}

Atom   0C    basis set group =>   1
Atom   1C    basis set group =>   1
Atom   2C    basis set group =>   1
Atom   3O    basis set group =>   2
Atom   4O    basis set group =>   2
Atom   5C    basis set group =>   1
Atom   6C    basis set group =>   1
Atom   7H    basis set group =>   3
Atom   8H    basis set group =>   3
Atom   9H    basis set group =>   3
Atom  10H    basis set group =>   3
Atom  11H    basis set group =>   3
Atom  12H    basis set group =>   3
Atom  13H    basis set group =>   3
Atom  14H    basis set group =>   3
Atom  15H    basis set group =>   3
Atom  16H    basis set group =>   3

Checking for AutoStart:
The File: sp_gas.gbw exists
Trying to determine its content:
     ... Fine, the file contains calculation information
     ... Fine, the calculation information was read
     ... Fine, the file contains a basis set
     ... Fine, the basis set was read
     ... Fine, the file contains a geometry
     ... Fine, the geometry was read
     ... Fine, the file contains a set of orbitals
     ... Fine, the orbitals can be read
     => possible old guess file was deleted
     => GBW file was renamed to GES file
     => GES file is set as startup file
     => Guess is set to MORead
     ... now leaving AutoStart

------------------------------------------------------------------------------
                             ORCA STARTUP CALCULATIONS
                           -- RI-GTO INTEGRALS CHOSEN --
------------------------------------------------------------------------------
------------------------------------------------------------------------------
                   ___                                                        
                  /   \      - P O W E R E D   B Y -                         
                 /     \                                                     
                 |  |  |   _    _      __       _____    __    __             
                 |  |  |  | |  | |    /  \     |  _  \  |  |  /  |          
                  \  \/   | |  | |   /    \    | | | |  |  | /  /          
                 / \  \   | |__| |  /  /\  \   | |_| |  |  |/  /          
                |  |  |   |  __  | /  /__\  \  |    /   |      \           
                |  |  |   | |  | | |   __   |  |    \   |  |\   \          
                \     /   | |  | | |  |  |  |  | |\  \  |  | \   \       
                 \___/    |_|  |_| |__|  |__|  |_| \__\ |__|  \__/        
                                                                              
                      - O R C A' S   B I G   F R I E N D -                    
                                      &                                       
                       - I N T E G R A L  F E E D E R -                       
                                                                              
 v1 FN, 2020, v2 2021, v3 2022-2024                                           
------------------------------------------------------------------------------


----------------------
SHARK INTEGRAL PACKAGE
----------------------

Number of atoms                             ...     17
Number of basis functions                   ...    193
Number of shells                            ...     95
Maximum angular momentum                    ...      2
Integral batch strategy                     ... SHARK/LIBINT Hybrid
RI-J (if used) integral strategy            ... SPLIT-RIJ (Revised 2003 algorithm where possible)
Printlevel                                  ...      1
Contraction scheme used                     ... SEGMENTED contraction
Prescreening option                         ... SCHWARTZ
   Thresh                                   ... 1.000e-10
   Tcut                                     ... 1.000e-11
   Tpresel                                  ... 1.000e-11 
Coulomb Range Separation                    ... NOT USED
Exchange Range Separation                   ... NOT USED
Multipole approximations                    ... NOT USED
Finite Nucleus Model                        ... NOT USED
CABS basis                                  ... NOT available
Auxiliary Coulomb fitting basis             ... AVAILABLE
   # of basis functions in Aux-J            ...    453
   # of shells in Aux-J                     ...    155
   Maximum angular momentum in Aux-J        ...      4
Auxiliary J/K fitting basis                 ... NOT available
Auxiliary Correlation fitting basis         ... NOT available
Auxiliary 'external' fitting basis          ... NOT available

Checking pre-screening integrals            ... done (  0.0 sec) Dimension = 95
Check shell pair data                       ... done (  0.0 sec)
Shell pair information
Shell pair cut-off parameter TPreSel        ...   1.0e-11
Total number of shell pairs                 ...      4560
Shell pairs after pre-screening             ...      4046
Total number of primitive shell pairs       ...     16115
Primitive shell pairs kept                  ...     10289
          la=0 lb=0:   1350 shell pairs
          la=1 lb=0:   1503 shell pairs
          la=1 lb=1:    444 shell pairs
          la=2 lb=0:    453 shell pairs
          la=2 lb=1:    252 shell pairs
          la=2 lb=2:     44 shell pairs

Calculating one electron integrals          ... done (  0.0 sec)
Calculating RI/J V-Matrix + Cholesky decomp.... done (  0.1 sec)
Calculating Nuclear repulsion               ... done (  0.0 sec) ENN=    315.509530051215 Eh

Diagonalization of the overlap matrix:
Smallest eigenvalue                        ... 2.341e-04
Time for diagonalization                   ...    0.004 sec
Threshold for overlap eigenvalues          ... 1.000e-07
Number of eigenvalues below threshold      ... 0
Time for construction of square roots      ...    0.013 sec
Total time needed                          ...    0.024 sec

-------------------
DFT GRID GENERATION
-------------------

General Integration Accuracy     IntAcc      ... 4.388
Radial Grid Type                 RadialGrid  ... OptM3 with GC (2021)
Angular Grid (max. ang.)         AngularGrid ... 4 (Lebedev-302)
Angular grid pruning method      GridPruning ... 4 (adaptive)
Weight generation scheme         WeightScheme... mBecke (2022)
Basis function cutoff            BFCut       ... 1.0000e-10
Integration weight cutoff        WCut        ... 1.0000e-14
Partially contracted basis set               ... off
Rotationally invariant grid construction     ... off
Angular grids for H and He will be reduced by one unit
Diffuse basis detected: some atoms will have their outermost
                        angular grid increased by 1.

Total number of grid points                  ...    75160
Total number of batches                      ...     1183
Average number of points per batch           ...       63
Average number of grid points per atom       ...     4421
Initializing property integral containers    ... done (  0.0 sec)

SHARK setup successfully completed in   1.0 seconds

Maximum memory used throughout the entire STARTUP-calculation: 33.6 MB
-------------------------------------------------------------------------------
                                 ORCA GUESS
                   Start orbitals & Density for SCF / CASSCF
-------------------------------------------------------------------------------

------------
SCF SETTINGS
------------
Hamiltonian:
 Density Functional     Method          .... DFT(GTOs)
  Functional kind                       .... Exchange
  Functional name                       .... Re-regularized SCAN exchange by Furness et al
  Functional family                     .... MGGA
  Functional refs                              
    [ 0] J. W. Furness, A. D. Kaplan, J. Ning, J. P. Perdew, and J. Sun.,  J. Phys. Chem. Lett. 11, 8208-8215 (2020), doi: 10.1021/acs.jpclett.0c02405
    [ 1] J. W. Furness, A. D. Kaplan, J. Ning, J. P. Perdew, and J. Sun.,  J. Phys. Chem. Lett. 11, 9248-9248 (2020), doi: 10.1021/acs.jpclett.0c03077
  Functional external parameters        .... 6
    Parameter  0 _c1        =  6.670000e-01 : c1 parameter        
    Parameter  1 _c2        =  8.000000e-01 : c2 parameter        
    Parameter  2 _d         =  1.240000e+00 : d parameter         
    Parameter  3 _k1        =  6.500000e-02 : k1 parameter        
    Parameter  4 _eta       =  1.000000e-03 : eta parameter       
    Parameter  5 _dp2       =  3.610000e-01 : dp2 parameter       
  Functional kind                       .... Correlation
  Functional name                       .... Re-regularized SCAN correlation by Furness et al
  Functional family                     .... MGGA
  Functional refs                              
    [ 0] J. W. Furness, A. D. Kaplan, J. Ning, J. P. Perdew, and J. Sun.,  J. Phys. Chem. Lett. 11, 8208-8215 (2020), doi: 10.1021/acs.jpclett.0c02405
    [ 1] J. W. Furness, A. D. Kaplan, J. Ning, J. P. Perdew, and J. Sun.,  J. Phys. Chem. Lett. 11, 9248-9248 (2020), doi: 10.1021/acs.jpclett.0c03077
  Functional external parameters        .... 1
    Parameter  0 _eta       =  1.000000e-03 : Regularization parameter
 Gradients option       PostSCFGGA      .... off
 RI-approximation to the Coulomb term is turned on
   Number of AuxJ basis functions       .... 453


General Settings:
 Integral files         IntName         .... sp_gas
 Hartree-Fock type      HFTyp           .... RHF
 Total Charge           Charge          ....    0
 Multiplicity           Mult            ....    1
 Number of Electrons    NEL             ....   56
 Basis Dimension        Dim             ....  193
 Nuclear Repulsion      ENuc            ....    315.5095300512 Eh

Convergence Acceleration:
 AO-DIIS                CNVDIIS         .... on
   Start iteration      DIISMaxIt       ....    12
   Startup error        DIISStart       ....  0.200000
   # of expansion vecs  DIISMaxEq       ....     5
   Bias factor          DIISBfac        ....   1.050
   Max. coefficient     DIISMaxC        ....  10.000
 MO-DIIS                CNVKDIIS        .... off
 Trust-Rad. Augm. Hess. CNVTRAH         .... auto
   Auto Start mean grad. ratio tolernc. ....  1.125000
   Auto Start start iteration           ....     1
   Auto Start num. interpolation iter.  ....    10
   Max. Number of Micro iterations      ....    24
   Max. Number of Macro iterations      .... Maxiter - #DIIS iter
   Number of Davidson start vectors     ....     2
   Converg. threshold    (grad. norm)   ....   3.330e-04
   Grad. Scal. Fac. for Micro threshold ....   0.100
   Minimum threshold for Micro iter.    ....   1.000e-02
   NR start threshold (gradient norm)   ....   1.000e-04
   Initial trust radius                 ....   0.400
   Minimum AH scaling param. (alpha)    ....   1.000
   Maximum AH scaling param. (alpha)    .... 1000.000
   Quad. conv. algorithm                .... NR
   White noise on init. David. guess    .... on
   Maximum white noise                  ....   0.010
   Pseudo random numbers                .... off
   Inactive MOs                         .... canonical
   Orbital update algorithm             .... Taylor
   Preconditioner                       .... Diag
   Full preconditioner red. dimension   ....   250
   COSX micro iterations for RIJONX calc.... off
 SOSCF                  CNVSOSCF        .... on
   Start iteration      SOSCFMaxIt      ....   150
   Startup grad/error   SOSCFStart      ....  0.003300
   Hessian update       SOSCFHessUp     .... L-BFGS
 Level Shifting         CNVShift        .... on
   Level shift para.    LevelShift      ....    0.2500
   Turn off err/grad.   ShiftErr        ....    0.0010
 Zerner damping         CNVZerner       .... off
 Static damping         CNVDamp         .... on
   Fraction old density DampFac         ....    0.7000
   Max. Damping (<1)    DampMax         ....    0.9800
   Min. Damping (>=0)   DampMin         ....    0.0000
   Turn off err/grad.   DampErr         ....    0.1000

SCF Procedure:
 Maximum # iterations   MaxIter         ....   125
 SCF integral mode      SCFMode         .... Direct
   Integral package                     .... SHARK and LIBINT hybrid scheme
 Reset frequency        DirectResetFreq ....    20
 Integral Threshold     Thresh          ....  1.000e-10 Eh
 Primitive CutOff       TCut            ....  1.000e-11 Eh

Convergence Tolerance:
 Convergence Check Mode ConvCheckMode   .... Total+1el-Energy
 Convergence forced     ConvForced      .... 0
 Energy Change          TolE            ....  1.000e-06 Eh
 1-El. energy change                    ....  1.000e-03 Eh
 Orbital Gradient       TolG            ....  3.330e-04
 Orbital Rotation angle TolX            ....  3.330e-04
 DIIS Error             TolErr          ....  1.000e-06

---------------------
INITIAL GUESS: MOREAD
---------------------
Guess MOs are being read from file: sp_gas.ges
Input Geometry matches current geometry (good)
Atom 0: N(Shells)= 9 and 6 - projection required
Input basis set needs projection
NBasis(read)= 118
NBasis(calc)= 193
Basis set overlap was calculated
Using GuessMode=FMatrix for the initial guess
C*T matrix was formed
Effective Fockian was calculated
Effective Fockian was diagonalized
Initial density was built
                      ------------------
                      INITIAL GUESS DONE (   0.0 sec)
                      ------------------
             **** ENERGY FILE WAS UPDATED (sp_gas.en.tmp) ****
Finished Guess after   0.2 sec
Maximum memory used throughout the entire GUESS-calculation: 12.9 MB

-------------------------------------------------------------------------------------------
                                      ORCA LEAN-SCF
                              memory conserving SCF solver
-------------------------------------------------------------------------------------------

----------------------------------------D-I-I-S--------------------------------------------
Iteration    Energy (Eh)           Delta-E    RMSDP     MaxDP     DIISErr   Damp  Time(sec)
-------------------------------------------------------------------------------------------
               ***  Starting incremental Fock matrix formation  ***
    1    -346.7665861853287197     0.00e+00  3.56e-03  1.14e-01  6.26e-01  0.700   2.0
    2    -346.8185253676779212    -5.19e-02  2.94e-03  8.38e-02  4.40e-01  0.700   1.9
    3    -346.8552352138708557    -3.67e-02  2.17e-03  5.93e-02  3.08e-01  0.700   1.9
    4    -346.8810065880510365    -2.58e-02  1.56e-03  4.19e-02  2.16e-01  0.700   1.8
                               ***Turning on AO-DIIS***
    5    -346.8990822539587953    -1.81e-02  1.13e-03  3.02e-02  1.51e-01  0.700   1.8
    6    -346.9117518231721533    -1.27e-02  8.02e-04  2.14e-02  1.06e-01  0.700   1.7
    7    -346.9206329241023923    -8.88e-03  5.65e-04  1.50e-02  7.40e-02  0.700   1.8
    8    -346.9268549442041376    -6.22e-03  1.33e-03  3.51e-02  5.19e-02  0.000   1.7
                              *** Initializing SOSCF ***
---------------------------------------S-O-S-C-F--------------------------------------
Iteration    Energy (Eh)           Delta-E    RMSDP     MaxDP     MaxGrad    Time(sec)
--------------------------------------------------------------------------------------
    9    -346.9413911747005841    -1.45e-02  8.11e-06  2.80e-04  8.44e-05     1.8
               *** Restarting incremental Fock matrix formation ***
   10    -346.9413912705072107    -9.58e-08  4.64e-06  8.07e-05  3.12e-05     2.0
                  *** Gradient check signals convergence ***

               *****************************************************
               *                     SUCCESS                       *
               *           SCF CONVERGED AFTER  10 CYCLES          *
               *****************************************************

             **** ENERGY FILE WAS UPDATED (sp_gas.en.tmp) ****

----------------
TOTAL SCF ENERGY
----------------

Total Energy       :       -346.94139127050721 Eh           -9440.75522 eV

Components:
Nuclear Repulsion  :        315.50953005121528 Eh            8585.45079 eV
Electronic Energy  :       -662.45092132172249 Eh          -18026.20600 eV
One Electron Energy:      -1096.30468202159136 Eh          -29831.96703 eV
Two Electron Energy:        433.85376069986887 Eh           11805.76102 eV

Virial components:
Potential Energy   :       -692.47574700523842 Eh          -18843.22305 eV
Kinetic Energy     :        345.53435573473121 Eh            9402.46783 eV
Virial Ratio       :          2.00407205683725

DFT components:
N(Alpha)           :       27.999983115079 electrons
N(Beta)            :       27.999983115079 electrons
N(Total)           :       55.999966230158 electrons
E(X)               :      -46.158109870744 Eh       
E(C)               :       -1.787238527791 Eh       
E(XC)              :      -47.945348398536 Eh       

---------------
SCF CONVERGENCE
---------------

  Last Energy change         ...    9.5807e-08  Tolerance :   1.0000e-06
  Last MAX-Density change    ...    8.0705e-05  Tolerance :   1.0000e-05
  Last RMS-Density change    ...    4.6369e-06  Tolerance :   1.0000e-06
  Last DIIS Error            ...    8.4439e-05  Tolerance :   1.0000e-06
  Last Orbital Gradient      ...    3.1183e-05  Tolerance :   3.3300e-04
  Last Orbital Rotation      ...    1.2148e-04  Tolerance :   3.3300e-04


----------------
ORBITAL ENERGIES
----------------

  NO   OCC          E(Eh)            E(eV) 
   0   2.0000     -18.996456      -516.9199 
   1   2.0000     -18.925597      -514.9917 
   2   2.0000     -10.150532      -276.2100 
   3   2.0000     -10.090681      -274.5814 
   4   2.0000     -10.042883      -273.2807 
   5   2.0000     -10.032167      -272.9891 
   6   2.0000     -10.031657      -272.9753 
   7   2.0000      -1.071137       -29.1471 
   8   2.0000      -0.973434       -26.4885 
   9   2.0000      -0.767016       -20.8716 
  10   2.0000      -0.732865       -19.9423 
  11   2.0000      -0.639528       -17.4025 
  12   2.0000      -0.595049       -16.1921 
  13   2.0000      -0.532589       -14.4925 
  14   2.0000      -0.473432       -12.8828 
  15   2.0000      -0.451657       -12.2902 
  16   2.0000      -0.436849       -11.8873 
  17   2.0000      -0.412272       -11.2185 
  18   2.0000      -0.409274       -11.1369 
  19   2.0000      -0.375694       -10.2232 
  20   2.0000      -0.369132       -10.0446 
  21   2.0000      -0.360431        -9.8078 
  22   2.0000      -0.337973        -9.1967 
  23   2.0000      -0.327865        -8.9217 
  24   2.0000      -0.323810        -8.8113 
  25   2.0000      -0.308687        -8.3998 
  26   2.0000      -0.269849        -7.3430 
  27   2.0000      -0.231909        -6.3106 
  28   0.0000      -0.013090        -0.3562 
  29   0.0000       0.074191         2.0188 
  30   0.0000       0.095172         2.5898 
  31   0.0000       0.118601         3.2273 
  32   0.0000       0.125182         3.4064 
  33   0.0000       0.127623         3.4728 
  34   0.0000       0.146064         3.9746 
  35   0.0000       0.153377         4.1736 
  36   0.0000       0.160049         4.3552 
  37   0.0000       0.169725         4.6184 
  38   0.0000       0.172251         4.6872 
*Only the first 10 virtual orbitals were printed.

                    ********************************
                    * MULLIKEN POPULATION ANALYSIS *
                    ********************************

-----------------------
MULLIKEN ATOMIC CHARGES
-----------------------
   0 C :   -0.472597
   1 C :   -0.294131
   2 C :    0.414968
   3 O :   -0.433064
   4 O :   -0.176434
   5 C :   -0.154875
   6 C :   -0.442964
   7 H :    0.156556
   8 H :    0.158914
   9 H :    0.153378
  10 H :    0.162253
  11 H :    0.151843
  12 H :    0.181639
  13 H :    0.143277
  14 H :    0.152214
  15 H :    0.152374
  16 H :    0.146648
Sum of atomic charges:   -0.0000000

--------------------------------
MULLIKEN REDUCED ORBITAL CHARGES
--------------------------------
  0 C s       :     3.326878  s :     3.326878
      pz      :     1.019721  p :     3.118857
      px      :     1.065961
      py      :     1.033175
      dz2     :     0.004817  d :     0.026862
      dxz     :     0.004976
      dyz     :     0.006984
      dx2y2   :     0.003083
      dxy     :     0.007002

  1 C s       :     3.221409  s :     3.221409
      pz      :     0.996199  p :     3.037885
      px      :     0.986214
      py      :     1.055472
      dz2     :     0.005892  d :     0.034837
      dxz     :     0.007118
      dyz     :     0.007837
      dx2y2   :     0.005163
      dxy     :     0.008828

  2 C s       :     3.126967  s :     3.126967
      pz      :     0.755939  p :     2.332839
      px      :     0.816687
      py      :     0.760213
      dz2     :     0.013496  d :     0.125226
      dxz     :     0.016267
      dyz     :     0.021728
      dx2y2   :     0.028181
      dxy     :     0.045554

  3 O s       :     3.839219  s :     3.839219
      pz      :     1.447929  p :     4.572258
      px      :     1.785914
      py      :     1.338414
      dz2     :     0.004692  d :     0.021586
      dxz     :     0.000653
      dyz     :     0.008347
      dx2y2   :     0.007051
      dxy     :     0.000843

  4 O s       :     3.697679  s :     3.697679
      pz      :     1.690097  p :     4.448386
      px      :     1.145379
      py      :     1.612910
      dz2     :     0.007288  d :     0.030369
      dxz     :     0.011444
      dyz     :     0.005504
      dx2y2   :     0.000332
      dxy     :     0.005801

  5 C s       :     3.286854  s :     3.286854
      pz      :     0.988621  p :     2.814588
      px      :     0.734870
      py      :     1.091097
      dz2     :     0.011980  d :     0.053432
      dxz     :     0.013010
      dyz     :     0.004850
      dx2y2   :     0.014753
      dxy     :     0.008839

  6 C s       :     3.310482  s :     3.310482
      pz      :     1.035157  p :     3.106675
      px      :     1.000505
      py      :     1.071012
      dz2     :     0.006168  d :     0.025807
      dxz     :     0.005743
      dyz     :     0.003480
      dx2y2   :     0.007309
      dxy     :     0.003107

  7 H s       :     0.825260  s :     0.825260
      pz      :     0.004126  p :     0.018183
      px      :     0.006161
      py      :     0.007897

  8 H s       :     0.822951  s :     0.822951
      pz      :     0.008662  p :     0.018135
      px      :     0.003958
      py      :     0.005515

  9 H s       :     0.828271  s :     0.828271
      pz      :     0.004668  p :     0.018350
      px      :     0.008958
      py      :     0.004724

 10 H s       :     0.820024  s :     0.820024
      pz      :     0.003805  p :     0.017723
      px      :     0.005966
      py      :     0.007953

 11 H s       :     0.830151  s :     0.830151
      pz      :     0.008552  p :     0.018006
      px      :     0.003748
      py      :     0.005706

 12 H s       :     0.800205  s :     0.800205
      pz      :     0.003158  p :     0.018155
      px      :     0.002666
      py      :     0.012331

 13 H s       :     0.839329  s :     0.839329
      pz      :     0.010529  p :     0.017394
      px      :     0.002424
      py      :     0.004441

 14 H s       :     0.829522  s :     0.829522
      pz      :     0.003626  p :     0.018264
      px      :     0.003635
      py      :     0.011003

 15 H s       :     0.829398  s :     0.829398
      pz      :     0.010123  p :     0.018227
      px      :     0.003510
      py      :     0.004595

 16 H s       :     0.834904  s :     0.834904
      pz      :     0.004706  p :     0.018448
      px      :     0.009714
      py      :     0.004028


------------------------
MULLIKEN OVERLAP CHARGES
------------------------
B(  0-C ,  1-C ) :   0.5038 B(  0-C ,  2-C ) :  -0.1425 B(  0-C ,  7-H ) :   0.8496 
B(  0-C ,  8-H ) :   0.8377 B(  0-C ,  9-H ) :   0.8127 B(  0-C , 11-H ) :  -0.0513 
B(  1-C ,  2-C ) :   0.5326 B(  1-C ,  3-O ) :  -0.1117 B(  1-C ,  4-O ) :  -0.0751 
B(  1-C ,  7-H ) :  -0.0727 B(  1-C ,  8-H ) :  -0.0730 B(  1-C ,  9-H ) :  -0.0962 
B(  1-C , 10-H ) :   0.8651 B(  1-C , 11-H ) :   0.8330 B(  2-C ,  3-O ) :   0.9915 
B(  2-C ,  4-O ) :   0.3364 B(  2-C ,  5-C ) :  -0.2354 B(  2-C , 10-H ) :  -0.1115 
B(  2-C , 11-H ) :  -0.0914 B(  2-C , 12-H ) :  -0.0517 B(  3-O ,  4-O ) :  -0.2241 
B(  4-O ,  5-C ) :   0.2456 B(  4-O ,  6-C ) :  -0.0691 B(  4-O , 12-H ) :  -0.0692 
B(  4-O , 13-H ) :  -0.0762 B(  5-C ,  6-C ) :   0.4700 B(  5-C , 12-H ) :   0.8775 
B(  5-C , 13-H ) :   0.7455 B(  5-C , 15-H ) :  -0.0823 B(  5-C , 16-H ) :  -0.0806 
B(  6-C , 12-H ) :  -0.0687 B(  6-C , 14-H ) :   0.8101 B(  6-C , 15-H ) :   0.8368 
B(  6-C , 16-H ) :   0.8216 B( 12-H , 13-H ) :  -0.0540 


                     *******************************
                     * LOEWDIN POPULATION ANALYSIS *
                     *******************************

----------------------
LOEWDIN ATOMIC CHARGES
----------------------
   0 C :   -0.392686
   1 C :   -0.236485
   2 C :    0.356519
   3 O :   -0.435583
   4 O :   -0.598300
   5 C :    0.032435
   6 C :   -0.387031
   7 H :    0.157797
   8 H :    0.159217
   9 H :    0.153064
  10 H :    0.174458
  11 H :    0.173677
  12 H :    0.192658
  13 H :    0.174149
  14 H :    0.158297
  15 H :    0.158550
  16 H :    0.159266

-------------------------------
LOEWDIN REDUCED ORBITAL CHARGES
-------------------------------
  0 C s       :     2.969587  s :     2.969587
      pz      :     1.115416  p :     3.360249
      px      :     1.125948
      py      :     1.118884
      dz2     :     0.010710  d :     0.062850
      dxz     :     0.011725
      dyz     :     0.016810
      dx2y2   :     0.006679
      dxy     :     0.016926

  1 C s       :     2.927898  s :     2.927898
      pz      :     1.089852  p :     3.234790
      px      :     1.041319
      py      :     1.103619
      dz2     :     0.011812  d :     0.073797
      dxz     :     0.014432
      dyz     :     0.018200
      dx2y2   :     0.009326
      dxy     :     0.020026

  2 C s       :     2.736170  s :     2.736170
      pz      :     0.776920  p :     2.634383
      px      :     0.921388
      py      :     0.936075
      dz2     :     0.027901  d :     0.272928
      dxz     :     0.032222
      dyz     :     0.047345
      dx2y2   :     0.063267
      dxy     :     0.102193

  3 O s       :     3.551521  s :     3.551521
      pz      :     1.465223  p :     4.668182
      px      :     1.727377
      py      :     1.475582
      dz2     :     0.028539  d :     0.215881
      dxz     :     0.019730
      dyz     :     0.056039
      dx2y2   :     0.054997
      dxy     :     0.056576

  4 O s       :     3.459670  s :     3.459670
      pz      :     1.681638  p :     4.662048
      px      :     1.343705
      py      :     1.636704
      dz2     :     0.072796  d :     0.476582
      dxz     :     0.105974
      dyz     :     0.042416
      dx2y2   :     0.135431
      dxy     :     0.119966

  5 C s       :     2.868720  s :     2.868720
      pz      :     1.035709  p :     2.979095
      px      :     0.852058
      py      :     1.091328
      dz2     :     0.026885  d :     0.119749
      dxz     :     0.029420
      dyz     :     0.010065
      dx2y2   :     0.034195
      dxy     :     0.019184

  6 C s       :     2.973104  s :     2.973104
      pz      :     1.126977  p :     3.353033
      px      :     1.082679
      py      :     1.143377
      dz2     :     0.014887  d :     0.060894
      dxz     :     0.013284
      dyz     :     0.008266
      dx2y2   :     0.017855
      dxy     :     0.006603

  7 H s       :     0.798460  s :     0.798460
      pz      :     0.009287  p :     0.043744
      px      :     0.014963
      py      :     0.019494

  8 H s       :     0.797106  s :     0.797106
      pz      :     0.021455  p :     0.043677
      px      :     0.008909
      py      :     0.013314

  9 H s       :     0.803202  s :     0.803202
      pz      :     0.010946  p :     0.043734
      px      :     0.022051
      py      :     0.010737

 10 H s       :     0.782319  s :     0.782319
      pz      :     0.008775  p :     0.043223
      px      :     0.014561
      py      :     0.019888

 11 H s       :     0.782363  s :     0.782363
      pz      :     0.020790  p :     0.043961
      px      :     0.008918
      py      :     0.014252

 12 H s       :     0.763259  s :     0.763259
      pz      :     0.007159  p :     0.044083
      px      :     0.006406
      py      :     0.030518

 13 H s       :     0.785522  s :     0.785522
      pz      :     0.024275  p :     0.040328
      px      :     0.005445
      py      :     0.010609

 14 H s       :     0.798266  s :     0.798266
      pz      :     0.008012  p :     0.043437
      px      :     0.007902
      py      :     0.027522

 15 H s       :     0.798102  s :     0.798102
      pz      :     0.025072  p :     0.043349
      px      :     0.007594
      py      :     0.010683

 16 H s       :     0.796876  s :     0.796876
      pz      :     0.011095  p :     0.043859
      px      :     0.023669
      py      :     0.009094


---------------------------------
LOEWDIN BOND ORDERS (THRESH 0.050000)
---------------------------------
B(  0-C ,  1-C ) :   1.1149 B(  0-C ,  2-C ) :   0.0793 B(  0-C ,  7-H ) :   0.9252 
B(  0-C ,  8-H ) :   0.9252 B(  0-C ,  9-H ) :   0.9272 B(  1-C ,  2-C ) :   0.9265 
B(  1-C ,  3-O ) :   0.1814 B(  1-C ,  4-O ) :   0.1826 B(  1-C , 10-H ) :   0.8770 
B(  1-C , 11-H ) :   0.8716 B(  2-C ,  3-O ) :   2.1731 B(  2-C ,  4-O ) :   1.4555 
B(  2-C ,  5-C ) :   0.0858 B(  3-O ,  4-O ) :   0.4615 B(  3-O ,  5-C ) :   0.0726 
B(  4-O ,  5-C ) :   1.2911 B(  4-O ,  6-C ) :   0.1680 B(  4-O , 12-H ) :   0.0900 
B(  4-O , 13-H ) :   0.0953 B(  5-C ,  6-C ) :   1.0910 B(  5-C , 12-H ) :   0.8126 
B(  5-C , 13-H ) :   0.8327 B(  6-C , 14-H ) :   0.9223 B(  6-C , 15-H ) :   0.9245 
B(  6-C , 16-H ) :   0.9194 

------------------------------------------
LOEWDIN REDUCED ORBITAL POPULATIONS PER MO
-------------------------------------------
THRESHOLD FOR PRINTING IS 0.1%%
                      0         1         2         3         4         5   
                 -18.99646 -18.92560 -10.15053 -10.09068 -10.04288 -10.03217
                   2.00000   2.00000   2.00000   2.00000   2.00000   2.00000
                  --------  --------  --------  --------  --------  --------
 1 C  s               0.0       0.0       0.0       0.0      99.7       0.0
 2 C  s               0.0       0.0      98.9       0.0       0.0       0.0
 3 O  s               0.0      99.9       0.0       0.0       0.0       0.0
 3 O  py              0.0       0.0       0.2       0.0       0.0       0.0
 3 O  dyz             0.0       0.0       0.1       0.0       0.0       0.0
 3 O  dx2y2           0.0       0.0       0.2       0.0       0.0       0.0
 4 O  s              99.9       0.0       0.0       0.0       0.0       0.0
 4 O  dxz             0.0       0.0       0.0       0.1       0.0       0.0
 4 O  dx2y2           0.0       0.0       0.0       0.1       0.0       0.0
 4 O  dxy             0.0       0.0       0.2       0.0       0.0       0.0
 5 C  s               0.0       0.0       0.0      99.4       0.0       0.0
 6 C  s               0.0       0.0       0.0       0.0       0.0      99.7

                      6         7         8         9        10        11   
                 -10.03166  -1.07114  -0.97343  -0.76702  -0.73286  -0.63953
                   2.00000   2.00000   2.00000   2.00000   2.00000   2.00000
                  --------  --------  --------  --------  --------  --------
 0 C  s              99.7       0.1       0.0      11.1      12.0      14.5
 0 C  pz              0.0       0.0       0.0       0.9       0.5       0.3
 0 C  px              0.0       0.2       0.0       0.7       0.2       0.6
 0 C  py              0.0       0.1       0.0       0.7       0.4       0.4
 1 C  s               0.0       1.0       0.3      18.9      10.7       1.0
 1 C  pz              0.0       0.3       0.1       0.8       0.5       1.1
 1 C  px              0.0       1.6       0.1       0.1       0.9       5.0
 1 C  py              0.0       0.1       0.4       0.4       0.3       1.9
 1 C  dxz             0.0       0.0       0.0       0.0       0.0       0.1
 2 C  s               0.0      16.0       4.4       3.7       0.4       3.9
 2 C  pz              0.0       0.3       2.3       1.7       0.1       2.0
 2 C  px              0.0       4.6       1.6       4.0       3.7       0.4
 2 C  py              0.0       0.2      19.1       5.0       0.3       2.2
 2 C  dz2             0.0       0.4       0.0       0.0       0.0       0.0
 2 C  dyz             0.0       0.2       0.6       0.0       0.0       0.0
 2 C  dx2y2           0.0       0.0       0.9       0.1       0.0       0.0
 2 C  dxy             0.0       0.5       0.4       0.0       0.2       0.0
 3 O  s               0.0      11.1      43.3       1.8       0.0       0.9
 3 O  pz              0.0       0.4       0.7       0.1       0.0       0.3
 3 O  px              0.0       0.0       0.1       0.1       0.1       0.1
 3 O  py              0.0       2.5       3.0       0.3       0.0       0.5
 3 O  dz2             0.0       0.2       0.0       0.0       0.0       0.0
 3 O  dyz             0.0       0.4       0.1       0.3       0.0       0.3
 3 O  dx2y2           0.0       0.6       0.1       0.2       0.1       0.2
 3 O  dxy             0.0       0.2       0.2       0.2       0.1       0.1
 4 O  s               0.0      42.9      15.0       0.0       1.5       0.4
 4 O  pz              0.0       0.3       0.0       0.6       0.1       1.8
 4 O  px              0.0       0.2       0.7      10.2       4.0      11.2
 4 O  py              0.0       2.3       0.4       0.1       0.3       0.3
 4 O  dz2             0.0       0.3       0.1       0.0       0.3       0.2
 4 O  dxz             0.0       0.0       0.1       0.0       0.3       0.1
 4 O  dx2y2           0.0       0.0       0.4       0.0       1.6       0.3
 4 O  dxy             0.0       0.4       0.7       0.4       0.1       0.6
 5 C  s               0.0       4.5       1.8      10.0      12.1       1.5
 5 C  pz              0.0       0.7       0.3       0.3       0.4       0.8
 5 C  px              0.0       4.7       1.0       0.5       3.3       5.4
 5 C  py              0.0       0.1       0.4       0.3       0.3       0.1
 5 C  dxz             0.0       0.1       0.1       0.0       0.1       0.2
 5 C  dx2y2           0.0       0.2       0.1       0.0       0.0       0.0
 5 C  dxy             0.0       0.0       0.0       0.0       0.0       0.1
 6 C  s               0.0       0.3       0.2       7.2      18.8      13.1
 6 C  pz              0.0       0.1       0.0       0.4       0.5       0.3
 6 C  px              0.0       0.6       0.3       0.7       0.5       1.2
 6 C  py              0.0       0.0       0.0       0.1       0.2       0.1
 7 H  s               0.0       0.0       0.0       1.6       1.9       3.6
 7 H  px              0.0       0.0       0.0       0.0       0.1       0.1
 7 H  py              0.0       0.0       0.0       0.1       0.1       0.2
 8 H  s               0.0       0.0       0.0       1.5       1.9       3.8
 8 H  pz              0.0       0.0       0.0       0.1       0.1       0.2
 8 H  py              0.0       0.0       0.0       0.0       0.0       0.1
 9 H  s               0.0       0.0       0.0       1.5       2.0       4.3
 9 H  px              0.0       0.0       0.0       0.1       0.1       0.2
10 H  s               0.0       0.1       0.0       2.5       1.9       0.2
10 H  py              0.0       0.0       0.0       0.1       0.1       0.0
11 H  s               0.0       0.1       0.0       3.0       1.6       0.5
11 H  pz              0.0       0.0       0.0       0.2       0.1       0.0
12 H  s               0.0       0.4       0.1       1.4       1.9       0.4
12 H  py              0.0       0.0       0.0       0.1       0.2       0.0
13 H  s               0.0       0.3       0.1       1.5       2.1       0.5
13 H  pz              0.0       0.0       0.0       0.1       0.2       0.0
14 H  s               0.0       0.0       0.0       1.1       3.1       3.3
14 H  py              0.0       0.0       0.0       0.1       0.3       0.3
15 H  s               0.0       0.0       0.0       1.0       3.1       3.5
15 H  pz              0.0       0.0       0.0       0.1       0.2       0.2
16 H  s               0.0       0.0       0.0       1.0       3.4       4.1
16 H  px              0.0       0.0       0.0       0.1       0.2       0.2

                     12        13        14        15        16        17   
                  -0.59505  -0.53259  -0.47343  -0.45166  -0.43685  -0.41227
                   2.00000   2.00000   2.00000   2.00000   2.00000   2.00000
                  --------  --------  --------  --------  --------  --------
 0 C  s               9.5       0.2       0.0       0.1       0.1       0.2
 0 C  pz              2.3       0.8       3.9       5.2       1.0       0.2
 0 C  px              0.8       0.0       1.9       0.3       2.3       6.9
 0 C  py              1.9       0.3       0.2       1.3       5.2       5.6
 1 C  s               9.4       1.4       1.0       0.5       0.5       0.4
 1 C  pz              2.9       1.2       9.7       5.2       0.0       5.9
 1 C  px              0.3       1.4       4.0       0.4      12.3       0.2
 1 C  py              2.7       0.1       1.2       9.1       2.3       0.4
 1 C  dxz             0.0       0.0       0.1       0.0       0.0       0.0
 2 C  s               0.2       2.7       0.9       2.3       0.2       1.0
 2 C  pz              1.0       0.2       2.1       1.1       6.8       6.6
 2 C  px              5.1       1.4       9.6       2.2       1.9       1.4
 2 C  py              0.2       1.8       1.1       1.9       0.2       4.2
 2 C  dx2y2           0.1       0.0       0.0       0.2       0.1       0.0
 2 C  dxy             0.2       0.0       0.0       0.0       0.0       0.0
 3 O  s               0.2       1.8       0.3       7.0       3.2       2.7
 3 O  pz              0.1       0.0       0.1       5.9       0.1      13.3
 3 O  px              0.4       0.8       5.5       1.4       0.5       0.1
 3 O  py              0.0       1.9       1.2       8.6       9.4       4.1
 3 O  dz2             0.0       0.1       0.0       0.0       0.2       0.4
 3 O  dxz             0.2       0.0       0.1       0.0       0.0       0.0
 3 O  dyz             0.0       0.0       0.0       0.4       0.1       0.4
 3 O  dx2y2           0.1       0.1       0.2       0.0       0.1       0.0
 3 O  dxy             0.1       0.1       0.7       0.2       0.1       0.0
 4 O  s               0.4       5.1       0.3       0.3       0.5       0.1
 4 O  pz              0.6       1.1       3.8       2.0      17.3       3.3
 4 O  px              6.0      12.2       0.3       5.4       0.0       0.1
 4 O  py              0.3       8.8      12.0       3.9       4.2       0.5
 4 O  dz2             0.0       0.0       0.0       0.4       0.3       0.0
 4 O  dxz             1.2       0.5       0.0       0.4       0.1       0.7
 4 O  dyz             0.0       0.1       0.0       0.1       0.2       0.3
 4 O  dx2y2           0.3       0.1       0.8       0.0       0.6       0.1
 4 O  dxy             0.1       0.2       0.8       0.0       0.1       1.1
 5 C  s               5.9       6.2       0.0       0.1       0.5       0.0
 5 C  pz              1.7       9.1       4.4       9.0       2.8       1.0
 5 C  px              1.1       4.5       0.0       0.4       3.7       0.5
 5 C  py              0.3       8.1      11.6       2.5       0.2       7.0
 5 C  dxz             0.0       0.1       0.0       0.0       0.0       0.0
 5 C  dyz             0.0       0.1       0.0       0.0       0.0       0.0
 5 C  dx2y2           0.0       0.2       0.0       0.0       0.1       0.0
 5 C  dxy             0.0       0.1       0.0       0.0       0.0       0.1
 6 C  s               7.1       0.6       0.0       0.0       0.4       0.0
 6 C  pz              1.3       3.4       1.8       2.6       0.4       5.5
 6 C  px              2.1       0.0       0.1       1.5       5.0       1.0
 6 C  py              0.5       2.4       2.8       2.0       2.8       6.8
 7 H  s               3.8       0.3       0.2       0.0       3.4       0.1
 7 H  px              0.1       0.0       0.0       0.0       0.0       0.1
 7 H  py              0.1       0.0       0.0       0.0       0.1       0.0
 8 H  s               3.4       0.2       0.6       2.6       0.1       0.1
 8 H  pz              0.1       0.0       0.0       0.1       0.0       0.0
 8 H  py              0.1       0.0       0.0       0.0       0.0       0.0
 9 H  s               3.5       0.0       1.2       0.1       0.1       5.1
 9 H  px              0.2       0.0       0.0       0.0       0.0       0.1
10 H  s               4.2       1.6       1.4       0.1       5.1       0.0
10 H  px              0.2       0.0       0.0       0.0       0.0       0.0
10 H  py              0.2       0.1       0.1       0.0       0.2       0.0
11 H  s               3.1       0.8       4.1       5.5       0.4       0.5
11 H  pz              0.1       0.0       0.1       0.2       0.0       0.0
11 H  py              0.1       0.0       0.1       0.0       0.0       0.0
12 H  s               1.9       8.4       3.1       0.5       0.6       2.3
12 H  py              0.2       0.5       0.1       0.0       0.0       0.1
13 H  s               2.7       5.6       3.5       3.7       0.3       1.9
13 H  pz              0.2       0.2       0.2       0.1       0.0       0.1
13 H  py              0.0       0.2       0.0       0.0       0.0       0.0
14 H  s               2.5       1.3       0.6       0.6       1.5       2.2
14 H  py              0.2       0.1       0.0       0.0       0.0       0.1
15 H  s               2.7       0.8       1.1       1.1       0.1       4.1
15 H  pz              0.2       0.0       0.0       0.0       0.0       0.1
16 H  s               2.7       0.0       0.0       0.9       1.3       0.2
16 H  px              0.1       0.0       0.0       0.0       0.0       0.0

                     18        19        20        21        22        23   
                  -0.40927  -0.37569  -0.36913  -0.36043  -0.33797  -0.32787
                   2.00000   2.00000   2.00000   2.00000   2.00000   2.00000
                  --------  --------  --------  --------  --------  --------
 0 C  s               0.0       0.0       0.1       0.1       0.2       0.1
 0 C  pz              2.2       0.7      13.6       0.1      19.9       0.0
 0 C  px             11.4       0.3       4.4      10.2       1.0       3.3
 0 C  py              8.4       3.6       0.5       6.1       0.7      19.6
 0 C  dz2             0.0       0.0       0.0       0.0       0.1       0.2
 0 C  dxz             0.0       0.0       0.0       0.1       0.0       0.2
 0 C  dyz             0.1       0.0       0.0       0.1       0.1       0.1
 0 C  dxy             0.0       0.0       0.2       0.0       0.3       0.2
 1 C  s               0.1       0.1       0.1       0.3       0.2       0.1
 1 C  pz              0.3       0.5       1.1       2.6      13.7       0.4
 1 C  px              3.9       0.0       2.6       2.0       0.3       3.5
 1 C  py             11.8       0.1       2.0       3.6       0.0      15.7
 1 C  dz2             0.1       0.0       0.0       0.1       0.1       0.1
 1 C  dxz             0.0       0.0       0.0       0.1       0.0       0.2
 1 C  dyz             0.0       0.0       0.0       0.1       0.0       0.1
 1 C  dxy             0.0       0.0       0.0       0.0       0.4       0.2
 2 C  s               0.5       0.0       0.3       0.2       0.2       0.0
 2 C  pz              2.1       0.2       5.3       0.4       1.3       1.0
 2 C  px              0.1       0.9       0.0       1.6       3.4       0.2
 2 C  py              1.5       1.4       0.6       0.2       0.8       0.7
 2 C  dx2y2           0.0       0.1       0.1       0.0       0.1       0.1
 2 C  dxy             0.3       0.0       0.0       0.1       0.0       0.3
 3 O  s               3.0       0.6       0.4       0.1       0.3       0.1
 3 O  pz              0.2       1.3       1.8       0.0       0.2       3.0
 3 O  px              0.1       2.3       0.7       1.5       1.7       0.4
 3 O  py             12.1       2.6       7.0       0.8       3.5       0.2
 3 O  dxz             0.0       0.0       0.0       0.2       0.0       0.1
 3 O  dyz             0.1       0.0       0.1       0.0       0.1       0.0
 3 O  dx2y2           0.1       0.0       0.2       0.0       0.1       0.0
 4 O  s               1.5       1.7       0.1       0.0       0.0       0.0
 4 O  pz              4.9       0.2       0.3       2.8       0.4       1.2
 4 O  px              2.6       0.8       2.9       1.3       1.2       1.1
 4 O  py              1.2       4.7       3.1       2.6       0.9       0.4
 4 O  dz2             0.1       0.1       0.1       0.3       0.1       0.1
 4 O  dxz             0.1       0.0       0.7       0.2       0.0       0.6
 4 O  dx2y2           0.1       0.2       0.4       0.0       0.0       0.0
 4 O  dxy             0.0       0.1       0.1       0.0       0.1       0.0
 5 C  s               0.1       0.2       0.2       0.2       0.0       0.0
 5 C  pz              0.4       0.0       3.0       5.5       0.0       2.1
 5 C  px              3.0       0.3       7.8       1.6       2.2       1.0
 5 C  py              0.0       0.1       1.5       0.4       4.3       0.0
 5 C  dz2             0.0       0.1       0.0       0.1       0.1       0.1
 5 C  dxz             0.0       0.0       0.2       0.0       0.1       0.0
 5 C  dx2y2           0.0       0.2       0.0       0.1       0.0       0.0
 5 C  dxy             0.0       0.2       0.0       0.1       0.0       0.0
 6 C  s               0.0       0.0       0.1       0.1       0.1       0.1
 6 C  pz              3.9       3.8       0.2      24.8       0.2       1.8
 6 C  px              0.2      20.4      13.6       0.2       2.6       1.9
 6 C  py              0.4      18.4       4.7       0.6       6.9       0.1
 6 C  dz2             0.0       0.0       0.0       0.2       0.1       0.0
 6 C  dxz             0.0       0.1       0.2       0.0       0.0       0.0
 6 C  dyz             0.0       0.0       0.0       0.1       0.0       0.0
 6 C  dx2y2           0.0       0.5       0.0       0.1       0.0       0.0
 7 H  s               5.0       0.4       4.0       0.0       0.7      13.0
 7 H  pz              0.1       0.0       0.0       0.0       0.1       0.0
 7 H  px              0.0       0.0       0.0       0.1       0.0       0.1
 7 H  py              0.1       0.0       0.1       0.1       0.0       0.0
 8 H  s               4.9       1.1       2.6       0.1       8.8       5.1
 8 H  pz              0.2       0.0       0.0       0.0       0.0       0.2
 9 H  s               0.7       1.1       4.2       6.7       5.6       0.0
 9 H  px              0.0       0.0       0.1       0.0       0.1       0.0
 9 H  py              0.1       0.0       0.1       0.0       0.0       0.2
10 H  s               4.9       0.0       0.2       0.2       1.5      13.2
11 H  s               3.4       0.0       0.2       0.0       5.9       3.4
11 H  pz              0.2       0.0       0.0       0.0       0.0       0.1
11 H  py              0.0       0.0       0.0       0.0       0.1       0.0
12 H  s               0.0       0.1       0.3       0.3       2.3       0.1
13 H  s               0.3       0.2       0.2       3.0       0.4       1.5
14 H  s               0.4      11.8       1.7       0.1       3.3       0.2
14 H  pz              0.0       0.0       0.0       0.2       0.0       0.0
14 H  px              0.0       0.1       0.1       0.0       0.0       0.0
14 H  py              0.0       0.3       0.0       0.0       0.0       0.0
15 H  s               1.2       0.1       0.2      13.4       1.5       0.9
15 H  pz              0.0       0.0       0.0       0.1       0.0       0.0
15 H  px              0.0       0.1       0.1       0.0       0.0       0.0
15 H  py              0.0       0.1       0.0       0.1       0.0       0.0
16 H  s               0.7      17.1       4.0       2.6       0.6       0.3
16 H  px              0.0       0.3       0.0       0.1       0.0       0.0

                     24        25        26        27        28        29   
                  -0.32381  -0.30869  -0.26985  -0.23191  -0.01309   0.07419
                   2.00000   2.00000   2.00000   2.00000   0.00000   0.00000
                  --------  --------  --------  --------  --------  --------
 0 C  s               0.3       0.0       0.0       0.0       2.3       6.8
 0 C  pz              4.0       0.2       0.0       0.0       1.4       1.0
 0 C  px             10.7       0.5       0.2       0.5       0.4       2.2
 0 C  py              0.3       0.1       0.3       0.3       1.0       2.1
 0 C  dxz             0.0       0.0       0.0       0.0       0.0       0.3
 0 C  dyz             0.3       0.0       0.0       0.0       0.0       0.2
 0 C  dxy             0.0       0.0       0.0       0.0       0.2       0.1
 1 C  s               0.0       0.1       0.0       0.6       0.1      10.1
 1 C  pz              6.3       0.5       0.0       1.4       0.1       1.5
 1 C  px              8.1       2.2       0.2       3.0       0.6       0.2
 1 C  py              0.1       0.1       0.0       2.8       0.4       0.3
 1 C  dz2             0.0       0.0       0.0       0.0       0.3       0.0
 1 C  dxz             0.0       0.0       0.0       0.0       0.7       0.0
 1 C  dyz             0.4       0.0       0.0       0.0       0.4       0.0
 1 C  dxy             0.0       0.1       0.0       0.0       0.6       0.0
 2 C  s               0.2       0.4       0.0       0.3       0.0      10.2
 2 C  pz              2.4       1.2       0.5       0.2      30.1       0.3
 2 C  px              2.4       0.1       0.0       1.2       3.1       1.5
 2 C  py              1.6       2.9       0.1       0.5       5.8       0.3
 2 C  dz2             0.3       0.0       0.3       0.2       0.6       0.7
 2 C  dxz             0.1       0.1       0.4       0.5       0.2       0.4
 2 C  dyz             0.1       0.2       0.9       0.1       0.2       0.4
 2 C  dx2y2           0.1       0.5       0.4       0.2       0.0       0.1
 2 C  dxy             0.0       0.0       0.1       3.0       0.2       0.1
 3 O  s               0.1       0.9       0.0       0.0       0.0       1.6
 3 O  pz             14.9       0.2      24.4       6.1      18.3       0.1
 3 O  px              2.2       0.1       5.5      62.7       2.1       0.5
 3 O  py              1.0       8.5       4.1       2.2       3.4       0.1
 3 O  dz2             0.1       0.0       0.0       0.0       3.2       0.8
 3 O  dxz             0.0       0.0       0.0       0.1       0.0       0.6
 3 O  dyz             0.1       0.1       0.0       0.1       2.3       0.7
 3 O  dx2y2           0.0       0.5       0.0       0.0       0.5       0.0
 3 O  dxy             0.0       0.0       0.0       0.5       0.7       0.0
 4 O  s               0.2       2.8       0.0       0.4       0.0       7.2
 4 O  pz              2.1       7.8      32.1       1.1       7.4       0.3
 4 O  px              0.6       1.4       3.1       1.7       0.8       0.8
 4 O  py              0.3      22.8       8.5       4.2       1.5       0.8
 4 O  dz2             0.1       0.0       0.9       0.1       0.0       0.9
 4 O  dxz             0.0       0.1       0.0       0.0       2.9       0.7
 4 O  dyz             0.3       0.5       0.1       0.1       1.4       1.7
 4 O  dx2y2           0.3       1.3       0.0       0.1       1.1       0.8
 4 O  dxy             0.0       0.6       0.1       0.3       0.3       0.1
 5 C  s               0.1       0.5       0.0       0.2       0.0       3.3
 5 C  pz              5.0       1.3       3.9       0.0       0.1       3.6
 5 C  px              0.2       0.3       0.3       0.6       0.0      13.6
 5 C  py              2.2      13.5       0.9       0.7       0.0       1.4
 5 C  dz2             0.3       0.0       0.6       0.0       0.2       0.1
 5 C  dxz             0.0       0.0       0.3       0.0       0.1       0.5
 5 C  dyz             0.1       0.0       0.1       0.0       0.0       0.1
 5 C  dx2y2           0.0       0.8       0.0       0.0       0.0       1.0
 5 C  dxy             0.0       0.1       0.0       0.0       0.0       0.1
 6 C  s               0.0       0.4       0.2       0.0       0.1       1.9
 6 C  pz              3.9       0.5       1.0       0.0       0.0       0.2
 6 C  px              0.0       0.7       1.2       0.2       0.1       0.5
 6 C  py              2.0       6.1       0.0       0.1       0.1       0.2
 6 C  dz2             0.2       0.0       0.0       0.0       0.0       0.3
 6 C  dxz             0.0       0.0       0.0       0.0       0.0       0.1
 6 C  dyz             0.0       0.0       0.0       0.0       0.0       0.1
 6 C  dx2y2           0.0       0.2       0.0       0.0       0.0       0.2
 7 H  s               1.3       0.1       0.2       0.0       0.1       1.3
 7 H  px              0.0       0.0       0.0       0.0       0.0       0.7
 8 H  s               2.6       0.1       0.1       0.3       0.1       0.7
 8 H  py              0.1       0.0       0.0       0.0       0.0       0.4
 9 H  s               2.6       0.6       0.0       0.8       0.9       1.5
 9 H  pz              0.1       0.0       0.0       0.0       0.0       0.5
 9 H  px              0.0       0.0       0.0       0.0       0.1       0.2
10 H  s               1.1       0.6       0.1       0.1       0.6       1.0
10 H  px              0.0       0.0       0.0       0.0       0.0       0.4
10 H  py              0.0       0.0       0.0       0.0       0.0       0.2
11 H  s               5.0       0.1       0.0       1.3       1.5       0.7
11 H  pz              0.0       0.0       0.0       0.0       0.0       0.4
11 H  py              0.1       0.0       0.0       0.0       0.1       0.1
12 H  s               1.2      11.4       1.5       0.1       0.1       0.8
12 H  pz              0.0       0.0       0.1       0.0       0.0       0.3
12 H  px              0.0       0.0       0.0       0.0       0.0       0.4
12 H  py              0.0       0.1       0.0       0.1       0.0       0.3
13 H  s               5.4       0.1       5.9       0.0       0.8       1.4
13 H  pz              0.0       0.0       0.0       0.0       0.0       0.2
13 H  px              0.0       0.0       0.0       0.0       0.0       0.6
13 H  py              0.0       0.1       0.0       0.0       0.0       0.5
14 H  s               1.4       4.2       0.2       0.2       0.0       0.2
14 H  px              0.0       0.0       0.0       0.0       0.0       0.1
15 H  s               4.0       0.3       0.6       0.0       0.0       0.3
15 H  py              0.0       0.0       0.0       0.0       0.0       0.1
16 H  s               0.2       0.1       0.2       0.3       0.1       2.1
16 H  px              0.0       0.0       0.0       0.0       0.0       0.3

                     30        31        32        33        34        35   
                   0.09517   0.11860   0.12518   0.12762   0.14606   0.15338
                   0.00000   0.00000   0.00000   0.00000   0.00000   0.00000
                  --------  --------  --------  --------  --------  --------
 0 C  s               0.3       0.8      32.0       0.6       0.1       0.0
 0 C  pz              0.0       2.1       2.3       5.4       1.7       0.9
 0 C  px              0.7       2.2       7.7       1.4       3.0       1.2
 0 C  py              0.0       0.8       7.3       1.0       1.7       3.3
 0 C  dz2             0.0       0.0       0.0       0.2       0.7       0.2
 0 C  dxz             0.0       0.3       0.2       0.1       0.1       0.6
 0 C  dyz             0.0       0.5       0.0       0.4       0.1       0.0
 0 C  dx2y2           0.0       0.0       0.1       0.0       0.2       0.1
 1 C  s               0.1       5.3       0.8      10.1       0.5       0.4
 1 C  pz              0.2       3.0       5.1       4.0       9.2       2.3
 1 C  px              0.9       0.5       3.8       1.3       9.6       0.5
 1 C  py              0.6       1.3       4.5       0.4       3.3       1.4
 1 C  dz2             0.2       0.2       0.2       0.1       0.1       0.1
 1 C  dxz             0.1       0.1       0.1       0.0       1.1       0.0
 1 C  dyz             0.0       0.0       0.8       0.0       0.4       0.1
 1 C  dx2y2           0.1       0.2       0.0       0.0       0.3       0.1
 1 C  dxy             0.1       0.1       0.0       0.1       0.8       0.1
 2 C  s               1.1       2.1       0.1       0.2       2.9       0.2
 2 C  pz              0.5       0.6       4.5       3.0       4.8       1.2
 2 C  px              0.2       1.3       0.6       0.8       0.2       0.4
 2 C  py              1.2       1.7       0.8       0.1       1.0       7.2
 2 C  dz2             0.0       0.0       0.1       0.0       0.3       0.0
 2 C  dyz             0.3       0.3       0.0       0.0       0.1       0.0
 2 C  dx2y2           0.6       0.4       0.1       0.0       0.1       0.0
 3 O  s               0.4       0.9       0.0       0.0       0.1       1.2
 3 O  pz              0.1       0.2       0.3       0.4       0.0       0.0
 3 O  px              0.0       0.5       0.3       0.8       0.0       0.5
 3 O  py              0.3       0.2       0.1       0.0       0.1       1.1
 3 O  dz2             0.1       0.5       0.0       0.0       0.8       0.2
 3 O  dxz             0.0       0.2       0.0       0.3       0.3       0.1
 3 O  dyz             0.0       0.3       0.5       0.0       0.0       0.1
 3 O  dx2y2           0.0       0.0       0.3       0.0       1.2       1.1
 3 O  dxy             0.5       0.1       0.1       0.0       0.2       0.2
 4 O  s               2.0       1.6       0.5       0.2       0.4       0.1
 4 O  pz              2.4       0.0       0.3       0.6       1.1       0.3
 4 O  px              3.5       1.6       0.4       0.3       1.1       0.1
 4 O  py              0.7       0.2       0.4       0.0       1.3       0.2
 4 O  dz2             0.7       1.4       0.4       0.1       1.0       0.0
 4 O  dxz             3.8       0.6       0.3       0.6       0.5       0.4
 4 O  dyz             0.6       0.6       0.1       0.1       1.9       0.2
 4 O  dx2y2           2.4       0.2       0.5       0.0       2.1       0.1
 4 O  dxy             1.4       0.0       0.1       0.2       2.7       0.8
 5 C  s              13.3       1.5       0.2       7.5       0.5       0.4
 5 C  pz              2.6       7.5       0.6       8.4       1.4       6.6
 5 C  px             15.2       1.4       1.3       5.8       1.7       1.2
 5 C  py              1.4       4.6       0.1       0.6       3.5      15.8
 5 C  dz2             0.1       0.0       0.1       0.4       0.0       0.7
 5 C  dxz             0.9       0.0       0.1       0.5       0.2       0.0
 5 C  dyz             0.0       0.6       0.0       0.0       0.1       0.2
 5 C  dx2y2           0.3       1.0       0.1       0.1       0.0       0.8
 5 C  dxy             0.3       0.0       0.0       0.1       0.3       0.1
 6 C  s              14.5      20.9       0.0       4.9       0.3       0.3
 6 C  pz              1.2       0.6       0.1       9.2       1.6       1.8
 6 C  px              1.1       8.3       0.0       5.5       9.3       1.3
 6 C  py              0.6       0.8       0.1       2.9       0.9      12.6
 6 C  dz2             0.2       0.1       0.0       0.3       0.0       0.5
 6 C  dxz             0.2       0.1       0.0       0.8       0.6       0.0
 6 C  dyz             0.0       0.1       0.0       0.1       0.1       0.3
 6 C  dx2y2           0.6       0.1       0.1       0.0       0.1       0.4
 6 C  dxy             0.1       0.0       0.0       0.2       0.1       0.3
 7 H  s               0.2       0.0       4.4       0.1       1.6       0.7
 7 H  pz              0.0       0.1       0.1       0.2       0.1       0.1
 7 H  px              0.0       0.1       0.5       0.1       0.0       0.5
 7 H  py              0.0       0.0       2.3       0.0       0.5       0.0
 8 H  s               0.0       0.6       4.8       0.3       0.8       1.2
 8 H  pz              0.0       0.0       1.7       0.0       0.8       0.3
[...]
 2 C  dx2y2           0.2       0.0       6.6       0.0       0.1       3.3
 2 C  dxy             0.6       0.0       5.0       1.5      10.1       0.0
 3 O  s               0.0       1.0       1.6       1.1       0.4      18.9
 3 O  pz              0.1       0.0       0.1       0.1       0.0       3.8
 3 O  px              0.3       0.6       8.5       0.1       0.3       0.2
 3 O  py              0.0       0.1       1.3       0.8       0.1      17.9
 3 O  dz2             0.1       0.2       2.3       0.1       0.0       1.8
 3 O  dxz             0.2       0.0       2.4       0.0       0.7       0.1
 3 O  dyz             0.1       0.0       0.4       0.7       0.1      14.5
 3 O  dx2y2           0.0       0.4       0.1       1.5       0.4      16.6
 3 O  dxy             1.1       0.8      18.4       0.0       1.0       0.5
 4 O  s               0.3       0.2       3.7      25.1       6.0       1.5
 4 O  pz              0.2       0.1       0.7       2.9       0.4       0.1
 4 O  px              0.0       0.1       0.1       7.8      25.4       0.4
 4 O  py              0.4       0.2       6.4       3.6       5.3       0.2
 4 O  dz2             0.1       0.0       0.5       5.9       4.0       0.4
 4 O  dxz             0.0       0.6       0.2       7.2       1.5       0.6
 4 O  dyz             0.6       0.3       2.8       0.9       0.0       0.1
 4 O  dx2y2           0.7       0.1       6.8      11.5       0.1       0.9
 4 O  dxy             0.0       0.0       0.0       0.0      24.3       0.1
 5 C  s               0.0       0.1       0.1       1.4       0.5       0.1
 5 C  pz              0.9       0.3       0.0       2.0       0.2       0.1
 5 C  px              0.3       0.2       0.0       5.8       1.5       0.2
 5 C  py              5.9       4.1       0.0       0.3       0.3       0.0
 5 C  dz2             7.8       4.8       0.0       1.7       0.0       0.0
 5 C  dxz             0.1       0.0       0.0       3.7       0.9       0.2
 5 C  dyz             0.9       0.6       0.3       0.9       0.0       0.0
 5 C  dx2y2           3.8       3.3       0.3       5.4       1.8       0.2
 5 C  dxy             0.0       0.3       1.1       1.5       0.3       0.1
 6 C  s               0.1       0.1       0.0       0.0       0.0       0.0
 6 C  pz              0.1       0.0       0.1       0.1       0.0       0.0
 6 C  py              1.1       1.1       0.2       0.0       0.0       0.0
 6 C  dz2             0.9       1.6       0.8       0.1       0.0       0.0
 6 C  dxz             0.0       0.0       0.1       0.2       0.0       0.0
 6 C  dyz             0.0       0.1       0.0       0.0       0.0       0.0
 6 C  dx2y2           2.7       1.5       0.0       0.2       0.0       0.0
 6 C  dxy             0.4       0.4       0.1       0.1       0.0       0.0
 7 H  s               0.3       0.5       0.2       0.0       0.0       0.0
 7 H  pz              0.1       0.1       0.0       0.0       0.0       0.0
 7 H  px              0.1       0.3       0.0       0.0       0.0       0.0
 7 H  py              0.4       1.0       0.5       0.0       0.0       0.0
 8 H  s               1.0       0.8       0.0       0.0       0.0       0.0
 8 H  pz              1.8       1.4       0.0       0.0       0.0       0.0
 8 H  px              0.3       0.4       0.0       0.0       0.0       0.0
 8 H  py              0.5       0.3       0.0       0.0       0.0       0.0
 9 H  s               0.1       0.1       0.6       0.0       0.0       0.0
 9 H  pz              0.1       0.1       0.1       0.0       0.0       0.0
 9 H  px              0.1       0.1       1.2       0.0       0.0       0.0
 9 H  py              0.1       0.1       0.1       0.0       0.0       0.0
10 H  s               1.5       4.0       1.9       0.0       0.0       0.0
10 H  pz              0.4       0.8       0.5       0.0       0.0       0.0
10 H  px              1.1       2.9       0.8       0.0       0.0       0.0
10 H  py              1.7       5.3       2.3       0.0       0.0       0.0
11 H  s               3.3       3.7       0.1       0.0       0.0       0.0
11 H  pz              6.2       6.3       0.1       0.0       0.0       0.0
11 H  px              0.4       0.4       0.0       0.0       0.0       0.0
11 H  py              1.5       1.3       0.0       0.0       0.0       0.0
12 H  s               4.8       3.2       0.0       0.2       0.2       0.0
12 H  pz              0.2       0.0       0.1       0.1       0.0       0.0
12 H  px              0.2       0.0       0.9       0.1       0.1       0.0
12 H  py             11.6       8.0       0.1       0.4       0.3       0.0
13 H  s               2.7       1.5       0.0       0.7       0.0       0.0
13 H  pz              5.8       3.2       0.0       0.8       0.0       0.0
13 H  px              0.0       0.1       0.0       0.4       0.0       0.0
13 H  py              0.3       0.1       0.0       0.4       0.0       0.0
14 H  s               1.2       1.1       0.1       0.0       0.0       0.0
14 H  py              3.5       2.8       0.3       0.0       0.0       0.0
15 H  s               0.1       0.3       0.2       0.0       0.0       0.0
15 H  pz              0.3       0.7       0.3       0.0       0.0       0.0
16 H  s               0.2       0.0       0.1       0.1       0.0       0.0
16 H  px              0.4       0.0       0.1       0.2       0.0       0.0

                    186       187       188       189       190       191   
                  21.88725  21.91572  21.97477  22.06063  22.26609  43.68908
                   0.00000   0.00000   0.00000   0.00000   0.00000   0.00000
                  --------  --------  --------  --------  --------  --------
 0 C  s              10.9      82.6       2.1       0.4       3.6       0.0
 1 C  s               8.4       0.4      42.3      47.9       0.6       0.0
 2 C  s               0.1       3.1       1.1       0.2      94.6       0.0
 3 O  s               0.0       0.0       0.0       0.0       0.2      99.5
 3 O  py              0.0       0.0       0.0       0.0       0.1       0.0
 4 O  s               0.0       0.0       0.0       0.1       0.1       0.4
 5 C  s              12.6       0.5      35.9      50.4       0.2       0.0
 6 C  s              67.6      13.0      18.3       0.8       0.0       0.0

                    192   
                  43.75434
                   0.00000
                  --------
 3 O  s               0.4
 4 O  s              99.5


                      *****************************
                      * MAYER POPULATION ANALYSIS *
                      *****************************

  NA   - Mulliken gross atomic population
  ZA   - Total nuclear charge
  QA   - Mulliken gross atomic charge
  VA   - Mayer's total valence
  BVA  - Mayer's bonded valence
  FA   - Mayer's free valence

  ATOM       NA         ZA         QA         VA         BVA        FA
  0 C      6.4726     6.0000    -0.4726     3.8187     3.8187     0.0000
  1 C      6.2941     6.0000    -0.2941     3.7835     3.7835    -0.0000
  2 C      5.5850     6.0000     0.4150     3.7568     3.7568    -0.0000
  3 O      8.4331     8.0000    -0.4331     1.9464     1.9464    -0.0000
  4 O      8.1764     8.0000    -0.1764     1.8989     1.8989     0.0000
  5 C      6.1549     6.0000    -0.1549     3.6339     3.6339    -0.0000
  6 C      6.4430     6.0000    -0.4430     3.8539     3.8539    -0.0000
  7 H      0.8434     1.0000     0.1566     0.9621     0.9621     0.0000
  8 H      0.8411     1.0000     0.1589     0.9610     0.9610     0.0000
  9 H      0.8466     1.0000     0.1534     0.9604     0.9604    -0.0000
 10 H      0.8377     1.0000     0.1623     0.9601     0.9601    -0.0000
 11 H      0.8482     1.0000     0.1518     0.9626     0.9626    -0.0000
 12 H      0.8184     1.0000     0.1816     0.9544     0.9544    -0.0000
 13 H      0.8567     1.0000     0.1433     0.9520     0.9520     0.0000
 14 H      0.8478     1.0000     0.1522     0.9609     0.9609    -0.0000
 15 H      0.8476     1.0000     0.1524     0.9615     0.9615     0.0000
 16 H      0.8534     1.0000     0.1466     0.9643     0.9643    -0.0000

  Mayer bond orders larger than 0.100000
B(  0-C ,  1-C ) :   0.8977 B(  0-C ,  7-H ) :   0.9777 B(  0-C ,  8-H ) :   0.9741 
B(  0-C ,  9-H ) :   0.9706 B(  1-C ,  2-C ) :   0.9579 B(  1-C , 10-H ) :   0.9754 
B(  1-C , 11-H ) :   0.9694 B(  2-C ,  3-O ) :   1.8409 B(  2-C ,  4-O ) :   1.0573 
B(  4-O ,  5-C ) :   0.7816 B(  5-C ,  6-C ) :   0.9497 B(  5-C , 12-H ) :   0.9666 
B(  5-C , 13-H ) :   0.9457 B(  6-C , 14-H ) :   0.9693 B(  6-C , 15-H ) :   0.9742 
B(  6-C , 16-H ) :   0.9674 

-------
TIMINGS
-------

Total SCF time: 0 days 0 hours 0 min 18 sec 

Total time                  ....      18.798 sec
Sum of individual times     ....      18.269 sec  ( 97.2%)

SCF preparation             ....       0.187 sec  (  1.0%)
Fock matrix formation       ....      17.109 sec  ( 91.0%)
  Startup                   ....       0.065 sec  (  0.4% of F)
  Split-RI-J                ....       3.123 sec  ( 18.3% of F)
  XC integration            ....      13.332 sec  ( 77.9% of F)
    XC Preparation          ....       0.000 sec  (  0.0% of XC)
    Basis function eval.    ....       2.491 sec  ( 18.7% of XC)
    Density eval.           ....       3.742 sec  ( 28.1% of XC)
    XC-Functional eval.     ....       1.827 sec  ( 13.7% of XC)
    XC-Potential eval.      ....       4.327 sec  ( 32.5% of XC)
Diagonalization             ....       0.000 sec  (  0.0%)
Density matrix formation    ....       0.276 sec  (  1.5%)
Total Energy calculation    ....       0.035 sec  (  0.2%)
Population analysis         ....       0.101 sec  (  0.5%)
Orbital Transformation      ....       0.052 sec  (  0.3%)
Orbital Orthonormalization  ....       0.000 sec  (  0.0%)
DIIS solution               ....       0.460 sec  (  2.4%)
  MO trafo                  ....       0.000 sec  (  0.0 % of DIIS)
  Orb grad                  ....       0.000 sec  (  0.0 % of DIIS)
  Energy W gradient         ....       0.000 sec  (  0.0 % of DIIS)
  DIIS error                ....       0.009 sec  (  2.0 % of DIIS)
  DIIS work                 ....       0.400 sec  ( 86.9 % of DIIS)
  Form Q                    ....       0.000 sec  (  0.0 % of DIIS)
  Form QpQm                 ....       0.000 sec  (  0.0 % of DIIS)
  Exp/Cayley                ....       0.000 sec  (  0.0 % of DIIS)
  Orb update                ....       0.000 sec  (  0.0 % of DIIS)
  Wake-sleep                ....       0.022 sec  (  4.7 % of DIIS)
SOSCF solution              ....       0.048 sec  (  0.3%)
  MO trafo                  ....       0.036 sec  ( 75.7 % of SOSCF)
  Orb grad                  ....       0.001 sec  (  1.2 % of SOSCF)
  Rot update                ....       0.000 sec  (  0.1 % of SOSCF)
  Step                      ....       0.011 sec  ( 22.9 % of SOSCF)
Finished LeanSCF after  18.9 sec

Maximum memory used throughout the entire LEANSCF-calculation: 20.1 MB


-------------------------------------------------------------------------------
                          DFT DISPERSION CORRECTION                            
                                                                               
                                DFTD4 V3.4.0                                   
-------------------------------------------------------------------------------
The R2SCAN3C composite method is recognized
Using three-body term ABC
Active option DFTDOPT                   ...         5   

-------------------------   ----------------
Dispersion correction           -0.003901651
-------------------------   ----------------

------------------   -----------------
gCP correction             0.010407467
------------------   -----------------

-------------------------   --------------------
FINAL SINGLE POINT ENERGY      -346.934885454309
-------------------------   --------------------


------------------------------------------------------------------------------
                              ORCA PROPERTY CALCULATIONS
------------------------------------------------------------------------------

GBWName                                 ... sp_gas.gbw
Number of atoms                         ...     17
Number of basis functions               ...    193
Max core memory                         ...   1024 MB

Electric properties:
Dipole moment                           ... YES
Quadrupole moment                       ...  NO
Static polarizability (Dipole/Dipole)   ...  NO
Static polarizability (Dipole/Quad.)    ...  NO
Static polarizability (Quad./Quad.)     ...  NO
Static polarizability (Velocity)        ...  NO

Atomic electric properties:
Dipole moment                           ...  NO
Quadrupole moment                       ...  NO
Static polarizability                   ...  NO

Choice of electric origin               ... Center of mass
Position of electric origin             ...     0.000002     0.000018     0.000004

General magnetic properties:
Magnetizability                         ...  NO

EPR properties:
g-Tensor (aka g-matrix)                 ...  NO
Zero-Field splitting spin-orbit         ...  NO
Zero-field splitting spin-spin          ...  NO
Hyperfine couplings                     ...  NO (   0 nuclei)
Quadrupole couplings                    ...  NO (   0 nuclei)
Contact density                         ...  NO (   0 nuclei)

NMR properties:
Chemical shifts                         ...  NO (   0 nuclei)
Spin-rotation constants                 ...  NO (   0 nuclei)
Spin-spin couplings                     ...  NO (   0 nuclei,    0 pairs)

Choice of magnetic origin               ... GIAO
Position of magnetic origin             ...     0.000000     0.000000     0.000000

Properties with geometric perturbations:
SCF Hessian                             ...  NO
IR spectrum                             ...  NO
VCD spectrum                            ...  NO
X-ray spectroscopy properties:
SCF XES/XAS/RIXS spectra                ...  NO


-------------
DIPOLE MOMENT
-------------

Method             : SCF
Type of density    : Electron Density
Multiplicity       :   1
Irrep              :   0
Energy             :  -346.9413912705072107 Eh
Relativity type    : 
Basis              : AO
                                X                 Y                 Z
Electronic contribution:     -0.748625232      -3.948371691      -0.383218104
Nuclear contribution   :      1.024295050       4.761236570       0.621468066
                        -----------------------------------------
Total Dipole Moment    :      0.275669818       0.812864879       0.238249962
                        -----------------------------------------
Magnitude (a.u.)       :      0.890789652
Magnitude (Debye)      :      2.264207356



--------------------
Rotational spectrum 
--------------------
 
Rotational constants in cm-1:             0.174156             0.048705             0.042328 
Rotational constants in MHz :          5221.056298          1460.138510          1268.961226 

Dipole components along the rotational axes: 
x,y,z [a.u.] :     0.298014     0.837787     0.052977 
x,y,z [Debye]:     0.757491     2.129486     0.134658 

 

Dipole moment calculation done in   0.0 sec 

Maximum memory used throughout the entire PROP-calculation: 11.4 MB

--------------------------------
SUGGESTED CITATIONS FOR THIS RUN
--------------------------------

Below you find a list of papers that are relevant to this ORCA run
We neither can nor want to force you to cite these papers, but we appreciate if you do
You receive ORCA, which is the product of decades of hard work by many enthusiastic individuals, for free
The only thing we kindly ask in return is that you cite our papers,
We deeply appreciate it, if you show your appreciation for ORCA by not just citing the generic ORCA reference.

Please note that relegating all ORCA citations to the supporting information does *not* help us.
SI sections are not indexed - citations you put there will not count into any citation statistics
But we need these citations in order to attract the funding resources that allow us to do what we are doing

Therefore, if you are a happy ORCA user, please consider citing a few of the papers listed below in the main body of your paper

In addition to the list printed below, the program has created the file sp_gas.bibtex that contains the list in bibtex format
You can import this file easily into all common literature databanks and citation aid programs


List of essential papers. We consider these as the minimum necessary citations

  1. Neese,F.
     Software update: the ORCA program system, version 5.0
     WIRES Comput. Molec. Sci., 2022 12(1)e1606
     doi.org/10.1002/wcms.1606
  2. Grimme,S.; Hansen,A.; Ehlert,S.; Mewes,J.
     r2SCAN-3c: A 'Swiss army knife' composite electronic-structure method
     J. Chem. Phys., 2021 154 064103
     doi.org/10.1063/5.0040021

List of papers to cite with high priority. The work reported in these papers was absolutely
necessary for this run to complete.
Our perspective: the developers of density functionals and basis sets usually get cited in chemistry papers
Good! But without the algorithms to do something with them, the functionals or basis sets would not do anything.
Hence, in our opinion, the algorithm design and method developments papers are equally worthy of getting cited

  1. Neese,F.
     An improvement of the resolution of the identity approximation for the formation of the Coulomb matrix
     J. Comp. Chem., 2003 24(14)1740-1747
     doi.org/10.1002/jcc.10318
  2. Neese,F.
     The SHARK Integral Generation and Digestion System
     J. Comp. Chem., 2022  1-16
     doi.org/10.1002/jcc.26942
  3. Lehtola,S.; Steigemann,C.; Oliveira,M.; Marques,M.
     Recent developments in Libxc - A comprehensive library of functionals for density functional theory
     Software X, 2018 7 
     doi.org/10.1016/j.softx.2017.11.002
  4. Caldeweyher,E.; Bannwarth,C.; Grimme,S.
     Extension of the D3 dispersion coefficient model
     J. Chem. Phys., 2017 147 034112-XXXX
     doi.org/10.1063/1.4993215
  5. Caldeweyher,E.; Ehlert,S.; Hansen,A.; Neugebauer,H.; Spicher,S.; Bannwarth,C.; Grimme,S.
     A generally applicable atomic-charge dependent London dispersion correction
     J. Chem. Phys., 2019 150 154122-XXXX
     doi.org/10.1063/1.5090222
  6. Caldeweyher,E.; Mewes,J.; Ehlert,S.; Grimme,S.
     Extension and evaluation of the D4 London-dispersion model for periodic systems
     Phys. Chem. Chem. Phys., 2020 22(16)8499-8512
     doi.org/10.1039/D0CP00502A

List of suggested additional citations. These are papers that are important in the 'surrounding' of 
of this run, or papers that preceded the highly important papers. If you like your results we are grateful for a citation.

  1. Neese,F.
     The ORCA program system
     WIRES Comput. Molec. Sci., 2012 2(1)73-78
     doi.org/10.1002/wcms.81
  2. Neese,F.
     Software update: the ORCA program system, version 4.0
     WIRES Comput. Molec. Sci., 2018 8(1)1-6
     doi.org/10.1002/wcms.1327
  3. Neese,F.; Wennmohs,F.; Becker,U.; Riplinger,C.
     The ORCA quantum chemistry program package
     J. Chem. Phys., 2020 152 Art. No. L224108
     doi.org/10.1063/5.0004608

List of optional additional citations

  1. Neese,F.
     Approximate second-order SCF convergence for spin unrestricted wavefunctions
     Chem. Phys. Lett., 2000 325(1-3)93-98
     doi.org/10.1016/s0009-2614(00)00662-x

Timings for individual modules:

Sum of individual times          ...       20.368 sec (=   0.339 min)
Startup calculation              ...        1.067 sec (=   0.018 min)   5.2 %
SCF iterations                   ...       19.180 sec (=   0.320 min)  94.2 %
Property calculations            ...        0.121 sec (=   0.002 min)   0.6 %
                             ****ORCA TERMINATED NORMALLY****
TOTAL RUN TIME: 0 days 0 hours 0 minutes 21 seconds 88 msec
