
                                 *****************
                                 * O   R   C   A *
                                 *****************

                                            #,                                       
                                            ###                                      
                                            ####                                     
                                            #####                                    
                                            ######                                   
                                           ########,                                 
                                     ,,################,,,,,                         
                               ,,#################################,,                 
                          ,,##########################################,,             
                       ,#########################################, ''#####,          
                    ,#############################################,,   '####,        
                  ,##################################################,,,,####,       
                ,###########''''           ''''###############################       
              ,#####''   ,,,,##########,,,,          '''####'''          '####       
            ,##' ,,,,###########################,,,                        '##       
           ' ,,###''''                  '''############,,,                           
         ,,##''                                '''############,,,,        ,,,,,,###''
      ,#''                                            '''#######################'''  
     '                                                          ''''####''''         
             ,#######,   #######,   ,#######,      ##                                
            ,#'     '#,  ##    ##  ,#'     '#,    #''#        ,####,   ,####,        
            ##       ##  ##   ,#'  ##            #'  '#       #'       #'  '#        
            ##       ##  #######   ##           ,######,      #####,   #    #        
            '#,     ,#'  ##    ##  '#,     ,#' ,#      #,     #,   #   #,  ,#        
             '#######'   ##     ##  '#######'  #'      '#     '####' # '####'        



                #########################################################
                #                        -***-                          #
                #          Department of theory and spectroscopy        #
                #                                                       #
                #                      Frank Neese                      #
                #                                                       #
                #     Directorship, Architecture, Infrastructure        #
                #                    SHARK, DRIVERS                     #
                #        Core code/Algorithms in most modules           #
                #                                                       #
                #        Max Planck Institute fuer Kohlenforschung      #
                #                Kaiser Wilhelm Platz 1                 #
                #                 D-45470 Muelheim/Ruhr                 #
                #                      Germany                          #
                #                                                       #
                #                  All rights reserved                  #
                #                        -***-                          #
                #########################################################


                         Program Version 6.0.0  -   RELEASE  -


 With contributions from (in alphabetic order):
   Daniel Aravena         : Magnetic Suceptibility
   Michael Atanasov       : Ab Initio Ligand Field Theory (pilot matlab implementation)
   Alexander A. Auer      : GIAO ZORA, VPT2 properties, NMR spectrum
   Ute Becker             : All parallelization in ORCA, NUMFREQ, NUMCALC
   Giovanni Bistoni       : ED, misc. LED, open-shell LED, HFLD
   Martin Brehm           : Molecular dynamics
   Dmytro Bykov           : pre 5.0 version of the SCF Hessian
   Marcos Casanova-Páez   : Triplet and SCS-CIS(D). UHF-(DLPNO)-IP/EA/STEOM-CCSD. UHF-CVS-IP/STEOM-CCSD
   Vijay G. Chilkuri      : MRCI spin determinant printing, contributions to CSF-ICE
   Pauline Colinet        : FMM embedding
   Dipayan Datta          : RHF DLPNO-CCSD density
   Achintya Kumar Dutta   : EOM-CC, STEOM-CC
   Nicolas Foglia         : Exact transition moments, OPA infrastructure, MCD improvements
   Dmitry Ganyushin       : Spin-Orbit,Spin-Spin,Magnetic field MRCI
   Miquel Garcia          : C-PCM and meta-GGA Hessian, CCSD/C-PCM, Gaussian charge scheme
   Tiago L. C. Gouveia    : GS-ROHF, GS-ROCIS
   Yang Guo               : DLPNO-NEVPT2, F12-NEVPT2, CIM, IAO-localization
   Andreas Hansen         : Spin unrestricted coupled pair/coupled cluster methods
   Ingolf Harden          : AUTO-CI MPn and infrastructure 
   Benjamin Helmich-Paris : MC-RPA, TRAH-(SCF,CASSCF), AVAS, COSX integrals, SCF dyn. polar.
   Lee Huntington         : MR-EOM, pCC
   Robert Izsak           : Overlap fitted RIJCOSX, COSX-SCS-MP3, EOM
   Riya Kayal             : Wick's Theorem for AUTO-CI, AUTO-CI UHF-CCSDT
   Emily Kempfer          : AUTO-CI, RHF CISDT and CCSDT
   Christian Kollmar      : KDIIS, OOCD, Brueckner-CCSD(T), CCSD density, CASPT2, CASPT2-K, improved NEVPT2
   Axel Koslowski         : Symmetry handling
   Simone Kossmann        : Meta GGA functionals, TD-DFT gradient, OOMP2, (MP2 Hessian; deprecated post 5.0)
   Lucas Lang             : DCDCAS
   Marvin Lechner         : AUTO-CI (C++ implementation), FIC-MRCC
   Spencer Leger          : CASSCF response
   Dagmar Lenk            : GEPOL surface, SMD, ORCA-2-JSON
   Dimitrios Liakos       : Extrapolation schemes; Compound Job, initial MDCI parallelization
   Dimitrios Manganas     : Further ROCIS development; embedding schemes. LFT, Crystal Embedding
   Dimitrios Pantazis     : SARC Basis sets
   Anastasios Papadopoulos: AUTO-CI, single reference methods and gradients
   Taras Petrenko         : pre 6.0 DFT Hessian and TD-DFT gradient, (ASA, deprecated), ECA, 1-Electron XAS/XES, NRVS
   Peter Pinski           : DLPNO-MP2, DLPNO-MP2 Gradient
   Christoph Reimann      : Effective Core Potentials
   Marius Retegan         : Local ZFS, SOC
   Christoph Riplinger    : Optimizer, TS searches, QM/MM, DLPNO-CCSD(T), (RO)-DLPNO pert. Triples
   Michael Roemelt        : Original ROCIS implementation
   Masaaki Saitow         : Open-shell DLPNO-CCSD energy and density
   Barbara Sandhoefer     : DKH picture change effects
   Kantharuban Sivalingam : CASSCF convergence/infrastructure, NEVPT2 and variants, FIC-MRCI
   Bernardo de Souza      : ESD, SOC TD-DFT
   Georgi Stoychev        : AutoAux, RI-MP2 NMR, DLPNO-MP2 response, X2C
   Van Anh Tran           : RI-MP2 g-tensors
   Willem Van den Heuvel  : Paramagnetic NMR
   Zikuan Wang            : NOTCH, Electric field optimization 
   Frank Wennmohs         : Technical directorship and infrastructure
   Hang Xu                : AUTO-CI-Response properties 


 We gratefully acknowledge several colleagues who have allowed us to
 interface, adapt or use parts of their codes:
   Stefan Grimme, W. Hujo, H. Kruse, P. Pracht,  : VdW corrections, initial TS optimization,
                  C. Bannwarth, S. Ehlert,         DFT functionals, gCP, sTDA/sTD-DF
                  L. Wittmann, M. Mueller
   Ed Valeev, F. Pavosevic, A. Kumar             : LibInt (2-el integral package), F12 methods
   Garnet Chan, S. Sharma, J. Yang, R. Olivares  : DMRG
   Ulf Ekstrom                                   : XCFun DFT Library
   Mihaly Kallay                                 : mrcc  (arbitrary order and MRCC methods)
   Frank Weinhold                                : gennbo (NPA and NBO analysis)
   Simon Mueller                                 : openCOSMO-RS
   Christopher J. Cramer and Donald G. Truhlar   : smd solvation model
   Lars Goerigk                                  : TD-DFT with DH, B97 family of functionals
   V. Asgeirsson, H. Jonsson                     : NEB implementation
   FAccTs GmbH                                   : IRC, NEB, NEB-TS, DLPNO-Multilevel, CI-OPT
                                                   MM, QMMM, 2- and 3-layer-ONIOM, Crystal-QMMM,
                                                   LR-CPCM, SF, NACMEs, symmetry and pop. for TD-DFT,
                                                   nearIR, NL-DFT gradient (VV10), updates on ESD,
                                                   ML-optimized integration grids, MBIS, APM,
                                                   GOAT, DOCKER, SOLVATOR, interface openCOSMO-RS
   S Lehtola, MJT Oliveira, MAL Marques          : LibXC Library
   Liviu Ungur et al                             : ANISO software


 Your calculation uses the libint2 library for the computation of 2-el integrals
 For citations please refer to: http://libint.valeyev.net

 Your ORCA version has been built with support for libXC version: 6.2.2
 For citations please refer to: https://libxc.gitlab.io

 This ORCA versions uses:
   CBLAS   interface :  Fast vector & matrix operations
   LAPACKE interface :  Fast linear algebra routines
   SCALAPACK package :  Parallel linear algebra routines
   Shared memory     :  Shared parallel matrices
   BLAS/LAPACK       :  OpenBLAS 0.3.27  USE64BITINT DYNAMIC_ARCH NO_AFFINITY SkylakeX SINGLE_THREADED
        Core in use  :  SkylakeX
   Copyright (c) 2011-2014, The OpenBLAS Project


Your calculation utilizes the geometrical counterpoise correction gCP
Please cite in your paper:
H.Kruse, S. Grimme J.Chem.Phys., 136, (2012), 154101 
   

Your calculation utilizes the atom-pairwise dispersion correction
based on EEQ partial charges (D4)


Your calculation utilizes the SMD solvation module
Please cite in your paper:
A.V. Marenich, C.J. Cramer, D.G. Truhlar J. Phys. Chem. B, 113, (2009), 6378 

================================================================================

----- Orbital basis set information -----
Your calculation utilizes the basis: def2-mTZVPP
   Stefan Grimme, Andreas Hansen, Sebastian Ehlert, and Jan-Michael Mewes 
   J. Chem. Phys. 154, 064103 (2021). DOI: 10.1063/5.0040021

----- AuxJ basis set information -----
Your calculation utilizes the auxiliary basis: def2/J
   F. Weigend, Phys. Chem. Chem. Phys. 8, 1057 (2006).

================================================================================
                                        WARNINGS
                       Please study these warnings very carefully!
================================================================================

Using LibXC functional ID 497 : Re-regularized SCAN exchange by Furness et al
[ 1]  J. W. Furness, A. D. Kaplan, J. Ning, J. P. Perdew, and J. Sun.,  J. Phys. Chem. Lett. 11, 8208-8215 (2020)
[ 2]  J. W. Furness, A. D. Kaplan, J. Ning, J. P. Perdew, and J. Sun.,  J. Phys. Chem. Lett. 11, 9248-9248 (2020)
Using LibXC functional ID 498 : Re-regularized SCAN correlation by Furness et al
[ 1]  J. W. Furness, A. D. Kaplan, J. Ning, J. P. Perdew, and J. Sun.,  J. Phys. Chem. Lett. 11, 8208-8215 (2020)
[ 2]  J. W. Furness, A. D. Kaplan, J. Ning, J. P. Perdew, and J. Sun.,  J. Phys. Chem. Lett. 11, 9248-9248 (2020)
Using LibXC functional ID 497 : Re-regularized SCAN exchange by Furness et al
[ 1]  J. W. Furness, A. D. Kaplan, J. Ning, J. P. Perdew, and J. Sun.,  J. Phys. Chem. Lett. 11, 8208-8215 (2020)
[ 2]  J. W. Furness, A. D. Kaplan, J. Ning, J. P. Perdew, and J. Sun.,  J. Phys. Chem. Lett. 11, 9248-9248 (2020)
Using LibXC functional ID 498 : Re-regularized SCAN correlation by Furness et al
[ 1]  J. W. Furness, A. D. Kaplan, J. Ning, J. P. Perdew, and J. Sun.,  J. Phys. Chem. Lett. 11, 8208-8215 (2020)
[ 2]  J. W. Furness, A. D. Kaplan, J. Ning, J. P. Perdew, and J. Sun.,  J. Phys. Chem. Lett. 11, 9248-9248 (2020)

================================================================================
                                       INPUT FILE
================================================================================
NAME = sp_solv.inp
|  1> ! r2scan-3c def2/J RI DEFGRID2 scfconv6 printgap
|  2> %output
|  3>     printlevel normal
|  4> end
|  5> %cpcm
|  6>     smd true
|  7>     smdsolvent "water"
|  8> end
|  9> * xyz 0 1
| 10> C -2.4775044254 0.9695888951 -0.3457441441
| 11> C -1.7735962097 0.0729474234 0.6771474815
| 12> C -0.517670546 -0.4902957743 0.063938698
| 13> O -0.4289933368 -1.5885389343 -0.4473697091
| 14> O 0.4811856693 0.3765036748 0.1244390601
| 15> C 1.7541161973 0.0197630384 -0.4410908878
| 16> C 2.8535822753 0.6150248148 0.4198968766
| 17> H -1.8325701938 1.7982397612 -0.6261205156
| 18> H -2.7262483045 0.4005752693 -1.2384774166
| 19> H -3.3930463977 1.3651951745 0.0832926674
| 20> H -2.4212813995 -0.7563699528 0.9586096904
| 21> H -1.5046385056 0.657234313 1.5559172861
| 22> H 1.8182225714 -1.0718882038 -0.4903951507
| 23> H 1.7866027674 0.4226545071 -1.4577969599
| 24> H 2.7364634626 1.6931725807 0.476280786
| 25> H 2.8093879498 0.2043977403 1.424753047
| 26> H 3.8180876077 0.3809835205 -0.0185322251
| 27> *
| 28> 
| 29>                          ****END OF INPUT****
================================================================================

                       ****************************
                       * Single Point Calculation *
                       ****************************

---------------------------------
CARTESIAN COORDINATES (ANGSTROEM)
---------------------------------
  C     -2.477504    0.969589   -0.345744
  C     -1.773596    0.072947    0.677147
  C     -0.517671   -0.490296    0.063939
  O     -0.428993   -1.588539   -0.447370
  O      0.481186    0.376504    0.124439
  C      1.754116    0.019763   -0.441091
  C      2.853582    0.615025    0.419897
  H     -1.832570    1.798240   -0.626121
  H     -2.726248    0.400575   -1.238477
  H     -3.393046    1.365195    0.083293
  H     -2.421281   -0.756370    0.958610
  H     -1.504639    0.657234    1.555917
  H      1.818223   -1.071888   -0.490395
  H      1.786603    0.422655   -1.457797
  H      2.736463    1.693173    0.476281
  H      2.809388    0.204398    1.424753
  H      3.818088    0.380984   -0.018532

----------------------------
CARTESIAN COORDINATES (A.U.)
----------------------------
  NO LB      ZA    FRAG     MASS         X           Y           Z
   0 C     6.0000    0    12.011   -4.681805    1.832257   -0.653362
   1 C     6.0000    0    12.011   -3.351611    0.137851    1.279623
   2 C     6.0000    0    12.011   -0.978256   -0.926525    0.120827
   3 O     8.0000    0    15.999   -0.810680   -3.001904   -0.845406
   4 O     8.0000    0    15.999    0.909309    0.711489    0.235156
   5 C     6.0000    0    12.011    3.314799    0.037347   -0.833541
   6 C     6.0000    0    12.011    5.392489    1.162228    0.793490
   7 H     1.0000    0     1.008   -3.463056    3.398181   -1.183196
   8 H     1.0000    0     1.008   -5.151863    0.756978   -2.340383
   9 H     1.0000    0     1.008   -6.411928    2.579845    0.157400
  10 H     1.0000    0     1.008   -4.575559   -1.429332    1.811510
  11 H     1.0000    0     1.008   -2.843355    1.241993    2.940258
  12 H     1.0000    0     1.008    3.435943   -2.025575   -0.926713
  13 H     1.0000    0     1.008    3.376190    0.798701   -2.754837
  14 H     1.0000    0     1.008    5.171167    3.199632    0.900040
  15 H     1.0000    0     1.008    5.308974    0.386256    2.692393
  16 H     1.0000    0     1.008    7.215140    0.719955   -0.035021

--------------------------------
INTERNAL COORDINATES (ANGSTROEM)
--------------------------------
 C      0   0   0     0.000000000000     0.00000000     0.00000000
 C      1   0   0     1.531587406133     0.00000000     0.00000000
 C      2   1   0     1.506856723334   109.27498636     0.00000000
 O      3   2   1     1.214676077434   124.75759333   263.07208487
 O      3   2   1     1.323901551331   111.43909764    81.71006890
 C      5   3   2     1.437859566420   119.17776674   181.35160902
 C      6   5   3     1.518045509714   108.71280101   215.56567305
 H      1   2   3     1.086836386340   110.23832026   298.95480276
 H      1   2   3     1.087484583598   110.30780351    59.17933655
 H      1   2   3     1.085722808532   109.69149478   179.00070702
 H      2   1   3     1.089258642652   110.18300510   240.96158292
 H      2   1   3     1.089020562446   109.77520280   119.30416419
 H      6   5   3     1.094642851407   108.48092343   337.55493047
 H      6   5   3     1.094106096242   107.48249169    95.13769118
 H      7   6   5     1.085955140253   109.91597535   301.97098405
 H      7   6   5     1.086417809091   110.29891979    61.97922792
 H      7   6   5     1.085018866602   109.27236178   181.99476257

---------------------------
INTERNAL COORDINATES (A.U.)
---------------------------
 C      0   0   0     0.000000000000     0.00000000     0.00000000
 C      1   0   0     2.894280747754     0.00000000     0.00000000
 C      2   1   0     2.847546530159   109.27498636     0.00000000
 O      3   2   1     2.295405127775   124.75759333   263.07208487
 O      3   2   1     2.501811360290   111.43909764    81.71006890
 C      5   3   2     2.717160799572   119.17776674   181.35160902
 C      6   5   3     2.868690272188   108.71280101   215.56567305
 H      1   2   3     2.053823122564   110.23832026   298.95480276
 H      1   2   3     2.055048037862   110.30780351    59.17933655
 H      1   2   3     2.051718765477   109.69149478   179.00070702
 H      2   1   3     2.058400523619   110.18300510   240.96158292
 H      2   1   3     2.057950617232   109.77520280   119.30416419
 H      6   5   3     2.068575203615   108.48092343   337.55493047
 H      6   5   3     2.067560883350   107.48249169    95.13769118
 H      7   6   5     2.052157808803   109.91597535   301.97098405
 H      7   6   5     2.053032126196   110.29891979    61.97922792
 H      7   6   5     2.050388508016   109.27236178   181.99476257

---------------------
BASIS SET INFORMATION
---------------------
There are 3 groups of distinct atoms

 Group   1 Type C   : 11s6p1d contracted to 5s3p1d pattern {62111/411/1}
 Group   2 Type O   : 11s6p2d contracted to 5s3p2d pattern {62111/411/11}
 Group   3 Type H   : 4s1p contracted to 2s1p pattern {31/1}

Atom   0C    basis set group =>   1
Atom   1C    basis set group =>   1
Atom   2C    basis set group =>   1
Atom   3O    basis set group =>   2
Atom   4O    basis set group =>   2
Atom   5C    basis set group =>   1
Atom   6C    basis set group =>   1
Atom   7H    basis set group =>   3
Atom   8H    basis set group =>   3
Atom   9H    basis set group =>   3
Atom  10H    basis set group =>   3
Atom  11H    basis set group =>   3
Atom  12H    basis set group =>   3
Atom  13H    basis set group =>   3
Atom  14H    basis set group =>   3
Atom  15H    basis set group =>   3
Atom  16H    basis set group =>   3
---------------------------------
AUXILIARY/J BASIS SET INFORMATION
---------------------------------
There are 3 groups of distinct atoms

 Group   1 Type C   : 12s5p4d2f1g contracted to 6s4p3d1f1g pattern {711111/2111/211/2/1}
 Group   2 Type O   : 12s5p4d2f1g contracted to 6s4p3d1f1g pattern {711111/2111/211/2/1}
 Group   3 Type H   : 5s2p1d contracted to 3s1p1d pattern {311/2/1}

Atom   0C    basis set group =>   1
Atom   1C    basis set group =>   1
Atom   2C    basis set group =>   1
Atom   3O    basis set group =>   2
Atom   4O    basis set group =>   2
Atom   5C    basis set group =>   1
Atom   6C    basis set group =>   1
Atom   7H    basis set group =>   3
Atom   8H    basis set group =>   3
Atom   9H    basis set group =>   3
Atom  10H    basis set group =>   3
Atom  11H    basis set group =>   3
Atom  12H    basis set group =>   3
Atom  13H    basis set group =>   3
Atom  14H    basis set group =>   3
Atom  15H    basis set group =>   3
Atom  16H    basis set group =>   3

Checking for AutoStart:
The File: sp_solv.gbw exists
Trying to determine its content:
     ... Fine, the file contains calculation information
     ... Fine, the calculation information was read
     ... Fine, the file contains a basis set
     ... Fine, the basis set was read
     ... Fine, the file contains a geometry
     ... Fine, the geometry was read
     ... Fine, the file contains a set of orbitals
     ... Fine, the orbitals can be read
     => possible old guess file was deleted
     => GBW file was renamed to GES file
     => GES file is set as startup file
     => Guess is set to MORead
     ... now leaving AutoStart

------------------------------------------------------------------------------
                             ORCA STARTUP CALCULATIONS
                           -- RI-GTO INTEGRALS CHOSEN --
------------------------------------------------------------------------------
------------------------------------------------------------------------------
                   ___                                                        
                  /   \      - P O W E R E D   B Y -                         
                 /     \                                                     
                 |  |  |   _    _      __       _____    __    __             
                 |  |  |  | |  | |    /  \     |  _  \  |  |  /  |          
                  \  \/   | |  | |   /    \    | | | |  |  | /  /          
                 / \  \   | |__| |  /  /\  \   | |_| |  |  |/  /          
                |  |  |   |  __  | /  /__\  \  |    /   |      \           
                |  |  |   | |  | | |   __   |  |    \   |  |\   \          
                \     /   | |  | | |  |  |  |  | |\  \  |  | \   \       
                 \___/    |_|  |_| |__|  |__|  |_| \__\ |__|  \__/        
                                                                              
                      - O R C A' S   B I G   F R I E N D -                    
                                      &                                       
                       - I N T E G R A L  F E E D E R -                       
                                                                              
 v1 FN, 2020, v2 2021, v3 2022-2024                                           
------------------------------------------------------------------------------


----------------------
SHARK INTEGRAL PACKAGE
----------------------

Number of atoms                             ...     17
Number of basis functions                   ...    193
Number of shells                            ...     95
Maximum angular momentum                    ...      2
Integral batch strategy                     ... SHARK/LIBINT Hybrid
RI-J (if used) integral strategy            ... SPLIT-RIJ (Revised 2003 algorithm where possible)
Printlevel                                  ...      1
Contraction scheme used                     ... SEGMENTED contraction
Prescreening option                         ... SCHWARTZ
   Thresh                                   ... 1.000e-10
   Tcut                                     ... 1.000e-11
   Tpresel                                  ... 1.000e-11 
Coulomb Range Separation                    ... NOT USED
Exchange Range Separation                   ... NOT USED
Multipole approximations                    ... NOT USED
Finite Nucleus Model                        ... NOT USED
CABS basis                                  ... NOT available
Auxiliary Coulomb fitting basis             ... AVAILABLE
   # of basis functions in Aux-J            ...    453
   # of shells in Aux-J                     ...    155
   Maximum angular momentum in Aux-J        ...      4
Auxiliary J/K fitting basis                 ... NOT available
Auxiliary Correlation fitting basis         ... NOT available
Auxiliary 'external' fitting basis          ... NOT available

Checking pre-screening integrals            ... done (  0.0 sec) Dimension = 95
Check shell pair data                       ... done (  0.0 sec)
Shell pair information
Shell pair cut-off parameter TPreSel        ...   1.0e-11
Total number of shell pairs                 ...      4560
Shell pairs after pre-screening             ...      4046
Total number of primitive shell pairs       ...     16115
Primitive shell pairs kept                  ...     10289
          la=0 lb=0:   1350 shell pairs
          la=1 lb=0:   1503 shell pairs
          la=1 lb=1:    444 shell pairs
          la=2 lb=0:    453 shell pairs
          la=2 lb=1:    252 shell pairs
          la=2 lb=2:     44 shell pairs

Calculating one electron integrals          ... done (  0.0 sec)
Calculating RI/J V-Matrix + Cholesky decomp.... done (  0.1 sec)
Calculating Nuclear repulsion               ... done (  0.0 sec) ENN=    315.509530051215 Eh

Diagonalization of the overlap matrix:
Smallest eigenvalue                        ... 2.341e-04
Time for diagonalization                   ...    0.004 sec
Threshold for overlap eigenvalues          ... 1.000e-07
Number of eigenvalues below threshold      ... 0
Time for construction of square roots      ...    0.019 sec
Total time needed                          ...    0.031 sec

-------------------
DFT GRID GENERATION
-------------------

General Integration Accuracy     IntAcc      ... 4.388
Radial Grid Type                 RadialGrid  ... OptM3 with GC (2021)
Angular Grid (max. ang.)         AngularGrid ... 4 (Lebedev-302)
Angular grid pruning method      GridPruning ... 4 (adaptive)
Weight generation scheme         WeightScheme... mBecke (2022)
Basis function cutoff            BFCut       ... 1.0000e-10
Integration weight cutoff        WCut        ... 1.0000e-14
Partially contracted basis set               ... off
Rotationally invariant grid construction     ... off
Angular grids for H and He will be reduced by one unit
Diffuse basis detected: some atoms will have their outermost
                        angular grid increased by 1.

Total number of grid points                  ...    75160
Total number of batches                      ...     1183
Average number of points per batch           ...       63
Average number of grid points per atom       ...     4421
Initializing property integral containers    ... done (  0.0 sec)

SHARK setup successfully completed in   1.0 seconds

Maximum memory used throughout the entire STARTUP-calculation: 33.6 MB
-------------------------------------------------------------------------------
                                 ORCA GUESS
                   Start orbitals & Density for SCF / CASSCF
-------------------------------------------------------------------------------

------------
SCF SETTINGS
------------
Hamiltonian:
 Density Functional     Method          .... DFT(GTOs)
  Functional kind                       .... Exchange
  Functional name                       .... Re-regularized SCAN exchange by Furness et al
  Functional family                     .... MGGA
  Functional refs                              
    [ 0] J. W. Furness, A. D. Kaplan, J. Ning, J. P. Perdew, and J. Sun.,  J. Phys. Chem. Lett. 11, 8208-8215 (2020), doi: 10.1021/acs.jpclett.0c02405
    [ 1] J. W. Furness, A. D. Kaplan, J. Ning, J. P. Perdew, and J. Sun.,  J. Phys. Chem. Lett. 11, 9248-9248 (2020), doi: 10.1021/acs.jpclett.0c03077
  Functional external parameters        .... 6
    Parameter  0 _c1        =  6.670000e-01 : c1 parameter        
    Parameter  1 _c2        =  8.000000e-01 : c2 parameter        
    Parameter  2 _d         =  1.240000e+00 : d parameter         
    Parameter  3 _k1        =  6.500000e-02 : k1 parameter        
    Parameter  4 _eta       =  1.000000e-03 : eta parameter       
    Parameter  5 _dp2       =  3.610000e-01 : dp2 parameter       
  Functional kind                       .... Correlation
  Functional name                       .... Re-regularized SCAN correlation by Furness et al
  Functional family                     .... MGGA
  Functional refs                              
    [ 0] J. W. Furness, A. D. Kaplan, J. Ning, J. P. Perdew, and J. Sun.,  J. Phys. Chem. Lett. 11, 8208-8215 (2020), doi: 10.1021/acs.jpclett.0c02405
    [ 1] J. W. Furness, A. D. Kaplan, J. Ning, J. P. Perdew, and J. Sun.,  J. Phys. Chem. Lett. 11, 9248-9248 (2020), doi: 10.1021/acs.jpclett.0c03077
  Functional external parameters        .... 1
    Parameter  0 _eta       =  1.000000e-03 : Regularization parameter
 Gradients option       PostSCFGGA      .... off
 RI-approximation to the Coulomb term is turned on
   Number of AuxJ basis functions       .... 453


General Settings:
 Integral files         IntName         .... sp_solv
 Hartree-Fock type      HFTyp           .... RHF
 Total Charge           Charge          ....    0
 Multiplicity           Mult            ....    1
 Number of Electrons    NEL             ....   56
 Basis Dimension        Dim             ....  193
 Nuclear Repulsion      ENuc            ....    315.5095300512 Eh

Convergence Acceleration:
 AO-DIIS                CNVDIIS         .... on
   Start iteration      DIISMaxIt       ....    12
   Startup error        DIISStart       ....  0.200000
   # of expansion vecs  DIISMaxEq       ....     5
   Bias factor          DIISBfac        ....   1.050
   Max. coefficient     DIISMaxC        ....  10.000
 MO-DIIS                CNVKDIIS        .... off
 Trust-Rad. Augm. Hess. CNVTRAH         .... auto
   Auto Start mean grad. ratio tolernc. ....  1.125000
   Auto Start start iteration           ....     1
   Auto Start num. interpolation iter.  ....    10
   Max. Number of Micro iterations      ....    24
   Max. Number of Macro iterations      .... Maxiter - #DIIS iter
   Number of Davidson start vectors     ....     2
   Converg. threshold    (grad. norm)   ....   3.330e-04
   Grad. Scal. Fac. for Micro threshold ....   0.100
   Minimum threshold for Micro iter.    ....   1.000e-02
   NR start threshold (gradient norm)   ....   1.000e-04
   Initial trust radius                 ....   0.400
   Minimum AH scaling param. (alpha)    ....   1.000
   Maximum AH scaling param. (alpha)    .... 1000.000
   Quad. conv. algorithm                .... NR
   White noise on init. David. guess    .... on
   Maximum white noise                  ....   0.010
   Pseudo random numbers                .... off
   Inactive MOs                         .... canonical
   Orbital update algorithm             .... Taylor
   Preconditioner                       .... Diag
   Full preconditioner red. dimension   ....   250
   COSX micro iterations for RIJONX calc.... off
 SOSCF                  CNVSOSCF        .... on
   Start iteration      SOSCFMaxIt      ....   150
   Startup grad/error   SOSCFStart      ....  0.003300
   Hessian update       SOSCFHessUp     .... L-BFGS
 Level Shifting         CNVShift        .... on
   Level shift para.    LevelShift      ....    0.2500
   Turn off err/grad.   ShiftErr        ....    0.0010
 Zerner damping         CNVZerner       .... off
 Static damping         CNVDamp         .... on
   Fraction old density DampFac         ....    0.7000
   Max. Damping (<1)    DampMax         ....    0.9800
   Min. Damping (>=0)   DampMin         ....    0.0000
   Turn off err/grad.   DampErr         ....    0.1000

SCF Procedure:
 Maximum # iterations   MaxIter         ....   125
 SCF integral mode      SCFMode         .... Direct
   Integral package                     .... SHARK and LIBINT hybrid scheme
 Reset frequency        DirectResetFreq ....    20
 Integral Threshold     Thresh          ....  1.000e-10 Eh
 Primitive CutOff       TCut            ....  1.000e-11 Eh

Convergence Tolerance:
 Convergence Check Mode ConvCheckMode   .... Total+1el-Energy
 Convergence forced     ConvForced      .... 0
 Energy Change          TolE            ....  1.000e-06 Eh
 1-El. energy change                    ....  1.000e-03 Eh
 Orbital Gradient       TolG            ....  3.330e-04
 Orbital Rotation angle TolX            ....  3.330e-04
 DIIS Error             TolErr          ....  1.000e-06

---------------------
INITIAL GUESS: MOREAD
---------------------
Guess MOs are being read from file: sp_solv.ges
Input Geometry matches current geometry (good)
Atom 0: N(Shells)= 9 and 6 - projection required
Input basis set needs projection
NBasis(read)= 118
NBasis(calc)= 193
Basis set overlap was calculated
Using GuessMode=FMatrix for the initial guess
C*T matrix was formed
Effective Fockian was calculated
Effective Fockian was diagonalized
Initial density was built
                      ------------------
                      INITIAL GUESS DONE (   0.0 sec)
                      ------------------
             **** ENERGY FILE WAS UPDATED (sp_solv.en.tmp) ****
Finished Guess after   0.3 sec
Maximum memory used throughout the entire GUESS-calculation: 12.9 MB

-------------------------------------------------------------------------------------------
                                      ORCA LEAN-SCF
                              memory conserving SCF solver
-------------------------------------------------------------------------------------------

--------------------
CPCM SOLVATION MODEL
--------------------
CPCM parameters:
  Epsilon                                         ...      78.3550
  Refrac                                          ...       1.3328
  Rsolv                                           ...       1.3000
  Surface type                                    ... GAUSSIAN VDW
  Discretization scheme                           ... Constant charge density
    Threshold for H atoms                         ...       5.0000 (charges/Ang^2)
    Threshold for non-H atoms                     ...       5.0000 (charges/Ang^2)
  Epsilon function type                           ...         CPCM
Solvent:                                          ... WATER
SMD-CDS solvent descriptors:
  Soln                                            ...       1.3328
  Soln25                                          ...       1.3323
  Sola                                            ...       0.0000
  Solb                                            ...       0.0000
  Solg                                            ...       0.0000
  Solc                                            ...       0.0000
  Solh                                            ...       0.0000
Radii:
  Scheme                                          ... Element-dependent radii
  Radius for C  used is    3.4960 Bohr (=   1.8500 Ang.)
  Radius for O  used is    2.8724 Bohr (=   1.5200 Ang.)
  Radius for H  used is    2.2677 Bohr (=   1.2000 Ang.)
Calculating surface                               ...        done! (  0.0s)
Cavity surface points                             ...         1291
Cavity Volume                                     ...     761.9830
Cavity Surface-area                               ...     518.6731
Calculating surface distance matrix               ...        done! (  0.0s)
Performing Cholesky decomposition & store         ...        done! (  0.1s)
Overall time for CPCM initialization              ...                 0.1s

----------------------------------------D-I-I-S--------------------------------------------
Iteration    Energy (Eh)           Delta-E    RMSDP     MaxDP     DIISErr   Damp  Time(sec)
-------------------------------------------------------------------------------------------
               ***  Starting incremental Fock matrix formation  ***
    1    -346.7757536129070104     0.00e+00  3.55e-03  1.15e-01  6.26e-01  0.700   2.4
    2    -346.8286973525865733    -5.29e-02  2.93e-03  8.43e-02  4.41e-01  0.700   2.3
    3    -346.8661689942864541    -3.75e-02  2.17e-03  5.95e-02  3.10e-01  0.700   2.1
    4    -346.8925145309816571    -2.63e-02  1.56e-03  4.20e-02  2.17e-01  0.700   2.2
                               ***Turning on AO-DIIS***
    5    -346.9110176476335710    -1.85e-02  1.14e-03  3.04e-02  1.52e-01  0.700   2.1
    6    -346.9239913053156670    -1.30e-02  8.14e-04  2.16e-02  1.06e-01  0.700   2.1
    7    -346.9331008539120376    -9.11e-03  5.75e-04  1.52e-02  7.41e-02  0.700   2.1
    8    -346.9394858334600258    -6.38e-03  1.35e-03  3.56e-02  5.20e-02  0.000   2.0
                              *** Initializing SOSCF ***
---------------------------------------S-O-S-C-F--------------------------------------
Iteration    Energy (Eh)           Delta-E    RMSDP     MaxDP     MaxGrad    Time(sec)
--------------------------------------------------------------------------------------
    9    -346.9544160825487324    -1.49e-02  1.28e-05  3.72e-04  1.81e-04     2.1
               *** Restarting incremental Fock matrix formation ***
   10    -346.9544162432872554    -1.61e-07  7.21e-06  1.81e-04  4.24e-05     2.3
                  *** Gradient check signals convergence ***

               *****************************************************
               *                     SUCCESS                       *
               *           SCF CONVERGED AFTER  10 CYCLES          *
               *****************************************************


SMD CDS free energy correction energy :                 4.85847     Kcal/mol
Total Energy after SMD CDS correction =              -346.946673787 Eh
             **** ENERGY FILE WAS UPDATED (sp_solv.en.tmp) ****

----------------
TOTAL SCF ENERGY
----------------

Total Energy       :       -346.94667378713859 Eh           -9440.89896 eV

Components:
Nuclear Repulsion  :        315.50953005121528 Eh            8585.45079 eV
Electronic Energy  :       -662.44822386030671 Eh          -18026.13260 eV
One Electron Energy:      -1096.45832010302024 Eh          -29836.14773 eV
Two Electron Energy:        434.01009624271353 Eh           11810.01513 eV
CPCM Dielectric    :         -0.01572243419586 Eh              -0.42783 eV
SMD CDS (Gcds)     :          0.00774245614869 Eh               0.21068 eV

Virial components:
Potential Energy   :       -692.47993403234489 Eh          -18843.33698 eV
Kinetic Energy     :        345.53326024520629 Eh            9402.43802 eV
Virial Ratio       :          2.00409052819092

DFT components:
N(Alpha)           :       27.999983283165 electrons
N(Beta)            :       27.999983283165 electrons
N(Total)           :       55.999966566330 electrons
E(X)               :      -46.163795747562 Eh       
E(C)               :       -1.787448204354 Eh       
E(XC)              :      -47.951243951916 Eh       

CPCM Solvation Model Properties:
Surface-charge          :         -0.04414142419543
Corrected charge        :          0.00000000000000
Outlying charge corr.   :          0.00015457736883 Eh               0.00421 eV
Free-energy (cav+disp)  :          0.00774245614869 Eh               0.21068 eV

---------------
SCF CONVERGENCE
---------------

  Last Energy change         ...    1.6074e-07  Tolerance :   1.0000e-06
  Last MAX-Density change    ...    1.8115e-04  Tolerance :   1.0000e-05
  Last RMS-Density change    ...    7.2094e-06  Tolerance :   1.0000e-06
  Last DIIS Error            ...    1.8062e-04  Tolerance :   1.0000e-06
  Last Orbital Gradient      ...    4.2359e-05  Tolerance :   3.3300e-04
  Last Orbital Rotation      ...    1.0178e-04  Tolerance :   3.3300e-04


----------------
ORBITAL ENERGIES
----------------

  NO   OCC          E(Eh)            E(eV) 
   0   2.0000     -19.002296      -517.0788 
   1   2.0000     -18.942551      -515.4530 
   2   2.0000     -10.161924      -276.5200 
   3   2.0000     -10.082870      -274.3688 
   4   2.0000     -10.037358      -273.1304 
   5   2.0000     -10.022282      -272.7201 
   6   2.0000     -10.018556      -272.6188 
   7   2.0000      -1.078783       -29.3552 
   8   2.0000      -0.988170       -26.8895 
   9   2.0000      -0.762647       -20.7527 
  10   2.0000      -0.724376       -19.7113 
  11   2.0000      -0.633252       -17.2317 
  12   2.0000      -0.588082       -16.0025 
  13   2.0000      -0.530896       -14.4464 
  14   2.0000      -0.472912       -12.8686 
  15   2.0000      -0.458929       -12.4881 
  16   2.0000      -0.438133       -11.9222 
  17   2.0000      -0.413229       -11.2445 
  18   2.0000      -0.405108       -11.0235 
  19   2.0000      -0.368541       -10.0285 
  20   2.0000      -0.363245        -9.8844 
  21   2.0000      -0.351254        -9.5581 
  22   2.0000      -0.331594        -9.0231 
  23   2.0000      -0.324697        -8.8354 
  24   2.0000      -0.318683        -8.6718 
  25   2.0000      -0.308782        -8.4024 
  26   2.0000      -0.276344        -7.5197 
  27   2.0000      -0.248636        -6.7657 
  28   0.0000      -0.021918        -0.5964 
  29   0.0000       0.077502         2.1089 
  30   0.0000       0.104373         2.8401 
  31   0.0000       0.127852         3.4790 
  32   0.0000       0.133590         3.6352 
  33   0.0000       0.137528         3.7423 
  34   0.0000       0.152296         4.1442 
  35   0.0000       0.158938         4.3249 
  36   0.0000       0.169139         4.6025 
  37   0.0000       0.178064         4.8454 
  38   0.0000       0.182754         4.9730 
*Only the first 10 virtual orbitals were printed.

                    ********************************
                    * MULLIKEN POPULATION ANALYSIS *
                    ********************************

-----------------------
MULLIKEN ATOMIC CHARGES
-----------------------
   0 C :   -0.493221
   1 C :   -0.309379
   2 C :    0.451991
   3 O :   -0.520437
   4 O :   -0.192089
   5 C :   -0.146904
   6 C :   -0.487154
   7 H :    0.166251
   8 H :    0.164693
   9 H :    0.172680
  10 H :    0.173454
  11 H :    0.174766
  12 H :    0.177478
  13 H :    0.170202
  14 H :    0.164712
  15 H :    0.164883
  16 H :    0.168075
Sum of atomic charges:   -0.0000000

--------------------------------
MULLIKEN REDUCED ORBITAL CHARGES
--------------------------------
  0 C s       :     3.336326  s :     3.336326
      pz      :     1.020963  p :     3.130200
      px      :     1.076552
      py      :     1.032685
      dz2     :     0.004737  d :     0.026695
      dxz     :     0.004949
      dyz     :     0.007000
      dx2y2   :     0.003054
      dxy     :     0.006954

  1 C s       :     3.241969  s :     3.241969
      pz      :     1.003300  p :     3.032739
      px      :     0.970616
      py      :     1.058822
      dz2     :     0.005917  d :     0.034672
      dxz     :     0.007139
      dyz     :     0.007647
      dx2y2   :     0.005202
      dxy     :     0.008767

  2 C s       :     3.124653  s :     3.124653
      pz      :     0.731120  p :     2.298116
      px      :     0.814489
      py      :     0.752508
      dz2     :     0.013714  d :     0.125240
      dxz     :     0.016205
      dyz     :     0.021970
      dx2y2   :     0.028603
      dxy     :     0.044748

  3 O s       :     3.831644  s :     3.831644
      pz      :     1.493009  p :     4.664758
      px      :     1.806682
      py      :     1.365066
      dz2     :     0.004320  d :     0.024035
      dxz     :     0.001668
      dyz     :     0.007961
      dx2y2   :     0.007786
      dxy     :     0.002299

  4 O s       :     3.699824  s :     3.699824
      pz      :     1.686955  p :     4.453731
      px      :     1.154236
      py      :     1.612540
      dz2     :     0.008865  d :     0.038534
      dxz     :     0.013366
      dyz     :     0.005631
      dx2y2   :     0.002859
      dxy     :     0.007812

  5 C s       :     3.286117  s :     3.286117
      pz      :     1.001669  p :     2.807762
      px      :     0.723632
      py      :     1.082462
      dz2     :     0.011889  d :     0.053025
      dxz     :     0.012867
      dyz     :     0.004784
      dx2y2   :     0.014856
      dxy     :     0.008630

  6 C s       :     3.334427  s :     3.334427
      pz      :     1.040076  p :     3.127105
      px      :     1.012406
      py      :     1.074623
      dz2     :     0.006133  d :     0.025622
      dxz     :     0.005733
      dyz     :     0.003459
      dx2y2   :     0.007167
      dxy     :     0.003131

  7 H s       :     0.815515  s :     0.815515
      pz      :     0.004116  p :     0.018234
      px      :     0.006144
      py      :     0.007975

  8 H s       :     0.817100  s :     0.817100
      pz      :     0.008739  p :     0.018208
      px      :     0.003973
      py      :     0.005496

  9 H s       :     0.808927  s :     0.808927
      pz      :     0.004660  p :     0.018394
      px      :     0.009051
      py      :     0.004682

 10 H s       :     0.808685  s :     0.808685
      pz      :     0.003836  p :     0.017861
      px      :     0.006146
      py      :     0.007879

 11 H s       :     0.807159  s :     0.807159
      pz      :     0.008731  p :     0.018075
      px      :     0.003629
      py      :     0.005715

 12 H s       :     0.804394  s :     0.804394
      pz      :     0.003199  p :     0.018128
      px      :     0.002658
      py      :     0.012271

 13 H s       :     0.812326  s :     0.812326
      pz      :     0.010706  p :     0.017471
      px      :     0.002352
      py      :     0.004413

 14 H s       :     0.816959  s :     0.816959
      pz      :     0.003607  p :     0.018329
      px      :     0.003600
      py      :     0.011122

 15 H s       :     0.816837  s :     0.816837
      pz      :     0.010185  p :     0.018279
      px      :     0.003488
      py      :     0.004606

 16 H s       :     0.813424  s :     0.813424
      pz      :     0.004712  p :     0.018500
      px      :     0.009800
      py      :     0.003988


------------------------
MULLIKEN OVERLAP CHARGES
------------------------
B(  0-C ,  1-C ) :   0.4890 B(  0-C ,  2-C ) :  -0.1345 B(  0-C ,  7-H ) :   0.8471 
B(  0-C ,  8-H ) :   0.8359 B(  0-C ,  9-H ) :   0.8154 B(  1-C ,  2-C ) :   0.5201 
B(  1-C ,  3-O ) :  -0.1021 B(  1-C ,  4-O ) :  -0.0615 B(  1-C ,  7-H ) :  -0.0701 
B(  1-C ,  8-H ) :  -0.0726 B(  1-C ,  9-H ) :  -0.0938 B(  1-C , 10-H ) :   0.8657 
B(  1-C , 11-H ) :   0.8309 B(  2-C ,  3-O ) :   0.9606 B(  2-C ,  4-O ) :   0.3708 
B(  2-C ,  5-C ) :  -0.2099 B(  2-C , 10-H ) :  -0.1142 B(  2-C , 11-H ) :  -0.0864 
B(  3-O ,  4-O ) :  -0.2148 B(  4-O ,  5-C ) :   0.2505 B(  4-O ,  6-C ) :  -0.0689 
B(  4-O , 12-H ) :  -0.0693 B(  4-O , 13-H ) :  -0.0723 B(  5-C ,  6-C ) :   0.4686 
B(  5-C , 12-H ) :   0.8653 B(  5-C , 13-H ) :   0.7546 B(  5-C , 15-H ) :  -0.0859 
B(  5-C , 16-H ) :  -0.0718 B(  6-C , 12-H ) :  -0.0605 B(  6-C , 14-H ) :   0.8144 
B(  6-C , 15-H ) :   0.8417 B(  6-C , 16-H ) :   0.8161 B( 12-H , 13-H ) :  -0.0547 



                     *******************************
                     * LOEWDIN POPULATION ANALYSIS *
                     *******************************

----------------------
LOEWDIN ATOMIC CHARGES
----------------------
   0 C :   -0.393936
   1 C :   -0.233798
   2 C :    0.365682
   3 O :   -0.498457
   4 O :   -0.598389
   5 C :    0.036917
   6 C :   -0.390187
   7 H :    0.160927
   8 H :    0.160609
   9 H :    0.160480
  10 H :    0.179055
  11 H :    0.183412
  12 H :    0.192041
  13 H :    0.184409
  14 H :    0.161930
  15 H :    0.161471
  16 H :    0.167834

-------------------------------
LOEWDIN REDUCED ORBITAL CHARGES
-------------------------------
  0 C s       :     2.969806  s :     2.969806
      pz      :     1.114165  p :     3.361869
      px      :     1.129262
      py      :     1.118442
      dz2     :     0.010535  d :     0.062262
      dxz     :     0.011620
      dyz     :     0.016814
      dx2y2   :     0.006584
      dxy     :     0.016709

  1 C s       :     2.927933  s :     2.927933
      pz      :     1.092640  p :     3.232674
      px      :     1.033524
      py      :     1.106510
      dz2     :     0.011748  d :     0.073190
      dxz     :     0.014432
      dyz     :     0.017612
      dx2y2   :     0.009461
      dxy     :     0.019937

  2 C s       :     2.738719  s :     2.738719
      pz      :     0.763547  p :     2.623326
      px      :     0.926622
      py      :     0.933157
      dz2     :     0.028345  d :     0.272272
      dxz     :     0.031858
      dyz     :     0.047801
      dx2y2   :     0.063999
      dxy     :     0.100270

  3 O s       :     3.546957  s :     3.546957
      pz      :     1.501495  p :     4.733701
      px      :     1.740878
      py      :     1.491327
      dz2     :     0.028020  d :     0.217799
      dxz     :     0.020659
      dyz     :     0.055159
      dx2y2   :     0.055239
      dxy     :     0.058722

  4 O s       :     3.459946  s :     3.459946
      pz      :     1.676103  p :     4.659346
      px      :     1.349588
      py      :     1.633655
      dz2     :     0.073730  d :     0.479097
      dxz     :     0.106758
      dyz     :     0.041825
      dx2y2   :     0.135609
      dxy     :     0.121174

  5 C s       :     2.869455  s :     2.869455
      pz      :     1.040997  p :     2.974811
      px      :     0.845128
      py      :     1.088686
      dz2     :     0.026552  d :     0.118817
      dxz     :     0.029119
      dyz     :     0.009847
      dx2y2   :     0.034545
      dxy     :     0.018754

  6 C s       :     2.973335  s :     2.973335
      pz      :     1.127113  p :     3.356751
      px      :     1.085543
      py      :     1.144095
      dz2     :     0.014747  d :     0.060101
      dxz     :     0.013191
      dyz     :     0.008180
      dx2y2   :     0.017360
      dxy     :     0.006624

  7 H s       :     0.794980  s :     0.794980
      pz      :     0.009283  p :     0.044093
      px      :     0.015054
      py      :     0.019756

  8 H s       :     0.795442  s :     0.795442
      pz      :     0.021565  p :     0.043949
      px      :     0.009061
      py      :     0.013324

  9 H s       :     0.795285  s :     0.795285
      pz      :     0.010998  p :     0.044235
      px      :     0.022478
      py      :     0.010758

 10 H s       :     0.777257  s :     0.777257
      pz      :     0.008954  p :     0.043688
      px      :     0.014850
      py      :     0.019885

 11 H s       :     0.772153  s :     0.772153
      pz      :     0.021379  p :     0.044434
      px      :     0.008643
      py      :     0.014413

 12 H s       :     0.764163  s :     0.764163
      pz      :     0.007343  p :     0.043796
      px      :     0.006255
      py      :     0.030198

 13 H s       :     0.774621  s :     0.774621
      pz      :     0.025006  p :     0.040970
      px      :     0.005266
      py      :     0.010697

 14 H s       :     0.794221  s :     0.794221
      pz      :     0.008028  p :     0.043849
      px      :     0.007932
      py      :     0.027888

 15 H s       :     0.794736  s :     0.794736
      pz      :     0.025296  p :     0.043794
      px      :     0.007667
      py      :     0.010831

 16 H s       :     0.787754  s :     0.787754
      pz      :     0.011193  p :     0.044413
      px      :     0.024129
      py      :     0.009091


---------------------------------
LOEWDIN BOND ORDERS (THRESH 0.050000)
---------------------------------
B(  0-C ,  1-C ) :   1.1119 B(  0-C ,  2-C ) :   0.0822 B(  0-C ,  7-H ) :   0.9239 
B(  0-C ,  8-H ) :   0.9246 B(  0-C ,  9-H ) :   0.9238 B(  1-C ,  2-C ) :   0.9326 
B(  1-C ,  3-O ) :   0.1831 B(  1-C ,  4-O ) :   0.1834 B(  1-C , 10-H ) :   0.8736 
B(  1-C , 11-H ) :   0.8663 B(  2-C ,  3-O ) :   2.1398 B(  2-C ,  4-O ) :   1.4717 
B(  2-C ,  5-C ) :   0.0866 B(  3-O ,  4-O ) :   0.4557 B(  3-O ,  5-C ) :   0.0728 
B(  4-O ,  5-C ) :   1.2895 B(  4-O ,  6-C ) :   0.1694 B(  4-O , 12-H ) :   0.0906 
B(  4-O , 13-H ) :   0.0950 B(  5-C ,  6-C ) :   1.0899 B(  5-C , 12-H ) :   0.8114 
B(  5-C , 13-H ) :   0.8281 B(  6-C , 14-H ) :   0.9208 B(  6-C , 15-H ) :   0.9235 
B(  6-C , 16-H ) :   0.9155 

------------------------------------------
LOEWDIN REDUCED ORBITAL POPULATIONS PER MO
-------------------------------------------
THRESHOLD FOR PRINTING IS 0.1%%
                      0         1         2         3         4         5   
                 -19.00230 -18.94255 -10.16192 -10.08287 -10.03736 -10.02228
                   2.00000   2.00000   2.00000   2.00000   2.00000   2.00000
                  --------  --------  --------  --------  --------  --------
 0 C  s               0.0       0.0       0.0       0.0       0.0      99.7
 1 C  s               0.0       0.0       0.0       0.0      99.7       0.0
 2 C  s               0.0       0.0      98.9       0.0       0.0       0.0
 3 O  s               0.0      99.9       0.0       0.0       0.0       0.0
 3 O  py              0.0       0.0       0.2       0.0       0.0       0.0
 3 O  dyz             0.0       0.0       0.1       0.0       0.0       0.0
 3 O  dx2y2           0.0       0.0       0.2       0.0       0.0       0.0
 4 O  s              99.9       0.0       0.0       0.0       0.0       0.0
 4 O  dxz             0.0       0.0       0.0       0.1       0.0       0.0
 4 O  dx2y2           0.0       0.0       0.0       0.1       0.0       0.0
 4 O  dxy             0.0       0.0       0.2       0.0       0.0       0.0
 5 C  s               0.0       0.0       0.0      99.4       0.0       0.0

                      6         7         8         9        10        11   
                 -10.01856  -1.07878  -0.98817  -0.76265  -0.72438  -0.63325
                   2.00000   2.00000   2.00000   2.00000   2.00000   2.00000
                  --------  --------  --------  --------  --------  --------
 0 C  s               0.0       0.1       0.0      10.7      11.5      15.1
 0 C  pz              0.0       0.0       0.0       0.9       0.5       0.3
 0 C  px              0.0       0.2       0.0       0.7       0.2       0.5
 0 C  py              0.0       0.1       0.0       0.8       0.4       0.4
 1 C  s               0.0       1.0       0.2      19.7      10.4       0.8
 1 C  pz              0.0       0.3       0.1       0.8       0.5       1.1
 1 C  px              0.0       1.6       0.0       0.2       0.9       5.1
 1 C  py              0.0       0.2       0.3       0.3       0.3       2.1
 1 C  dxz             0.0       0.0       0.0       0.0       0.0       0.1
 2 C  s               0.0      17.0       3.2       4.3       0.4       4.0
 2 C  pz              0.0       0.4       2.3       1.8       0.1       1.9
 2 C  px              0.0       4.4       1.9       4.4       3.8       0.4
 2 C  py              0.0       0.1      19.5       5.0       0.3       1.9
 2 C  dz2             0.0       0.4       0.0       0.0       0.0       0.0
 2 C  dyz             0.0       0.2       0.6       0.0       0.0       0.0
 2 C  dx2y2           0.0       0.1       0.9       0.1       0.0       0.0
 2 C  dxy             0.0       0.4       0.4       0.0       0.2       0.0
 3 O  s               0.0      14.1      41.2       1.7       0.0       1.0
 3 O  pz              0.0       0.5       0.6       0.2       0.0       0.4
 3 O  px              0.0       0.0       0.1       0.2       0.1       0.1
 3 O  py              0.0       2.7       2.5       0.4       0.0       0.6
 3 O  dz2             0.0       0.2       0.0       0.0       0.0       0.0
 3 O  dyz             0.0       0.4       0.0       0.3       0.0       0.3
 3 O  dx2y2           0.0       0.6       0.1       0.2       0.1       0.2
 3 O  dxy             0.0       0.2       0.2       0.3       0.1       0.1
 4 O  s               0.0      39.8      18.3       0.0       1.4       0.5
 4 O  pz              0.0       0.3       0.1       0.7       0.2       1.7
 4 O  px              0.0       0.3       0.6      11.0       5.0      10.5
 4 O  py              0.0       2.3       0.4       0.1       0.3       0.3
 4 O  dz2             0.0       0.4       0.1       0.0       0.3       0.2
 4 O  dxz             0.0       0.0       0.1       0.0       0.3       0.0
 4 O  dx2y2           0.0       0.0       0.4       0.0       1.6       0.3
 4 O  dxy             0.0       0.4       0.6       0.4       0.1       0.6
 5 C  s               0.0       4.0       1.9       9.6      13.2       0.9
 5 C  pz              0.0       0.7       0.4       0.3       0.4       0.7
 5 C  px              0.0       4.5       1.2       0.3       2.9       6.0
 5 C  py              0.0       0.1       0.4       0.3       0.4       0.1
 5 C  dxz             0.0       0.1       0.1       0.0       0.1       0.2
 5 C  dx2y2           0.0       0.2       0.1       0.0       0.0       0.0
 5 C  dxy             0.0       0.0       0.0       0.0       0.0       0.1
 6 C  s              99.7       0.3       0.2       6.0      18.2      14.0
 6 C  pz              0.0       0.1       0.0       0.3       0.5       0.2
 6 C  px              0.0       0.5       0.3       0.7       0.6       1.0
 6 C  py              0.0       0.0       0.0       0.1       0.2       0.0
 7 H  s               0.0       0.0       0.0       1.5       1.8       3.6
 7 H  px              0.0       0.0       0.0       0.0       0.1       0.1
 7 H  py              0.0       0.0       0.0       0.1       0.1       0.2
 8 H  s               0.0       0.0       0.0       1.5       1.8       3.8
 8 H  pz              0.0       0.0       0.0       0.1       0.1       0.2
 8 H  py              0.0       0.0       0.0       0.0       0.0       0.1
 9 H  s               0.0       0.0       0.0       1.4       1.9       4.3
 9 H  px              0.0       0.0       0.0       0.1       0.1       0.2
10 H  s               0.0       0.1       0.0       2.6       1.9       0.2
10 H  py              0.0       0.0       0.0       0.1       0.1       0.0
11 H  s               0.0       0.1       0.0       3.0       1.5       0.4
11 H  pz              0.0       0.0       0.0       0.2       0.1       0.0
12 H  s               0.0       0.3       0.1       1.3       2.0       0.2
12 H  py              0.0       0.0       0.0       0.1       0.2       0.0
13 H  s               0.0       0.2       0.1       1.4       2.3       0.3
13 H  pz              0.0       0.0       0.0       0.1       0.2       0.0
14 H  s               0.0       0.0       0.0       0.9       3.0       3.4
14 H  py              0.0       0.0       0.0       0.1       0.3       0.3
15 H  s               0.0       0.0       0.0       0.8       2.9       3.6
15 H  pz              0.0       0.0       0.0       0.1       0.2       0.2
16 H  s               0.0       0.0       0.0       0.8       3.1       4.1
16 H  px              0.0       0.0       0.0       0.1       0.2       0.3

                     12        13        14        15        16        17   
                  -0.58808  -0.53090  -0.47291  -0.45893  -0.43813  -0.41323
                   2.00000   2.00000   2.00000   2.00000   2.00000   2.00000
                  --------  --------  --------  --------  --------  --------
 0 C  s               9.8       0.2       0.0       0.1       0.2       0.1
 0 C  pz              2.1       0.6       4.3       1.0       3.8       1.7
 0 C  px              0.7       0.0       1.3       1.2       0.5       0.2
 0 C  py              1.8       0.2       0.2       0.4       1.8      13.1
 1 C  s               8.9       1.2       1.6       0.2       1.1       0.2
 1 C  pz              2.7       1.0      11.0       0.7       1.0       8.1
 1 C  px              0.3       0.9       3.6       0.4      10.4       1.8
 1 C  py              3.0       0.1       1.8       5.1       0.1       4.4
 1 C  dxz             0.0       0.0       0.1       0.0       0.0       0.0
 2 C  s               0.2       2.7       1.6       2.1       0.3       0.4
 2 C  pz              1.1       0.3       2.8       0.9      10.3       3.3
 2 C  px              5.5       1.7      10.3       0.0       2.9       1.4
 2 C  py              0.3       1.2       0.9       5.6       0.2       4.0
 2 C  dxz             0.1       0.0       0.0       0.0       0.1       0.0
 2 C  dx2y2           0.1       0.0       0.0       0.2       0.0       0.2
 2 C  dxy             0.1       0.0       0.0       0.0       0.0       0.0
 3 O  s               0.2       2.3       1.5      11.2       1.2       1.6
 3 O  pz              0.2       0.1       0.0      10.5       1.7      10.5
 3 O  px              0.6       1.2       7.4       0.2       1.3       0.4
 3 O  py              0.0       3.2       5.0      20.5       7.7       4.9
 3 O  dz2             0.0       0.1       0.1       0.0       0.2       0.3
 3 O  dxz             0.2       0.0       0.1       0.0       0.0       0.0
 3 O  dyz             0.0       0.0       0.0       0.4       0.3       0.2
 3 O  dx2y2           0.1       0.1       0.3       0.1       0.1       0.0
 3 O  dxy             0.1       0.1       0.8       0.0       0.2       0.1
 4 O  s               0.3       5.7       0.2       0.5       0.3       0.1
 4 O  pz              0.6       1.6       4.4       0.6      21.5       0.9
 4 O  px              6.9       9.7       0.2       7.3       0.2       0.1
 4 O  py              0.3      10.7       9.7       7.8       1.5       0.2
 4 O  dz2             0.0       0.0       0.0       0.2       0.4       0.0
 4 O  dxz             1.1       0.5       0.0       0.4       0.1       0.7
 4 O  dyz             0.0       0.1       0.0       0.0       0.3       0.2
 4 O  dx2y2           0.3       0.0       0.7       0.1       0.4       0.0
 4 O  dxy             0.1       0.2       0.8       0.1       0.1       0.7
 5 C  s               5.1       6.9       0.0       0.3       0.7       0.0
 5 C  pz              1.5       8.6       2.7       7.2       3.9       1.6
 5 C  px              1.6       3.3       0.0       1.4       3.0       0.2
 5 C  py              0.2       8.5       8.8       1.3       1.1       7.5
 5 C  dxz             0.1       0.1       0.0       0.0       0.0       0.0
 5 C  dyz             0.0       0.1       0.0       0.0       0.0       0.0
 5 C  dx2y2           0.0       0.2       0.0       0.0       0.1       0.0
 5 C  dxy             0.0       0.1       0.0       0.0       0.0       0.0
 6 C  s               7.8       0.8       0.0       0.0       0.5       0.0
 6 C  pz              1.1       3.0       1.0       2.5       0.2       3.4
 6 C  px              2.0       0.0       0.1       0.3       4.5       0.6
 6 C  py              0.4       2.2       1.6       0.3       3.6       4.7
 7 H  s               3.8       0.3       0.2       0.1       1.8       2.2
 7 H  px              0.1       0.0       0.0       0.0       0.0       0.1
 7 H  py              0.1       0.0       0.0       0.0       0.0       0.0
 8 H  s               3.4       0.2       0.8       0.9       0.5       2.2
 8 H  pz              0.1       0.0       0.0       0.0       0.0       0.1
 8 H  py              0.1       0.0       0.0       0.0       0.0       0.0
 9 H  s               3.5       0.0       0.8       0.1       0.0       2.3
 9 H  px              0.2       0.0       0.0       0.0       0.0       0.1
10 H  s               4.1       1.2       1.5       0.5       3.1       1.4
10 H  pz              0.0       0.0       0.0       0.0       0.0       0.1
10 H  px              0.2       0.0       0.0       0.0       0.0       0.0
10 H  py              0.2       0.1       0.1       0.0       0.2       0.0
11 H  s               2.9       0.7       5.2       1.9       0.4       4.2
11 H  pz              0.1       0.0       0.1       0.1       0.0       0.1
11 H  px              0.0       0.0       0.1       0.0       0.1       0.0
11 H  py              0.1       0.0       0.1       0.0       0.0       0.0
12 H  s               1.6       8.8       2.5       0.0       1.2       2.3
12 H  py              0.1       0.5       0.1       0.0       0.1       0.1
13 H  s               2.2       5.4       2.2       3.5       0.5       2.2
13 H  pz              0.1       0.2       0.1       0.1       0.0       0.1
13 H  py              0.0       0.2       0.0       0.0       0.0       0.0
14 H  s               2.6       1.4       0.3       0.0       1.9       1.3
14 H  py              0.2       0.1       0.0       0.0       0.1       0.0
15 H  s               2.8       0.8       0.6       0.8       0.0       2.5
15 H  pz              0.2       0.0       0.0       0.0       0.0       0.1
16 H  s               2.9       0.0       0.0       0.3       1.3       0.1
16 H  px              0.1       0.0       0.0       0.0       0.0       0.0

                     18        19        20        21        22        23   
                  -0.40511  -0.36854  -0.36324  -0.35125  -0.33159  -0.32470
                   2.00000   2.00000   2.00000   2.00000   2.00000   2.00000
                  --------  --------  --------  --------  --------  --------
 0 C  s               0.1       0.0       0.1       0.1       0.2       0.3
 0 C  pz              1.5       6.3       3.3       0.2      24.8       2.8
 0 C  px             17.1       4.0       0.7      12.6       0.9       1.6
 0 C  py              3.7       0.5       4.2       6.3       0.5      11.0
 0 C  dz2             0.0       0.0       0.0       0.0       0.1       0.0
 0 C  dxz             0.0       0.0       0.0       0.1       0.0       0.1
 0 C  dxy             0.0       0.0       0.1       0.0       0.3       0.0
 1 C  s               0.2       0.1       0.0       0.3       0.3       0.1
 1 C  pz              0.1       0.1       1.2       2.2      14.9       5.5
 1 C  px              4.5       1.5       2.0       1.6       0.1       1.5
 1 C  py             13.9       0.3       1.7       2.8       0.3       6.0
 1 C  dz2             0.1       0.0       0.0       0.1       0.1       0.0
 1 C  dxz             0.0       0.0       0.0       0.1       0.0       0.1
 1 C  dxy             0.0       0.0       0.0       0.0       0.4       0.1
 2 C  s               0.0       0.1       0.1       0.3       0.3       0.1
 2 C  pz              4.0       2.9       2.5       0.1       0.8       1.7
 2 C  px              0.8       0.2       0.8       1.4       2.4       1.0
 2 C  py              0.9       1.0       0.7       0.5       0.8       1.7
 2 C  dz2             0.1       0.0       0.0       0.0       0.1       0.3
 2 C  dyz             0.0       0.1       0.1       0.0       0.0       0.1
 2 C  dx2y2           0.0       0.3       0.0       0.0       0.1       0.4
 2 C  dxy             0.2       0.2       0.0       0.1       0.0       0.2
 3 O  s               0.2       0.4       0.0       0.1       0.1       0.1
 3 O  pz              2.4       0.3       4.1       0.1       0.4      18.6
 3 O  px              0.0       3.3       0.4       2.1       2.4       3.4
 3 O  py              3.6       6.8       2.1       0.4       3.0       0.4
 3 O  dz2             0.1       0.0       0.0       0.0       0.0       0.1
 3 O  dxz             0.0       0.0       0.1       0.1       0.0       0.0
 3 O  dyz             0.1       0.1       0.0       0.0       0.1       0.0
 4 O  s               0.6       2.1       0.3       0.1       0.0       0.3
 4 O  pz              2.8       0.5       2.9       3.0       0.1       0.8
 4 O  px              1.9       0.9       2.1       1.7       1.2       0.4
 4 O  py              0.0      11.1       0.1       1.3       2.8       4.5
 4 O  dz2             0.2       0.0       0.3       0.1       0.1       0.1
 4 O  dxz             0.4       0.3       0.4       0.1       0.0       0.2
 4 O  dyz             0.2       0.0       0.1       0.0       0.0       0.1
 4 O  dx2y2           0.3       0.0       0.6       0.1       0.0       0.3
 4 O  dxy             0.3       0.1       0.2       0.0       0.0       0.0
 5 C  s               0.0       0.0       0.4       0.2       0.0       0.2
 5 C  pz              2.8       0.9       3.3       2.7       0.0       6.4
 5 C  px              1.6       4.7       6.2       1.1       1.5       0.0
 5 C  py              1.8       0.0       1.9       0.4       1.6       0.3
 5 C  dz2             0.0       0.0       0.1       0.1       0.0       0.2
 5 C  dxz             0.0       0.0       0.1       0.0       0.1       0.0
 5 C  dxy             0.0       0.1       0.2       0.0       0.0       0.1
 6 C  s               0.0       0.0       0.2       0.1       0.0       0.1
 6 C  pz              5.8       2.8       0.1      23.7       0.7       8.3
 6 C  px              0.2       1.4      32.3       2.6       1.9       0.2
 6 C  py              1.1      22.5       1.7       0.0       4.5       1.4
 6 C  dz2             0.0       0.0       0.0       0.2       0.1       0.2
 6 C  dxz             0.0       0.0       0.3       0.0       0.0       0.0
 6 C  dyz             0.0       0.0       0.0       0.1       0.0       0.1
 6 C  dx2y2           0.0       0.2       0.1       0.1       0.0       0.0
 7 H  s               3.9       0.8       3.3       0.0       1.0       2.3
 7 H  pz              0.1       0.0       0.0       0.0       0.2       0.0
 7 H  px              0.0       0.0       0.0       0.1       0.0       0.1
 7 H  py              0.1       0.1       0.0       0.1       0.0       0.0
 8 H  s               3.8       1.9       0.1       0.4      10.2       0.0
 8 H  pz              0.1       0.0       0.0       0.0       0.0       0.1
 8 H  px              0.0       0.1       0.0       0.1       0.0       0.0
 8 H  py              0.0       0.0       0.0       0.0       0.1       0.1
 9 H  s               2.6       3.8       0.2       8.8       5.7       1.3
 9 H  px              0.0       0.1       0.0       0.1       0.2       0.0
10 H  s               5.8       0.0       0.1       0.1       1.9       1.7
11 H  s               2.6       0.0       0.1       0.0       5.8       0.4
11 H  pz              0.2       0.0       0.0       0.0       0.0       0.0
11 H  py              0.0       0.0       0.0       0.0       0.1       0.1
12 H  s               0.4       0.0       0.1       0.4       0.7       0.1
13 H  s               2.1       0.4       0.1       1.6       0.4       4.6
14 H  s               0.2      11.9       1.5       0.1       2.0       0.9
14 H  pz              0.0       0.0       0.0       0.2       0.0       0.1
14 H  px              0.0       0.0       0.2       0.0       0.0       0.0
14 H  py              0.0       0.2       0.1       0.0       0.0       0.0
15 H  s               2.8       0.0       0.2      11.5       1.7       5.8
15 H  pz              0.1       0.0       0.0       0.1       0.0       0.0
15 H  px              0.0       0.0       0.3       0.0       0.0       0.0
15 H  py              0.0       0.2       0.0       0.1       0.0       0.0
16 H  s               0.5       3.4      14.6       5.9       0.7       0.2
16 H  pz              0.0       0.0       0.2       0.0       0.0       0.0
16 H  px              0.0       0.1       0.1       0.2       0.0       0.0

                     24        25        26        27        28        29   
                  -0.31868  -0.30878  -0.27634  -0.24864  -0.02192   0.07750
                   2.00000   2.00000   2.00000   2.00000   0.00000   0.00000
                  --------  --------  --------  --------  --------  --------
 0 C  s               0.0       0.0       0.0       0.0       1.9       6.3
 0 C  pz              1.3       0.1       0.1       0.1       1.3       1.1
 0 C  px             12.0       0.6       0.7       0.7       0.4       2.6
 0 C  py              9.7       0.1       0.1       0.7       1.1       1.9
 0 C  dz2             0.1       0.0       0.0       0.1       0.0       0.0
 0 C  dxz             0.1       0.0       0.0       0.0       0.0       0.3
 0 C  dyz             0.4       0.0       0.0       0.0       0.0       0.2
 0 C  dxy             0.1       0.0       0.0       0.1       0.1       0.1
 1 C  s               0.0       0.1       0.0       0.5       0.1      10.1
 1 C  pz              1.2       0.2       0.0       1.9       0.0       1.2
 1 C  px              9.8       1.7       0.5       3.3       0.5       0.3
 1 C  py              8.7       0.3       0.0       3.6       0.3       0.5
 1 C  dz2             0.2       0.0       0.0       0.0       0.3       0.0
 1 C  dxz             0.1       0.0       0.0       0.0       0.7       0.0
 1 C  dyz             0.4       0.0       0.0       0.0       0.4       0.0
 1 C  dxy             0.1       0.1       0.0       0.0       0.5       0.0
 2 C  s               0.1       0.4       0.0       0.4       0.0      12.3
 2 C  pz              0.0       0.8       0.0       0.4      31.5       0.4
 2 C  px              1.2       0.2       0.1       1.5       3.2       1.5
 2 C  py              0.2       1.5       0.0       0.5       6.1       0.9
 2 C  dz2             0.1       0.0       0.2       0.2       0.5       0.9
 2 C  dxz             0.0       0.1       0.5       0.5       0.1       0.4
 2 C  dyz             0.2       0.2       0.7       0.1       0.1       0.6
 2 C  dx2y2           0.0       0.2       0.4       0.2       0.0       0.0
 2 C  dxy             0.1       0.0       0.1       2.8       0.2       0.1
 3 O  s               0.0       0.4       0.0       0.0       0.0       2.6
 3 O  pz              1.8       0.3      15.8       6.7      16.7       0.1
 3 O  px              0.3       0.1       5.5      57.9       1.9       0.4
 3 O  py              0.9       5.2       2.6       1.8       3.1       0.3
 3 O  dz2             0.0       0.0       0.0       0.0       3.6       1.0
 3 O  dxz             0.1       0.0       0.1       0.2       0.0       0.7
 3 O  dyz             0.0       0.1       0.1       0.1       2.6       1.0
 3 O  dx2y2           0.0       0.6       0.0       0.0       0.6       0.0
 3 O  dxy             0.0       0.0       0.0       0.6       0.8       0.0
 4 O  s               0.0       2.2       0.0       0.3       0.0       6.7
 4 O  pz              0.3       8.8      30.5       1.3       7.9       0.3
 4 O  px              1.9       0.8       2.7       2.1       0.8       0.5
 4 O  py              0.1      15.6       9.0       3.4       1.6       0.8
 4 O  dz2             0.0       0.0       1.1       0.1       0.0       1.0
 4 O  dxz             0.3       0.1       0.2       0.0       2.8       0.9
 4 O  dyz             0.1       0.6       0.0       0.1       1.5       1.5
 4 O  dx2y2           0.0       1.2       0.0       0.1       1.1       1.0
 4 O  dxy             0.0       0.6       0.1       0.3       0.3       0.0
 5 C  s               0.0       0.5       0.0       0.1       0.0       3.6
 5 C  pz              0.0       1.3       6.7       0.0       0.0       2.8
 5 C  px              1.3       0.0       0.4       0.6       0.0      12.5
 5 C  py              0.8      16.2       1.8       0.8       0.0       1.0
 5 C  dz2             0.0       0.0       0.7       0.0       0.2       0.1
 5 C  dxz             0.1       0.1       0.3       0.0       0.1       0.4
 5 C  dyz             0.0       0.0       0.1       0.0       0.0       0.1
 5 C  dx2y2           0.0       0.9       0.0       0.0       0.0       0.8
 6 C  s               0.0       0.4       0.2       0.0       0.1       1.6
 6 C  pz              0.0       0.4       2.2       0.0       0.0       0.2
 6 C  px              2.1       1.0       1.6       0.3       0.1       0.7
 6 C  py              0.9      11.5       0.1       0.2       0.1       0.3
 6 C  dz2             0.0       0.1       0.1       0.0       0.0       0.2
 6 C  dxz             0.0       0.0       0.0       0.0       0.0       0.1
 6 C  dyz             0.0       0.0       0.0       0.0       0.0       0.1
 6 C  dx2y2           0.0       0.3       0.0       0.0       0.0       0.2
 7 H  s              12.1       0.5       0.3       0.0       0.1       1.0
 7 H  px              0.0       0.0       0.0       0.0       0.0       0.6
 8 H  s               7.6       0.0       0.1       0.5       0.1       0.7
 8 H  pz              0.1       0.0       0.0       0.0       0.1       0.1
 8 H  py              0.0       0.0       0.0       0.0       0.0       0.4
 9 H  s               1.1       0.4       0.2       1.2       0.8       1.5
 9 H  pz              0.0       0.0       0.0       0.0       0.0       0.4
 9 H  px              0.0       0.0       0.0       0.0       0.1       0.1
 9 H  py              0.1       0.0       0.0       0.0       0.1       0.0
10 H  s              11.3       1.2       0.1       0.1       0.6       0.9
10 H  px              0.0       0.0       0.0       0.1       0.0       0.3
10 H  py              0.1       0.0       0.0       0.0       0.0       0.2
11 H  s               7.5       0.0       0.0       1.8       1.4       0.7
11 H  pz              0.1       0.0       0.0       0.0       0.0       0.3
11 H  py              0.0       0.0       0.0       0.0       0.0       0.1
12 H  s               0.4      13.1       2.4       0.2       0.1       0.9
12 H  pz              0.0       0.0       0.1       0.0       0.0       0.2
12 H  px              0.0       0.0       0.0       0.0       0.0       0.3
12 H  py              0.0       0.1       0.0       0.1       0.0       0.4
13 H  s               0.1       0.3       8.7       0.0       0.8       1.2
13 H  pz              0.0       0.1       0.0       0.0       0.0       0.2
13 H  px              0.0       0.0       0.0       0.0       0.0       0.5
13 H  py              0.0       0.1       0.0       0.0       0.0       0.4
14 H  s               0.3       7.1       0.6       0.3       0.0       0.2
14 H  px              0.0       0.0       0.0       0.0       0.0       0.1
15 H  s               0.3       0.8       1.6       0.0       0.0       0.3
16 H  s               0.8       0.1       0.2       0.4       0.1       1.9
16 H  px              0.0       0.0       0.0       0.0       0.0       0.2

                     30        31        32        33        34        35   
                   0.10437   0.12785   0.13359   0.13753   0.15230   0.15894
                   0.00000   0.00000   0.00000   0.00000   0.00000   0.00000
                  --------  --------  --------  --------  --------  --------
 0 C  s               0.4       0.4      30.2       3.2       0.1       0.1
 0 C  pz              0.1       1.5       3.7       5.2       1.7       0.5
 0 C  px              1.0       1.6       6.5       2.0       2.2       2.2
 0 C  py              0.0       0.5       7.1       0.6       1.7       4.4
 0 C  dz2             0.0       0.0       0.0       0.2       0.7       0.1
 0 C  dxz             0.0       0.1       0.2       0.1       0.1       1.1
 0 C  dyz             0.0       0.4       0.1       0.5       0.0       0.0
 0 C  dx2y2           0.0       0.0       0.1       0.0       0.1       0.2
 1 C  s               0.1       3.2       1.3      11.5       0.4       0.6
 1 C  pz              0.3       1.3       5.6       3.6       7.4       6.3
 1 C  px              1.2       0.4       3.8       1.8       8.9       1.2
 1 C  py              0.8       0.8       4.8       0.3       3.0       1.9
 1 C  dz2             0.2       0.1       0.2       0.0       0.1       0.2
 1 C  dxz             0.1       0.1       0.1       0.0       1.1       0.0
 1 C  dyz             0.0       0.0       0.9       0.0       0.2       0.1
 1 C  dx2y2           0.1       0.2       0.0       0.1       0.3       0.3
 1 C  dxy             0.2       0.1       0.0       0.2       0.8       0.3
 2 C  s               1.5       1.4       0.1       0.2       3.1       0.0
 2 C  pz              0.5       1.6       6.2       2.6       3.9       1.8
 2 C  px              0.1       1.8       0.4       1.6       0.3       0.3
 2 C  py              2.7       2.2       0.8       0.0       2.3      11.1
 2 C  dz2             0.0       0.0       0.1       0.0       0.3       0.0
 2 C  dxz             0.0       0.0       0.0       0.0       0.1       0.0
 2 C  dyz             0.4       0.2       0.0       0.0       0.1       0.0
[...]
 3 O  py              0.0       0.1       1.3       0.8       0.1      17.8
 3 O  dz2             0.0       0.1       2.2       0.1       0.0       1.8
 3 O  dxz             0.2       0.0       2.1       0.0       0.7       0.1
 3 O  dyz             0.1       0.0       0.3       0.8       0.1      14.3
 3 O  dx2y2           0.0       0.3       0.1       1.6       0.4      16.5
 3 O  dxy             1.6       0.6      16.3       0.0       1.0       0.5
 4 O  s               0.2       0.1       3.8      25.2       5.8       1.6
 4 O  pz              0.2       0.1       0.6       2.9       0.4       0.1
 4 O  px              0.0       0.1       0.1       7.5      25.7       0.5
 4 O  py              0.6       0.2       5.9       3.7       5.2       0.2
 4 O  dz2             0.1       0.0       0.5       5.9       4.0       0.4
 4 O  dxz             0.0       0.5       0.1       7.0       1.6       0.7
 4 O  dyz             0.8       0.2       2.5       0.9       0.0       0.1
 4 O  dx2y2           0.7       0.2       6.3      11.3       0.1       1.0
 4 O  dxy             0.0       0.0       0.0       0.0      24.3       0.1
 5 C  s               0.0       0.1       0.1       1.4       0.5       0.2
 5 C  pz              0.8       0.4       0.0       2.0       0.3       0.1
 5 C  px              0.2       0.2       0.0       5.7       1.6       0.3
 5 C  py              4.7       4.9       0.0       0.3       0.3       0.0
 5 C  dz2             6.4       6.0       0.0       1.7       0.0       0.0
 5 C  dxz             0.0       0.0       0.0       3.7       0.9       0.2
 5 C  dyz             0.7       0.8       0.3       0.9       0.0       0.0
 5 C  dx2y2           2.9       3.9       0.4       5.3       1.8       0.2
 5 C  dxy             0.0       0.3       1.1       1.5       0.3       0.1
 6 C  pz              0.1       0.1       0.1       0.1       0.0       0.0
 6 C  py              0.9       1.4       0.2       0.0       0.0       0.0
 6 C  dz2             0.6       2.1       1.0       0.1       0.0       0.0
 6 C  dxz             0.1       0.0       0.1       0.2       0.0       0.0
 6 C  dyz             0.0       0.2       0.1       0.0       0.0       0.0
 6 C  dx2y2           2.4       2.0       0.0       0.2       0.0       0.0
 6 C  dxy             0.2       0.5       0.1       0.1       0.0       0.0
 7 H  s               0.3       0.4       0.3       0.0       0.0       0.0
 7 H  pz              0.1       0.1       0.1       0.0       0.0       0.0
 7 H  px              0.1       0.3       0.0       0.0       0.0       0.0
 7 H  py              0.4       0.8       0.8       0.0       0.0       0.0
 8 H  s               1.3       0.7       0.0       0.0       0.0       0.0
 8 H  pz              2.3       1.3       0.0       0.0       0.0       0.0
 8 H  px              0.4       0.3       0.0       0.0       0.0       0.0
 8 H  py              0.6       0.2       0.0       0.0       0.0       0.0
 9 H  s               0.3       0.1       0.7       0.0       0.0       0.0
 9 H  pz              0.1       0.1       0.2       0.0       0.0       0.0
 9 H  px              0.3       0.1       1.6       0.0       0.0       0.0
 9 H  py              0.2       0.1       0.1       0.0       0.0       0.0
10 H  s               1.7       3.3       2.4       0.0       0.0       0.0
10 H  pz              0.4       0.6       0.6       0.0       0.0       0.0
10 H  px              1.2       2.4       1.2       0.0       0.0       0.0
10 H  py              1.9       4.4       2.9       0.0       0.0       0.0
11 H  s               3.9       3.0       0.2       0.0       0.0       0.0
11 H  pz              7.5       5.1       0.2       0.0       0.0       0.0
11 H  px              0.5       0.4       0.0       0.0       0.0       0.0
11 H  py              1.8       1.1       0.1       0.0       0.0       0.0
12 H  s               3.8       3.9       0.1       0.2       0.2       0.0
12 H  pz              0.2       0.1       0.1       0.1       0.0       0.0
12 H  px              0.2       0.0       0.9       0.1       0.1       0.0
12 H  py              9.1       9.6       0.2       0.4       0.3       0.0
13 H  s               2.3       1.9       0.0       0.7       0.0       0.0
13 H  pz              4.9       4.3       0.1       0.8       0.0       0.0
13 H  px              0.0       0.1       0.0       0.4       0.0       0.0
13 H  py              0.3       0.2       0.0       0.4       0.0       0.0
14 H  s               1.0       1.4       0.2       0.0       0.0       0.0
14 H  py              3.0       3.7       0.4       0.0       0.0       0.0
15 H  s               0.0       0.4       0.3       0.0       0.0       0.0
15 H  pz              0.2       1.0       0.4       0.0       0.0       0.0
15 H  py              0.0       0.1       0.1       0.0       0.0       0.0
16 H  s               0.2       0.0       0.1       0.1       0.0       0.0
16 H  px              0.5       0.1       0.1       0.2       0.0       0.0
16 H  py              0.1       0.0       0.0       0.0       0.0       0.0

                    186       187       188       189       190       191   
                  21.89881  21.92501  21.98257  22.06746  22.25604  43.67150
                   0.00000   0.00000   0.00000   0.00000   0.00000   0.00000
                  --------  --------  --------  --------  --------  --------
 0 C  s              13.9      79.4       2.0       0.4       4.1       0.0
 1 C  s               9.8       0.2      42.6      46.4       0.7       0.0
 2 C  s               0.1       3.5       1.2       0.2      94.1       0.0
 3 O  s               0.0       0.0       0.0       0.0       0.2      99.6
 3 O  py              0.0       0.0       0.0       0.0       0.1       0.0
 4 O  s               0.0       0.0       0.0       0.1       0.1       0.3
 5 C  s              13.5       1.1      33.1      51.7       0.2       0.0
 6 C  s              62.3      15.5      20.9       0.9       0.0       0.0

                    192   
                  43.74856
                   0.00000
                  --------
 3 O  s               0.3
 4 O  s              99.6


                      *****************************
                      * MAYER POPULATION ANALYSIS *
                      *****************************

  NA   - Mulliken gross atomic population
  ZA   - Total nuclear charge
  QA   - Mulliken gross atomic charge
  VA   - Mayer's total valence
  BVA  - Mayer's bonded valence
  FA   - Mayer's free valence

  ATOM       NA         ZA         QA         VA         BVA        FA
  0 C      6.4932     6.0000    -0.4932     3.8072     3.8072    -0.0000
  1 C      6.3094     6.0000    -0.3094     3.7650     3.7650    -0.0000
  2 C      5.5480     6.0000     0.4520     3.7277     3.7277    -0.0000
  3 O      8.5204     8.0000    -0.5204     1.8837     1.8837    -0.0000
  4 O      8.1921     8.0000    -0.1921     1.9286     1.9286     0.0000
  5 C      6.1469     6.0000    -0.1469     3.6055     3.6055     0.0000
  6 C      6.4872     6.0000    -0.4872     3.8488     3.8488    -0.0000
  7 H      0.8337     1.0000     0.1663     0.9587     0.9587     0.0000
  8 H      0.8353     1.0000     0.1647     0.9585     0.9585    -0.0000
  9 H      0.8273     1.0000     0.1727     0.9551     0.9551    -0.0000
 10 H      0.8265     1.0000     0.1735     0.9562     0.9562    -0.0000
 11 H      0.8252     1.0000     0.1748     0.9559     0.9559    -0.0000
 12 H      0.8225     1.0000     0.1775     0.9534     0.9534    -0.0000
 13 H      0.8298     1.0000     0.1702     0.9453     0.9453    -0.0000
 14 H      0.8353     1.0000     0.1647     0.9567     0.9567     0.0000
 15 H      0.8351     1.0000     0.1649     0.9568     0.9568     0.0000
 16 H      0.8319     1.0000     0.1681     0.9588     0.9588    -0.0000

  Mayer bond orders larger than 0.100000
B(  0-C ,  1-C ) :   0.8891 B(  0-C ,  7-H ) :   0.9737 B(  0-C ,  8-H ) :   0.9710 
B(  0-C ,  9-H ) :   0.9655 B(  1-C ,  2-C ) :   0.9574 B(  1-C , 10-H ) :   0.9711 
B(  1-C , 11-H ) :   0.9603 B(  2-C ,  3-O ) :   1.7675 B(  2-C ,  4-O ) :   1.0866 
B(  4-O ,  5-C ) :   0.7701 B(  5-C ,  6-C ) :   0.9456 B(  5-C , 12-H ) :   0.9621 
B(  5-C , 13-H ) :   0.9370 B(  6-C , 14-H ) :   0.9666 B(  6-C , 15-H ) :   0.9723 
B(  6-C , 16-H ) :   0.9612 

-------
TIMINGS
-------

Total SCF time: 0 days 0 hours 0 min 22 sec 

Total time                  ....      22.094 sec
Sum of individual times     ....      21.553 sec  ( 97.6%)

SCF preparation             ....       0.280 sec  (  1.3%)
Fock matrix formation       ....      20.323 sec  ( 92.0%)
  Startup                   ....       0.065 sec  (  0.3% of F)
  Split-RI-J                ....       3.046 sec  ( 15.0% of F)
  XC integration            ....      12.992 sec  ( 63.9% of F)
    XC Preparation          ....       0.000 sec  (  0.0% of XC)
    Basis function eval.    ....       2.402 sec  ( 18.5% of XC)
    Density eval.           ....       3.580 sec  ( 27.6% of XC)
    XC-Functional eval.     ....       1.751 sec  ( 13.5% of XC)
    XC-Potential eval.      ....       4.216 sec  ( 32.4% of XC)
  CPCM terms                ....       3.618 sec  ( 17.8% of F)
Diagonalization             ....       0.000 sec  (  0.0%)
Density matrix formation    ....       0.278 sec  (  1.3%)
Total Energy calculation    ....       0.049 sec  (  0.2%)
Population analysis         ....       0.097 sec  (  0.4%)
Orbital Transformation      ....       0.052 sec  (  0.2%)
Orbital Orthonormalization  ....       0.000 sec  (  0.0%)
DIIS solution               ....       0.425 sec  (  1.9%)
  MO trafo                  ....       0.000 sec  (  0.0 % of DIIS)
  Orb grad                  ....       0.000 sec  (  0.0 % of DIIS)
  Energy W gradient         ....       0.000 sec  (  0.0 % of DIIS)
  DIIS error                ....       0.010 sec  (  2.3 % of DIIS)
  DIIS work                 ....       0.353 sec  ( 83.1 % of DIIS)
  Form Q                    ....       0.000 sec  (  0.0 % of DIIS)
  Form QpQm                 ....       0.000 sec  (  0.0 % of DIIS)
  Exp/Cayley                ....       0.000 sec  (  0.0 % of DIIS)
  Orb update                ....       0.000 sec  (  0.0 % of DIIS)
  Wake-sleep                ....       0.033 sec  (  7.8 % of DIIS)
SOSCF solution              ....       0.050 sec  (  0.2%)
  MO trafo                  ....       0.040 sec  ( 81.7 % of SOSCF)
  Orb grad                  ....       0.001 sec  (  1.0 % of SOSCF)
  Rot update                ....       0.000 sec  (  0.0 % of SOSCF)
  Step                      ....       0.008 sec  ( 17.1 % of SOSCF)
Finished LeanSCF after  22.2 sec

Maximum memory used throughout the entire LEANSCF-calculation: 23.8 MB


-------------------------------------------------------------------------------
                          DFT DISPERSION CORRECTION                            
                                                                               
                                DFTD4 V3.4.0                                   
-------------------------------------------------------------------------------
The R2SCAN3C composite method is recognized
Using three-body term ABC
Active option DFTDOPT                   ...         5   

-------------------------   ----------------
Dispersion correction           -0.003901651
-------------------------   ----------------

------------------   -----------------
gCP correction             0.010407467
------------------   -----------------

-------------------------   --------------------
FINAL SINGLE POINT ENERGY      -346.940167970941
-------------------------   --------------------


------------------------------------------------------------------------------
                              ORCA PROPERTY CALCULATIONS
------------------------------------------------------------------------------

GBWName                                 ... sp_solv.gbw
Number of atoms                         ...     17
Number of basis functions               ...    193
Max core memory                         ...   1024 MB

Electric properties:
Dipole moment                           ... YES
Quadrupole moment                       ...  NO
Static polarizability (Dipole/Dipole)   ...  NO
Static polarizability (Dipole/Quad.)    ...  NO
Static polarizability (Quad./Quad.)     ...  NO
Static polarizability (Velocity)        ...  NO

Atomic electric properties:
Dipole moment                           ...  NO
Quadrupole moment                       ...  NO
Static polarizability                   ...  NO

Choice of electric origin               ... Center of mass
Position of electric origin             ...     0.000002     0.000018     0.000004

General magnetic properties:
Magnetizability                         ...  NO

EPR properties:
g-Tensor (aka g-matrix)                 ...  NO
Zero-Field splitting spin-orbit         ...  NO
Zero-field splitting spin-spin          ...  NO
Hyperfine couplings                     ...  NO (   0 nuclei)
Quadrupole couplings                    ...  NO (   0 nuclei)
Contact density                         ...  NO (   0 nuclei)

NMR properties:
Chemical shifts                         ...  NO (   0 nuclei)
Spin-rotation constants                 ...  NO (   0 nuclei)
Spin-spin couplings                     ...  NO (   0 nuclei,    0 pairs)

Choice of magnetic origin               ... GIAO
Position of magnetic origin             ...     0.000000     0.000000     0.000000

Properties with geometric perturbations:
SCF Hessian                             ...  NO
IR spectrum                             ...  NO
VCD spectrum                            ...  NO
X-ray spectroscopy properties:
SCF XES/XAS/RIXS spectra                ...  NO


-------------
DIPOLE MOMENT
-------------

Method             : SCF
Type of density    : Electron Density
Multiplicity       :   1
Irrep              :   0
Energy             :  -346.9466737871385931 Eh
Relativity type    : 
Basis              : AO
                                X                 Y                 Z
Electronic contribution:     -0.669199959      -3.625596012      -0.285415168
Nuclear contribution   :      1.024295050       4.761236570       0.621468066
                        -----------------------------------------
Total Dipole Moment    :      0.355095092       1.135640559       0.336052898
                        -----------------------------------------
Magnitude (a.u.)       :      1.236407519
Magnitude (Debye)      :      3.142698159



--------------------
Rotational spectrum 
--------------------
 
Rotational constants in cm-1:             0.174156             0.048705             0.042328 
Rotational constants in MHz :          5221.056298          1460.138510          1268.961226 

Dipole components along the rotational axes: 
x,y,z [a.u.] :     0.386391     1.171915     0.077600 
x,y,z [Debye]:     0.982127     2.978770     0.197245 

 

Dipole moment calculation done in   0.0 sec 

Maximum memory used throughout the entire PROP-calculation: 11.4 MB

--------------------------------
SUGGESTED CITATIONS FOR THIS RUN
--------------------------------

Below you find a list of papers that are relevant to this ORCA run
We neither can nor want to force you to cite these papers, but we appreciate if you do
You receive ORCA, which is the product of decades of hard work by many enthusiastic individuals, for free
The only thing we kindly ask in return is that you cite our papers,
We deeply appreciate it, if you show your appreciation for ORCA by not just citing the generic ORCA reference.

Please note that relegating all ORCA citations to the supporting information does *not* help us.
SI sections are not indexed - citations you put there will not count into any citation statistics
But we need these citations in order to attract the funding resources that allow us to do what we are doing

Therefore, if you are a happy ORCA user, please consider citing a few of the papers listed below in the main body of your paper

In addition to the list printed below, the program has created the file sp_solv.bibtex that contains the list in bibtex format
You can import this file easily into all common literature databanks and citation aid programs


List of essential papers. We consider these as the minimum necessary citations

  1. Neese,F.
     Software update: the ORCA program system, version 5.0
     WIRES Comput. Molec. Sci., 2022 12(1)e1606
     doi.org/10.1002/wcms.1606
  2. Grimme,S.; Hansen,A.; Ehlert,S.; Mewes,J.
     r2SCAN-3c: A 'Swiss army knife' composite electronic-structure method
     J. Chem. Phys., 2021 154 064103
     doi.org/10.1063/5.0040021

List of papers to cite with high priority. The work reported in these papers was absolutely
necessary for this run to complete.
Our perspective: the developers of density functionals and basis sets usually get cited in chemistry papers
Good! But without the algorithms to do something with them, the functionals or basis sets would not do anything.
Hence, in our opinion, the algorithm design and method developments papers are equally worthy of getting cited

  1. Neese,F.
     An improvement of the resolution of the identity approximation for the formation of the Coulomb matrix
     J. Comp. Chem., 2003 24(14)1740-1747
     doi.org/10.1002/jcc.10318
  2. Garcia-Rates,M.; Neese,F.
     Effect of the Solute Cavity on the Solvation Energy and its Derivatives within the Framework of the Gaussian Charge Scheme
     J. Comput. Chem., 2020 41 922-939
     doi.org/10.1002/jcc.26139
  3. Neese,F.
     The SHARK Integral Generation and Digestion System
     J. Comp. Chem., 2022  1-16
     doi.org/10.1002/jcc.26942
  4. Lehtola,S.; Steigemann,C.; Oliveira,M.; Marques,M.
     Recent developments in Libxc - A comprehensive library of functionals for density functional theory
     Software X, 2018 7 
     doi.org/10.1016/j.softx.2017.11.002
  5. Caldeweyher,E.; Bannwarth,C.; Grimme,S.
     Extension of the D3 dispersion coefficient model
     J. Chem. Phys., 2017 147 034112-XXXX
     doi.org/10.1063/1.4993215
  6. Caldeweyher,E.; Ehlert,S.; Hansen,A.; Neugebauer,H.; Spicher,S.; Bannwarth,C.; Grimme,S.
     A generally applicable atomic-charge dependent London dispersion correction
     J. Chem. Phys., 2019 150 154122-XXXX
     doi.org/10.1063/1.5090222
  7. Caldeweyher,E.; Mewes,J.; Ehlert,S.; Grimme,S.
     Extension and evaluation of the D4 London-dispersion model for periodic systems
     Phys. Chem. Chem. Phys., 2020 22(16)8499-8512
     doi.org/10.1039/D0CP00502A

List of suggested additional citations. These are papers that are important in the 'surrounding' of 
of this run, or papers that preceded the highly important papers. If you like your results we are grateful for a citation.

  1. Neese,F.
     The ORCA program system
     WIRES Comput. Molec. Sci., 2012 2(1)73-78
     doi.org/10.1002/wcms.81
  2. Neese,F.
     Software update: the ORCA program system, version 4.0
     WIRES Comput. Molec. Sci., 2018 8(1)1-6
     doi.org/10.1002/wcms.1327
  3. Neese,F.; Wennmohs,F.; Becker,U.; Riplinger,C.
     The ORCA quantum chemistry program package
     J. Chem. Phys., 2020 152 Art. No. L224108
     doi.org/10.1063/5.0004608

List of optional additional citations

  1. Neese,F.
     Approximate second-order SCF convergence for spin unrestricted wavefunctions
     Chem. Phys. Lett., 2000 325(1-3)93-98
     doi.org/10.1016/s0009-2614(00)00662-x

Timings for individual modules:

Sum of individual times          ...       23.724 sec (=   0.395 min)
Startup calculation              ...        1.056 sec (=   0.018 min)   4.5 %
SCF iterations                   ...       22.570 sec (=   0.376 min)  95.1 %
Property calculations            ...        0.097 sec (=   0.002 min)   0.4 %
                             ****ORCA TERMINATED NORMALLY****
TOTAL RUN TIME: 0 days 0 hours 0 minutes 24 seconds 433 msec
