15
 energy: -15.769195001839 gnorm: 0.025697746198 xtb: 6.7.1 (edcfbbe)
C            2.35852554281334       -0.29233846201900       -0.05544597880796
C            0.85361885076531       -0.54017901760508        0.00392217827784
C            0.05968343070987        0.76053275986325       -0.04640980784668
C           -1.43173813928305        0.62839884028864        0.00681979453863
C           -2.12552003163383       -0.50649788431330        0.09665777707319
H            2.68788989314290        0.32858990143515        0.78528525985292
H            2.63565827692654        0.22508089440694       -0.98082894118251
H            2.91888836344162       -1.23202915579629       -0.01702451990486
H            0.55332520276248       -1.18548276058579       -0.83117206674738
H            0.60644538653819       -1.08547379971386        0.92346883924286
H            0.32290209628765        1.31693909464139       -0.95880879458363
H            0.37558734498224        1.41617001863649        0.77926090555572
H           -1.97884917331448        1.57135572692398       -0.03207426127089
H           -3.21152333903496       -0.49401647562215        0.12860050722331
H           -1.64407539852058       -1.47986442349604        0.13919355573673
15
 energy: -15.769950253134 gnorm: 0.007067512978 xtb: 6.7.1 (edcfbbe)
C            2.35034527562565       -0.28872441075706       -0.05544768957562
C            0.85002279107694       -0.54195880919616        0.00425153944487
C            0.06384445502319        0.76252000740657       -0.04643771086166
C           -1.42447702418809        0.62131196039340        0.00707307448829
C           -2.11452035905980       -0.50286121560094        0.09516535100369
H            2.67160858118104        0.32837877548341        0.78371082033094
H            2.61908252633909        0.22534868884492       -0.97833662480828
H            2.90027149922157       -1.22800899564679       -0.01692710071396
H            0.55620821459707       -1.17799705627457       -0.83590522793557
H            0.60962237353222       -1.07729345294656        0.92747734955772
H            0.32184616464677        1.30635457942486       -0.96420244889492
H            0.37504833400765        1.40640172148049        0.78617322388143
H           -1.96258860612243        1.56274857582213       -0.03235040269079
H           -3.19244334116723       -0.49426659838726        0.12841772973980
H           -1.64305257813040       -1.47076851300213        0.13878256419137
15
 energy: -15.769996233389 gnorm: 0.001739610213 xtb: 6.7.1 (edcfbbe)
C            2.35097867641578       -0.28898493287709       -0.05553246003658
C            0.84987656406989       -0.54225155778306        0.00449816051690
C            0.06416391551777        0.76373190877790       -0.04646822270130
C           -1.42440912092526        0.62067598485808        0.00763496832575
C           -2.11300492158945       -0.50205036877866        0.09580938725048
H            2.66857321488703        0.32761358562701        0.78269307397408
H            2.61567379969561        0.22485884147893       -0.97726282054536
H            2.89899405186485       -1.22734729341078       -0.01720804263063
H            0.55616353746487       -1.17496292417403       -0.83584137007510
H            0.60982577220334       -1.07392567519859        0.92778437636410
H            0.32057075979810        1.30306511945043       -0.96483397396073
H            0.37418104835347        1.40360642995730        0.78688620881254
H           -1.95765814765993        1.56332078755727       -0.03247609092492
H           -3.18901342444963       -0.49708676431647        0.12748725762522
H           -1.64409741906320       -1.46907788412395        0.13827399516284
15
 energy: -15.769999035251 gnorm: 0.000642819963 xtb: 6.7.1 (edcfbbe)
C            2.35158985167749       -0.28880611294334       -0.05555604102820
C            0.84959550895886       -0.54315432959940        0.00471102037706
C            0.06447264231085        0.76441104824008       -0.04647068659259
C           -1.42501120259512        0.62128900940664        0.00663051360516
C           -2.11295877282363       -0.50203470762921        0.09388674347015
H            2.66822902122052        0.32754576054913        0.78286811528137
H            2.61499149145427        0.22510372903896       -0.97730557665275
H            2.89897172561135       -1.22721356363747       -0.01750319703095
H            0.55585471751148       -1.17497182472568       -0.83562558622646
H            0.60951359450131       -1.07376777872976        0.92798302898551
H            0.32053046094375        1.30265288507520       -0.96461436968263
H            0.37373826504944        1.40309801358538        0.78706618497162
H           -1.95580369188649        1.56533479458868       -0.03225859294788
H           -3.18912545581875       -0.49913082205369        0.12880307997073
H           -1.64376984953210       -1.46917084412122        0.13882981065714
15
 energy: -15.769999067447 gnorm: 0.000590704305 xtb: 6.7.1 (edcfbbe)
C            2.35181861507623       -0.28894379973683       -0.05569348550239
C            0.84964224307779       -0.54317637192739        0.00496076926706
C            0.06429019207501        0.76436486711357       -0.04640030685304
C           -1.42549179167806        0.62174505805779        0.00823136824321
C           -2.11310992961365       -0.50175730407295        0.09636529465670
H            2.66869124561378        0.32749452953169        0.78274691833530
H            2.61503679124007        0.22502413360794       -0.97761462930748
H            2.89939868821516       -1.22741167614637       -0.01774334220331
H            0.55574021378389       -1.17535010344395       -0.83510350644549
H            0.60990670945798       -1.07360284445956        0.92848971876870
H            0.32004398500875        1.30222789520322       -0.96492851562791
H            0.37400240285593        1.40347402659082        0.78664548017060
H           -1.95602712560365        1.56596688754978       -0.03262401889905
H           -3.18968309787378       -0.49975285836627        0.12681677260031
H           -1.64344083505222       -1.46911718245719        0.13729592995409
15
 energy: -15.769999890807 gnorm: 0.000160945440 xtb: 6.7.1 (edcfbbe)
C            2.35163366458765       -0.28901465445425       -0.05564322484599
C            0.84968827847988       -0.54292903015844        0.00492276822538
C            0.06416218706946        0.76414767457395       -0.04643371164133
C           -1.42549351499510        0.62159456047465        0.00737503656693
C           -2.11318661329925       -0.50181504477569        0.09496134641603
H            2.66882290909991        0.32739877746929        0.78279486891402
H            2.61520445258203        0.22503836179759       -0.97750726022011
H            2.89941294652982       -1.22747840514904       -0.01775613243443
H            0.55591884368031       -1.17535205935700       -0.83519108413659
H            0.60993226463758       -1.07367282780691        0.92843316364733
H            0.32029730564295        1.30246028871433       -0.96483864781857
H            0.37384414882044        1.40342381274173        0.78681189156528
H           -1.95647519259631        1.56561448401862       -0.03219583678357
H           -3.18963878741161       -0.49934220928139        0.12773444168152
H           -1.64330458624451       -1.46888847176312        0.13797682802137
15
 energy: -15.769999927446 gnorm: 0.000060823903 xtb: 6.7.1 (edcfbbe)
C            2.35147998338629       -0.28891013839454       -0.05567036658428
C            0.84956527826608       -0.54303448355967        0.00503075214861
C            0.06429657561753        0.76421753650168       -0.04641020332487
C           -1.42534267946909        0.62157129393559        0.00743158517039
C           -2.11303787610255       -0.50184354081587        0.09488923516575
H            2.66871714366994        0.32741238985784        0.78273894898372
H            2.61492930403878        0.22511239696489       -0.97751564524410
H            2.89909487725358       -1.22738299055333       -0.01786222104934
H            0.55573485039226       -1.17545518332050       -0.83500571924714
H            0.60985571039939       -1.07359404154625        0.92860522320894
H            0.32031976057465        1.30235809855465       -0.96487445242630
H            0.37391679701203        1.40348473264046        0.78678384099257
H           -1.95610790800877        1.56565262516938       -0.03217223841669
H           -3.18941041075584       -0.49953478801510        0.12774826321764
H           -1.64319309969106       -1.46886865037493        0.13772744456241
