      -----------------------------------------------------------      
     |                   =====================                   |     
     |                           x T B                           |     
     |                   =====================                   |     
     |                         S. Grimme                         |     
     |          Mulliken Center for Theoretical Chemistry        |     
     |                    University of Bonn                     |     
      -----------------------------------------------------------      

   * xtb version 6.7.1 (edcfbbe) compiled by 'albert@albert-system' on 2024-07-22

   xtb is free software: you can redistribute it and/or modify it under
   the terms of the GNU Lesser General Public License as published by
   the Free Software Foundation, either version 3 of the License, or
   (at your option) any later version.
   
   xtb is distributed in the hope that it will be useful,
   but WITHOUT ANY WARRANTY; without even the implied warranty of
   MERCHANTABILITY or FITNESS FOR A PARTICULAR PURPOSE.  See the
   GNU Lesser General Public License for more details.
   
   Cite this work as:
   * C. Bannwarth, E. Caldeweyher, S. Ehlert, A. Hansen, P. Pracht,
     J. Seibert, S. Spicher, S. Grimme, WIREs Comput. Mol. Sci., 2020, 11,
     e01493. DOI: 10.1002/wcms.1493
   
   for GFN2-xTB:
   * C. Bannwarth, S. Ehlert and S. Grimme., J. Chem. Theory Comput., 2019,
     15, 1652-1671. DOI: 10.1021/acs.jctc.8b01176
   for GFN1-xTB:
   * S. Grimme, C. Bannwarth, P. Shushkov, J. Chem. Theory Comput., 2017,
     13, 1989-2009. DOI: 10.1021/acs.jctc.7b00118
   for GFN0-xTB:
   * P. Pracht, E. Caldeweyher, S. Ehlert, S. Grimme, ChemRxiv, 2019, preprint.
     DOI: 10.26434/chemrxiv.8326202.v1
   for GFN-FF:
   * S. Spicher and S. Grimme, Angew. Chem. Int. Ed., 2020, 59, 15665-15673.
     DOI: 10.1002/anie.202004239
   
   for ALPB and GBSA implicit solvation:
   * S. Ehlert, M. Stahn, S. Spicher, S. Grimme, J. Chem. Theory Comput.,
     2021, 17, 4250-4261. DOI: 10.1021/acs.jctc.1c00471
   
   for ddCOSMO and CPCM-X implicit solvation:
   * M. Stahn, S. Ehlert, S. Grimme, J. Phys. Chem. A,
     2023, XX, XXXX-XXXX. DOI: 10.1021/acs.jpca.3c04382
   
   for DFT-D4:
   * E. Caldeweyher, C. Bannwarth and S. Grimme, J. Chem. Phys., 2017,
     147, 034112. DOI: 10.1063/1.4993215
   * E. Caldeweyher, S. Ehlert, A. Hansen, H. Neugebauer, S. Spicher,
     C. Bannwarth and S. Grimme, J. Chem. Phys., 2019, 150, 154122.
     DOI: 10.1063/1.5090222
   * E. Caldeweyher, J.-M. Mewes, S. Ehlert and S. Grimme, Phys. Chem. Chem. Phys.
     2020, 22, 8499-8512. DOI: 10.1039/D0CP00502A
   
   for sTDA-xTB:
   * S. Grimme and C. Bannwarth, J. Chem. Phys., 2016, 145, 054103.
     DOI: 10.1063/1.4959605
   
   in the mass-spec context:
   * V. Asgeirsson, C. Bauer and S. Grimme, Chem. Sci., 2017, 8, 4879.
     DOI: 10.1039/c7sc00601b
   * J. Koopman and S. Grimme, ACS Omega 2019, 4, 12, 15120-15133.
     DOI: 10.1021/acsomega.9b02011
   
   for metadynamics refer to:
   * S. Grimme, J. Chem. Theory Comput., 2019, 155, 2847-2862
     DOI: 10.1021/acs.jctc.9b00143
   
   for SPH calculations refer to:
   * S. Spicher and S. Grimme, J. Chem. Theory Comput., 2021, 17, 1701-1714
     DOI: 10.1021/acs.jctc.0c01306
   
   for ONIOM refer to:
   * C. Plett, A. Katbashev, S. Ehlert, S. Grimme, M. Bursch,
     Phys. Chem. Chem. Phys., 2023, 25, 17860-17868. DOI: 10.1039/D3CP02178E
   
   for DIPRO refer to:
   * J. Kohn, N. Gildemeister, S. Grimme, D. Fazzi, A. Hansen,
     J. Chem. Phys., 2023, just accepted.
   
   for PTB refer to:
   * S. Grimme, M. Mueller, A. Hansen, J. Chem. Phys., 2023, 158, 124111.
     DOI: 10.1063/5.0137838
   
   with help from (in alphabetical order)
   P. Atkinson, C. Bannwarth, F. Bohle, G. Brandenburg, E. Caldeweyher
   M. Checinski, S. Dohm, S. Ehlert, S. Ehrlich, I. Gerasimov, C. Hölzer
   A. Katbashev, J. Kohn, J. Koopman, C. Lavigne, S. Lehtola, F. März, M. Müller,
   F. Musil, H. Neugebauer, J. Pisarek, C. Plett, P. Pracht, F. Pultar,
   J. Seibert, P. Shushkov, S. Spicher, M. Stahn, M. Steiner, T. Strunk,
   J. Stückrath, T. Rose, and J. Unsleber
   
 * started run on 2025/04/07 at 07:45:08.278     
   ID    Z sym.   atoms
    1    6 C      1-3, 5-7
    2    8 O      4
    3    1 H      8-21

           -------------------------------------------------
          |                Calculation Setup                |
           -------------------------------------------------

          program call               : /srv/scratch/z5358697/.xtb/bin/xtb gas.coord --gfn2 --sp --chrg 0 --norestart --parallel 1
          hostname                   : k139
          coordinate file            : gas.coord
          omp threads                :                     1


           -------------------------------------------------
          |                 G F N 2 - x T B                 |
           -------------------------------------------------

        Reference                      10.1021/acs.jctc.8b01176
      * Hamiltonian:
        H0-scaling (s, p, d)           1.850000    2.230000    2.230000
        zeta-weighting                 0.500000
      * Dispersion:
        s8                             2.700000
        a1                             0.520000
        a2                             5.000000
        s9                             5.000000
      * Repulsion:
        kExp                           1.500000    1.000000
        rExp                           1.000000
      * Coulomb:
        alpha                          2.000000
        third order                    shell-resolved
        anisotropic                    true
        a3                             3.000000
        a5                             4.000000
        cn-shift                       1.200000
        cn-exp                         4.000000
        max-rad                        5.000000


          ...................................................
          :                      SETUP                      :
          :.................................................:
          :  # basis functions                  42          :
          :  # atomic orbitals                  42          :
          :  # shells                           28          :
          :  # electrons                        44          :
          :  max. iterations                   250          :
          :  Hamiltonian                  GFN2-xTB          :
          :  restarted?                      false          :
          :  GBSA solvation                  false          :
          :  PC potential                    false          :
          :  electronic temp.          300.0000000     K    :
          :  accuracy                    1.0000000          :
          :  -> integral cutoff          0.2500000E+02      :
          :  -> integral neglect         0.1000000E-07      :
          :  -> SCF convergence          0.1000000E-05 Eh   :
          :  -> wf. convergence          0.1000000E-03 e    :
          :  Broyden damping             0.4000000          :
          :  net charge                          0          :
          :  unpaired electrons                  0          :
          ...................................................

 iter      E             dE          RMSdq      gap      omega  full diag
   1    -24.2962231 -0.242962E+02  0.321E+00   10.82       0.0  T
   2    -24.3587712 -0.625480E-01  0.168E+00   10.35       1.0  T
   3    -24.3599592 -0.118807E-02  0.793E-01   10.50       1.0  T
   4    -24.3603993 -0.440088E-03  0.183E-01   10.48       1.0  T
   5    -24.3605816 -0.182263E-03  0.676E-02   10.52       1.0  T
   6    -24.3605824 -0.854935E-06  0.510E-03   10.53       4.3  T
   7    -24.3605825 -0.555359E-07  0.229E-03   10.53       9.5  T
   8    -24.3605825 -0.315725E-08  0.855E-04   10.53      25.5  T
   9    -24.3605825 -0.736616E-09  0.164E-04   10.53     133.0  T

   *** convergence criteria satisfied after 9 iterations ***

         #    Occupation            Energy/Eh            Energy/eV
      -------------------------------------------------------------
         1        2.0000           -0.6819213             -18.5560
       ...           ...                  ...                  ...
        16        2.0000           -0.4621135             -12.5747
        17        2.0000           -0.4536470             -12.3444
        18        2.0000           -0.4534668             -12.3395
        19        2.0000           -0.4381597             -11.9229
        20        2.0000           -0.4271639             -11.6237
        21        2.0000           -0.4269301             -11.6174
        22        2.0000           -0.3854351             -10.4882 (HOMO)
        23                          0.0015643               0.0426 (LUMO)
        24                          0.0923295               2.5124
        25                          0.0957489               2.6055
        26                          0.1120488               3.0490
        27                          0.1188710               3.2346
       ...                                ...                  ...
        42                          0.3290132               8.9529
      -------------------------------------------------------------
                  HL-Gap            0.3869994 Eh           10.5308 eV
             Fermi-level           -0.1919354 Eh           -5.2228 eV

 SCC (total)                   0 d,  0 h,  0 min,  0.024 sec
 SCC setup                      ...        0 min,  0.000 sec (  0.725%)
 Dispersion                     ...        0 min,  0.000 sec (  0.397%)
 classical contributions        ...        0 min,  0.000 sec (  0.095%)
 integral evaluation            ...        0 min,  0.001 sec (  6.098%)
 iterations                     ...        0 min,  0.019 sec ( 78.180%)
 molecular gradient             ...        0 min,  0.003 sec ( 14.037%)
 printout                       ...        0 min,  0.000 sec (  0.422%)

         :::::::::::::::::::::::::::::::::::::::::::::::::::::
         ::                     SUMMARY                     ::
         :::::::::::::::::::::::::::::::::::::::::::::::::::::
         :: total energy             -24.054349759446 Eh    ::
         :: gradient norm              0.007246370202 Eh/a0 ::
         :: HOMO-LUMO gap             10.530790176445 eV    ::
         ::.................................................::
         :: SCC energy               -24.360513547784 Eh    ::
         :: -> isotropic ES            0.024243168045 Eh    ::
         :: -> anisotropic ES          0.006502469225 Eh    ::
         :: -> anisotropic XC          0.009299411769 Eh    ::
         :: -> dispersion             -0.012367240233 Eh    ::
         :: repulsion energy           0.306163788339 Eh    ::
         :: add. restraining           0.000000000000 Eh    ::
         :: total charge               0.000000000000 e     ::
         :::::::::::::::::::::::::::::::::::::::::::::::::::::

           -------------------------------------------------
          |                Property Printout                |
           -------------------------------------------------

    * Orbital Energies and Occupations

         #    Occupation            Energy/Eh            Energy/eV
      -------------------------------------------------------------
         1        2.0000           -0.6819213             -18.5560
       ...           ...                  ...                  ...
        10        2.0000           -0.5147085             -14.0059
        11        2.0000           -0.4957882             -13.4911
        12        2.0000           -0.4827690             -13.1368
        13        2.0000           -0.4777705             -13.0008
        14        2.0000           -0.4715390             -12.8312
        15        2.0000           -0.4628564             -12.5950
        16        2.0000           -0.4621135             -12.5747
        17        2.0000           -0.4536470             -12.3444
        18        2.0000           -0.4534668             -12.3395
        19        2.0000           -0.4381597             -11.9229
        20        2.0000           -0.4271639             -11.6237
        21        2.0000           -0.4269301             -11.6174
        22        2.0000           -0.3854351             -10.4882 (HOMO)
        23                          0.0015643               0.0426 (LUMO)
        24                          0.0923295               2.5124
        25                          0.0957489               2.6055
        26                          0.1120488               3.0490
        27                          0.1188710               3.2346
        28                          0.1389694               3.7815
        29                          0.1526088               4.1527
        30                          0.1637401               4.4556
        31                          0.1661438               4.5210
        32                          0.1722002               4.6858
        33                          0.1902823               5.1778
       ...                                ...                  ...
        42                          0.3290132               8.9529
      -------------------------------------------------------------
                  HL-Gap            0.3869994 Eh           10.5308 eV
             Fermi-level           -0.1919354 Eh           -5.2228 eV

     #   Z          covCN         q      C6AA      α(0)
     1   6 C        3.753    -0.115    22.770     6.805
     2   6 C        3.730     0.125    18.641     6.163
     3   6 C        3.754    -0.114    22.741     6.800
     4   8 O        1.700    -0.335    19.623     5.981
     5   6 C        3.730     0.125    18.636     6.162
     6   6 C        3.754    -0.114    22.738     6.800
     7   6 C        3.753    -0.115    22.768     6.804
     8   1 H        0.925     0.037     2.489     2.467
     9   1 H        0.925     0.038     2.480     2.463
    10   1 H        0.925     0.050     2.319     2.381
    11   1 H        0.923     0.009     2.911     2.668
    12   1 H        0.925     0.039     2.463     2.454
    13   1 H        0.925     0.047     2.358     2.401
    14   1 H        0.925     0.053     2.282     2.362
    15   1 H        0.923     0.008     2.917     2.671
    16   1 H        0.925     0.039     2.460     2.453
    17   1 H        0.925     0.048     2.346     2.395
    18   1 H        0.925     0.053     2.281     2.362
    19   1 H        0.925     0.037     2.495     2.470
    20   1 H        0.925     0.050     2.320     2.382
    21   1 H        0.925     0.037     2.487     2.466

 Mol. C6AA /au·bohr⁶  :       2919.187702
 Mol. C8AA /au·bohr⁸  :      60014.974813
 Mol. α(0) /au        :         79.910184


Wiberg/Mayer (AO) data.
largest (>0.10) Wiberg bond orders for each atom

 ---------------------------------------------------------------------------
     #   Z sym  total        # sym  WBO       # sym  WBO       # sym  WBO
 ---------------------------------------------------------------------------
     1   6 C    3.996 --     2 C    0.998    10 H    0.986     8 H    0.986
                             9 H    0.983
     2   6 C    3.954 --     3 C    1.002     1 C    0.998     4 O    0.970
                            11 H    0.959
     3   6 C    3.995 --     2 C    1.002    13 H    0.986    12 H    0.986
                            14 H    0.985
     4   8 O    2.070 --     5 C    0.971     2 C    0.970
     5   6 C    3.954 --     6 C    1.002     7 C    0.998     4 O    0.971
                            15 H    0.959
     6   6 C    3.994 --     5 C    1.002    17 H    0.986    16 H    0.986
                            18 H    0.985
     7   6 C    3.996 --     5 C    0.998    20 H    0.986    21 H    0.985
                            19 H    0.983
     8   1 H    0.998 --     1 C    0.986
     9   1 H    0.999 --     1 C    0.983
    10   1 H    0.997 --     1 C    0.986
    11   1 H    1.000 --     2 C    0.959
    12   1 H    0.998 --     3 C    0.986
    13   1 H    0.998 --     3 C    0.986
    14   1 H    0.997 --     3 C    0.985
    15   1 H    1.000 --     5 C    0.959
    16   1 H    0.998 --     6 C    0.986
    17   1 H    0.998 --     6 C    0.986
    18   1 H    0.997 --     6 C    0.985
    19   1 H    0.999 --     7 C    0.983
    20   1 H    0.997 --     7 C    0.986
    21   1 H    0.998 --     7 C    0.985
 ---------------------------------------------------------------------------

Topologies differ in total number of bonds
Writing topology from bond orders to xtbtopo.mol

molecular dipole:
                 x           y           z       tot (Debye)
 q only:       -0.001      -0.130       0.220
   full:        0.000      -0.227       0.415       1.201
molecular quadrupole (traceless):
                xx          xy          yy          xz          yz          zz
 q only:        2.791       0.228      -0.705       0.149       0.288      -2.086
  q+dip:        1.682       0.199      -1.315       0.003       0.716      -0.367
   full:        2.293       0.229      -1.168       0.067       0.543      -1.125


           -------------------------------------------------
          | TOTAL ENERGY              -24.054349759446 Eh   |
          | GRADIENT NORM               0.007246370202 Eh/α |
          | HOMO-LUMO GAP              10.530790176445 eV   |
           -------------------------------------------------

------------------------------------------------------------------------
 * finished run on 2025/04/07 at 07:45:08.330     
------------------------------------------------------------------------
 total:
 * wall-time:     0 d,  0 h,  0 min,  0.051 sec
 *  cpu-time:     0 d,  0 h,  0 min,  0.017 sec
 * ratio c/w:     0.328 speedup
 SCF:
 * wall-time:     0 d,  0 h,  0 min,  0.024 sec
 *  cpu-time:     0 d,  0 h,  0 min,  0.010 sec
 * ratio c/w:     0.405 speedup

