
                                 *****************
                                 * O   R   C   A *
                                 *****************

                                            #,                                       
                                            ###                                      
                                            ####                                     
                                            #####                                    
                                            ######                                   
                                           ########,                                 
                                     ,,################,,,,,                         
                               ,,#################################,,                 
                          ,,##########################################,,             
                       ,#########################################, ''#####,          
                    ,#############################################,,   '####,        
                  ,##################################################,,,,####,       
                ,###########''''           ''''###############################       
              ,#####''   ,,,,##########,,,,          '''####'''          '####       
            ,##' ,,,,###########################,,,                        '##       
           ' ,,###''''                  '''############,,,                           
         ,,##''                                '''############,,,,        ,,,,,,###''
      ,#''                                            '''#######################'''  
     '                                                          ''''####''''         
             ,#######,   #######,   ,#######,      ##                                
            ,#'     '#,  ##    ##  ,#'     '#,    #''#        ,####,   ,####,        
            ##       ##  ##   ,#'  ##            #'  '#       #'       #'  '#        
            ##       ##  #######   ##           ,######,      #####,   #    #        
            '#,     ,#'  ##    ##  '#,     ,#' ,#      #,     #,   #   #,  ,#        
             '#######'   ##     ##  '#######'  #'      '#     '####' # '####'        



                #########################################################
                #                        -***-                          #
                #          Department of theory and spectroscopy        #
                #                                                       #
                #                      Frank Neese                      #
                #                                                       #
                #     Directorship, Architecture, Infrastructure        #
                #                    SHARK, DRIVERS                     #
                #        Core code/Algorithms in most modules           #
                #                                                       #
                #        Max Planck Institute fuer Kohlenforschung      #
                #                Kaiser Wilhelm Platz 1                 #
                #                 D-45470 Muelheim/Ruhr                 #
                #                      Germany                          #
                #                                                       #
                #                  All rights reserved                  #
                #                        -***-                          #
                #########################################################


                         Program Version 6.0.0  -   RELEASE  -


 With contributions from (in alphabetic order):
   Daniel Aravena         : Magnetic Suceptibility
   Michael Atanasov       : Ab Initio Ligand Field Theory (pilot matlab implementation)
   Alexander A. Auer      : GIAO ZORA, VPT2 properties, NMR spectrum
   Ute Becker             : All parallelization in ORCA, NUMFREQ, NUMCALC
   Giovanni Bistoni       : ED, misc. LED, open-shell LED, HFLD
   Martin Brehm           : Molecular dynamics
   Dmytro Bykov           : pre 5.0 version of the SCF Hessian
   Marcos Casanova-Páez   : Triplet and SCS-CIS(D). UHF-(DLPNO)-IP/EA/STEOM-CCSD. UHF-CVS-IP/STEOM-CCSD
   Vijay G. Chilkuri      : MRCI spin determinant printing, contributions to CSF-ICE
   Pauline Colinet        : FMM embedding
   Dipayan Datta          : RHF DLPNO-CCSD density
   Achintya Kumar Dutta   : EOM-CC, STEOM-CC
   Nicolas Foglia         : Exact transition moments, OPA infrastructure, MCD improvements
   Dmitry Ganyushin       : Spin-Orbit,Spin-Spin,Magnetic field MRCI
   Miquel Garcia          : C-PCM and meta-GGA Hessian, CCSD/C-PCM, Gaussian charge scheme
   Tiago L. C. Gouveia    : GS-ROHF, GS-ROCIS
   Yang Guo               : DLPNO-NEVPT2, F12-NEVPT2, CIM, IAO-localization
   Andreas Hansen         : Spin unrestricted coupled pair/coupled cluster methods
   Ingolf Harden          : AUTO-CI MPn and infrastructure 
   Benjamin Helmich-Paris : MC-RPA, TRAH-(SCF,CASSCF), AVAS, COSX integrals, SCF dyn. polar.
   Lee Huntington         : MR-EOM, pCC
   Robert Izsak           : Overlap fitted RIJCOSX, COSX-SCS-MP3, EOM
   Riya Kayal             : Wick's Theorem for AUTO-CI, AUTO-CI UHF-CCSDT
   Emily Kempfer          : AUTO-CI, RHF CISDT and CCSDT
   Christian Kollmar      : KDIIS, OOCD, Brueckner-CCSD(T), CCSD density, CASPT2, CASPT2-K, improved NEVPT2
   Axel Koslowski         : Symmetry handling
   Simone Kossmann        : Meta GGA functionals, TD-DFT gradient, OOMP2, (MP2 Hessian; deprecated post 5.0)
   Lucas Lang             : DCDCAS
   Marvin Lechner         : AUTO-CI (C++ implementation), FIC-MRCC
   Spencer Leger          : CASSCF response
   Dagmar Lenk            : GEPOL surface, SMD, ORCA-2-JSON
   Dimitrios Liakos       : Extrapolation schemes; Compound Job, initial MDCI parallelization
   Dimitrios Manganas     : Further ROCIS development; embedding schemes. LFT, Crystal Embedding
   Dimitrios Pantazis     : SARC Basis sets
   Anastasios Papadopoulos: AUTO-CI, single reference methods and gradients
   Taras Petrenko         : pre 6.0 DFT Hessian and TD-DFT gradient, (ASA, deprecated), ECA, 1-Electron XAS/XES, NRVS
   Peter Pinski           : DLPNO-MP2, DLPNO-MP2 Gradient
   Christoph Reimann      : Effective Core Potentials
   Marius Retegan         : Local ZFS, SOC
   Christoph Riplinger    : Optimizer, TS searches, QM/MM, DLPNO-CCSD(T), (RO)-DLPNO pert. Triples
   Michael Roemelt        : Original ROCIS implementation
   Masaaki Saitow         : Open-shell DLPNO-CCSD energy and density
   Barbara Sandhoefer     : DKH picture change effects
   Kantharuban Sivalingam : CASSCF convergence/infrastructure, NEVPT2 and variants, FIC-MRCI
   Bernardo de Souza      : ESD, SOC TD-DFT
   Georgi Stoychev        : AutoAux, RI-MP2 NMR, DLPNO-MP2 response, X2C
   Van Anh Tran           : RI-MP2 g-tensors
   Willem Van den Heuvel  : Paramagnetic NMR
   Zikuan Wang            : NOTCH, Electric field optimization 
   Frank Wennmohs         : Technical directorship and infrastructure
   Hang Xu                : AUTO-CI-Response properties 


 We gratefully acknowledge several colleagues who have allowed us to
 interface, adapt or use parts of their codes:
   Stefan Grimme, W. Hujo, H. Kruse, P. Pracht,  : VdW corrections, initial TS optimization,
                  C. Bannwarth, S. Ehlert,         DFT functionals, gCP, sTDA/sTD-DF
                  L. Wittmann, M. Mueller
   Ed Valeev, F. Pavosevic, A. Kumar             : LibInt (2-el integral package), F12 methods
   Garnet Chan, S. Sharma, J. Yang, R. Olivares  : DMRG
   Ulf Ekstrom                                   : XCFun DFT Library
   Mihaly Kallay                                 : mrcc  (arbitrary order and MRCC methods)
   Frank Weinhold                                : gennbo (NPA and NBO analysis)
   Simon Mueller                                 : openCOSMO-RS
   Christopher J. Cramer and Donald G. Truhlar   : smd solvation model
   Lars Goerigk                                  : TD-DFT with DH, B97 family of functionals
   V. Asgeirsson, H. Jonsson                     : NEB implementation
   FAccTs GmbH                                   : IRC, NEB, NEB-TS, DLPNO-Multilevel, CI-OPT
                                                   MM, QMMM, 2- and 3-layer-ONIOM, Crystal-QMMM,
                                                   LR-CPCM, SF, NACMEs, symmetry and pop. for TD-DFT,
                                                   nearIR, NL-DFT gradient (VV10), updates on ESD,
                                                   ML-optimized integration grids, MBIS, APM,
                                                   GOAT, DOCKER, SOLVATOR, interface openCOSMO-RS
   S Lehtola, MJT Oliveira, MAL Marques          : LibXC Library
   Liviu Ungur et al                             : ANISO software


 Your calculation uses the libint2 library for the computation of 2-el integrals
 For citations please refer to: http://libint.valeyev.net

 Your ORCA version has been built with support for libXC version: 6.2.2
 For citations please refer to: https://libxc.gitlab.io

 This ORCA versions uses:
   CBLAS   interface :  Fast vector & matrix operations
   LAPACKE interface :  Fast linear algebra routines
   SCALAPACK package :  Parallel linear algebra routines
   Shared memory     :  Shared parallel matrices
   BLAS/LAPACK       :  OpenBLAS 0.3.27  USE64BITINT DYNAMIC_ARCH NO_AFFINITY SkylakeX SINGLE_THREADED
        Core in use  :  SkylakeX
   Copyright (c) 2011-2014, The OpenBLAS Project


Your calculation utilizes the geometrical counterpoise correction gCP
Please cite in your paper:
H.Kruse, S. Grimme J.Chem.Phys., 136, (2012), 154101 
   

Your calculation utilizes the atom-pairwise dispersion correction
based on EEQ partial charges (D4)


================================================================================

----- Orbital basis set information -----
Your calculation utilizes the basis: def2-SV(P)
   F. Weigend and R. Ahlrichs, Phys. Chem. Chem. Phys. 7, 3297 (2005).

----- AuxJ basis set information -----
Your calculation utilizes the auxiliary basis: def2/J
   F. Weigend, Phys. Chem. Chem. Phys. 8, 1057 (2006).

================================================================================
                                        WARNINGS
                       Please study these warnings very carefully!
================================================================================


================================================================================
                                       INPUT FILE
================================================================================
NAME = sp.inp
|  1> ! pbe def2-sv(p) def2/J RI DEFGRID1 loosescf d4 GCP(DFT/SV(P)) printgap
|  2> %output
|  3>     printlevel normal
|  4> end
|  5> * xyz 0 1
|  6> C -2.776157315 0.0040233411 -0.0019744987
|  7> C -1.3613763542 0.3978759627 -0.4102100108
|  8> C -0.3174398088 -0.2494678335 0.5021038018
|  9> C 1.1098056276 -0.0116614535 0.0744138486
| 10> C 1.5595474476 1.1660775794 -0.3290641568
| 11> C 2.0039218972 -1.2121292178 0.1578249789
| 12> H -3.5068622611 0.4756714512 -0.6545261581
| 13> H -2.9772482604 0.3147731817 1.020983092
| 14> H -2.9062224864 -1.0742491528 -0.063905742
| 15> H -1.1764958182 0.0868814247 -1.4407740181
| 16> H -1.2666526135 1.4836568271 -0.3700173773
| 17> H -0.4500380943 0.1324590913 1.51901853
| 18> H -0.5016812465 -1.3254716876 0.533576055
| 19> H 2.5864361227 1.3073919648 -0.6218066342
| 20> H 0.9310237015 2.0375668794 -0.385451065
| 21> H 1.9945966746 -1.6143239777 1.1700417338
| 22> H 1.6455166774 -1.9920258481 -0.5129931769
| 23> H 3.0261599496 -0.9610755079 -0.1118469849
| 24> *
| 25> 
| 26>                          ****END OF INPUT****
================================================================================

                       ****************************
                       * Single Point Calculation *
                       ****************************

---------------------------------
CARTESIAN COORDINATES (ANGSTROEM)
---------------------------------
  C     -2.776157    0.004023   -0.001974
  C     -1.361376    0.397876   -0.410210
  C     -0.317440   -0.249468    0.502104
  C      1.109806   -0.011661    0.074414
  C      1.559547    1.166078   -0.329064
  C      2.003922   -1.212129    0.157825
  H     -3.506862    0.475671   -0.654526
  H     -2.977248    0.314773    1.020983
  H     -2.906222   -1.074249   -0.063906
  H     -1.176496    0.086881   -1.440774
  H     -1.266653    1.483657   -0.370017
  H     -0.450038    0.132459    1.519019
  H     -0.501681   -1.325472    0.533576
  H      2.586436    1.307392   -0.621807
  H      0.931024    2.037567   -0.385451
  H      1.994597   -1.614324    1.170042
  H      1.645517   -1.992026   -0.512993
  H      3.026160   -0.961076   -0.111847

----------------------------
CARTESIAN COORDINATES (A.U.)
----------------------------
  NO LB      ZA    FRAG     MASS         X           Y           Z
   0 C     6.0000    0    12.011   -5.246177    0.007603   -0.003731
   1 C     6.0000    0    12.011   -2.572628    0.751877   -0.775185
   2 C     6.0000    0    12.011   -0.599874   -0.471426    0.948839
   3 C     6.0000    0    12.011    2.097229   -0.022037    0.140622
   4 C     6.0000    0    12.011    2.947118    2.203567   -0.621841
   5 C     6.0000    0    12.011    3.786864   -2.290592    0.298246
   6 H     1.0000    0     1.008   -6.627009    0.898889   -1.236875
   7 H     1.0000    0     1.008   -5.626184    0.594835    1.929378
   8 H     1.0000    0     1.008   -5.491965   -2.030037   -0.120764
   9 H     1.0000    0     1.008   -2.223255    0.164182   -2.722668
  10 H     1.0000    0     1.008   -2.393627    2.803705   -0.699232
  11 H     1.0000    0     1.008   -0.850449    0.250311    2.870529
  12 H     1.0000    0     1.008   -0.948040   -2.504778    1.008313
  13 H     1.0000    0     1.008    4.887656    2.470613   -1.175044
  14 H     1.0000    0     1.008    1.759380    3.850443   -0.728397
  15 H     1.0000    0     1.008    3.769241   -3.050630    2.211058
  16 H     1.0000    0     1.008    3.109576   -3.764383   -0.969417
  17 H     1.0000    0     1.008    5.718614   -1.816170   -0.211360

--------------------------------
INTERNAL COORDINATES (ANGSTROEM)
--------------------------------
 C      0   0   0     0.000000000000     0.00000000     0.00000000
 C      1   0   0     1.524264179177     0.00000000     0.00000000
 C      2   1   0     1.530089537890   111.36192570     0.00000000
 C      3   2   1     1.508807511302   114.18560912   174.33855379
 C      4   3   2     1.323681017132   123.23247593    43.78223185
 C      4   3   2     1.499174497297   114.97267874   222.88689885
 H      1   2   3     1.087292658948   110.54528272   179.65585559
 H      1   2   3     1.087862704630   110.46338016    59.63629075
 H      1   2   3     1.087852930689   110.59987187   299.70574414
 H      2   1   3     1.092227351974   109.64815865   120.80113166
 H      2   1   3     1.090645735488   109.14615722   238.51962552
 H      3   2   1     1.094333608017   108.88938882   296.20429734
 H      3   2   1     1.092117074368   108.59738957    52.68700139
 H      5   4   3     1.077111073494   121.56734234   179.54595417
 H      5   4   3     1.075971738868   122.55816516   359.59117005
 H      6   4   3     1.089233833283   110.01537771   303.83152844
 H      6   4   3     1.089353043638   110.04733540    62.42317136
 H      6   4   3     1.086610127455   111.23890501   183.06593481

---------------------------
INTERNAL COORDINATES (A.U.)
---------------------------
 C      0   0   0     0.000000000000     0.00000000     0.00000000
 C      1   0   0     2.880441854391     0.00000000     0.00000000
 C      2   1   0     2.891450186991   111.36192570     0.00000000
 C      3   2   1     2.851232985164   114.18560912   174.33855379
 C      4   3   2     2.501394611049   123.23247593    43.78223185
 C      4   3   2     2.833029226850   114.97267874   222.88689885
 H      1   2   3     2.054685352834   110.54528272   179.65585559
 H      1   2   3     2.055762583058   110.46338016    59.63629075
 H      1   2   3     2.055744112986   110.59987187   299.70574414
 H      2   1   3     2.064010571209   109.64815865   120.80113166
 H      2   1   3     2.061021749201   109.14615722   238.51962552
 H      3   2   1     2.067990818297   108.88938882   296.20429734
 H      3   2   1     2.063802176734   108.59738957    52.68700139
 H      5   4   3     2.035444944718   121.56734234   179.54595417
 H      5   4   3     2.033291914299   122.55816516   359.59117005
 H      6   4   3     2.058353640706   110.01537771   303.83152844
 H      6   4   3     2.058578915630   110.04733540    62.42317136
 H      6   4   3     2.053395555236   111.23890501   183.06593481

---------------------
BASIS SET INFORMATION
---------------------
There are 2 groups of distinct atoms

 Group   1 Type C   : 7s4p1d contracted to 3s2p1d pattern {511/31/1}
 Group   2 Type H   : 4s contracted to 2s pattern {31}

Atom   0C    basis set group =>   1
Atom   1C    basis set group =>   1
Atom   2C    basis set group =>   1
Atom   3C    basis set group =>   1
Atom   4C    basis set group =>   1
Atom   5C    basis set group =>   1
Atom   6H    basis set group =>   2
Atom   7H    basis set group =>   2
Atom   8H    basis set group =>   2
Atom   9H    basis set group =>   2
Atom  10H    basis set group =>   2
Atom  11H    basis set group =>   2
Atom  12H    basis set group =>   2
Atom  13H    basis set group =>   2
Atom  14H    basis set group =>   2
Atom  15H    basis set group =>   2
Atom  16H    basis set group =>   2
Atom  17H    basis set group =>   2
---------------------------------
AUXILIARY/J BASIS SET INFORMATION
---------------------------------
There are 2 groups of distinct atoms

 Group   1 Type C   : 12s5p4d2f1g contracted to 6s4p3d1f1g pattern {711111/2111/211/2/1}
 Group   2 Type H   : 5s2p1d contracted to 3s1p1d pattern {311/2/1}

Atom   0C    basis set group =>   1
Atom   1C    basis set group =>   1
Atom   2C    basis set group =>   1
Atom   3C    basis set group =>   1
Atom   4C    basis set group =>   1
Atom   5C    basis set group =>   1
Atom   6H    basis set group =>   2
Atom   7H    basis set group =>   2
Atom   8H    basis set group =>   2
Atom   9H    basis set group =>   2
Atom  10H    basis set group =>   2
Atom  11H    basis set group =>   2
Atom  12H    basis set group =>   2
Atom  13H    basis set group =>   2
Atom  14H    basis set group =>   2
Atom  15H    basis set group =>   2
Atom  16H    basis set group =>   2
Atom  17H    basis set group =>   2
------------------------------------------------------------------------------
                             ORCA STARTUP CALCULATIONS
                           -- RI-GTO INTEGRALS CHOSEN --
------------------------------------------------------------------------------
------------------------------------------------------------------------------
                   ___                                                        
                  /   \      - P O W E R E D   B Y -                         
                 /     \                                                     
                 |  |  |   _    _      __       _____    __    __             
                 |  |  |  | |  | |    /  \     |  _  \  |  |  /  |          
                  \  \/   | |  | |   /    \    | | | |  |  | /  /          
                 / \  \   | |__| |  /  /\  \   | |_| |  |  |/  /          
                |  |  |   |  __  | /  /__\  \  |    /   |      \           
                |  |  |   | |  | | |   __   |  |    \   |  |\   \          
                \     /   | |  | | |  |  |  |  | |\  \  |  | \   \       
                 \___/    |_|  |_| |__|  |__|  |_| \__\ |__|  \__/        
                                                                              
                      - O R C A' S   B I G   F R I E N D -                    
                                      &                                       
                       - I N T E G R A L  F E E D E R -                       
                                                                              
 v1 FN, 2020, v2 2021, v3 2022-2024                                           
------------------------------------------------------------------------------


----------------------
SHARK INTEGRAL PACKAGE
----------------------

Number of atoms                             ...     18
Number of basis functions                   ...    108
Number of shells                            ...     60
Maximum angular momentum                    ...      2
Integral batch strategy                     ... SHARK/LIBINT Hybrid
RI-J (if used) integral strategy            ... SPLIT-RIJ (Revised 2003 algorithm where possible)
Printlevel                                  ...      1
Contraction scheme used                     ... SEGMENTED contraction
Prescreening option                         ... SCHWARTZ
   Thresh                                   ... 1.000e-09
   Tcut                                     ... 1.000e-10
   Tpresel                                  ... 1.000e-10 
Coulomb Range Separation                    ... NOT USED
Exchange Range Separation                   ... NOT USED
Multipole approximations                    ... NOT USED
Finite Nucleus Model                        ... NOT USED
CABS basis                                  ... NOT available
Auxiliary Coulomb fitting basis             ... AVAILABLE
   # of basis functions in Aux-J            ...    426
   # of shells in Aux-J                     ...    150
   Maximum angular momentum in Aux-J        ...      4
Auxiliary J/K fitting basis                 ... NOT available
Auxiliary Correlation fitting basis         ... NOT available
Auxiliary 'external' fitting basis          ... NOT available

Checking pre-screening integrals            ... done (  0.0 sec) Dimension = 60
Check shell pair data                       ... done (  0.0 sec)
Shell pair information
Shell pair cut-off parameter TPreSel        ...   1.0e-10
Total number of shell pairs                 ...      1830
Shell pairs after pre-screening             ...      1755
Total number of primitive shell pairs       ...      7374
Primitive shell pairs kept                  ...      5164
          la=0 lb=0:    858 shell pairs
          la=1 lb=0:    492 shell pairs
          la=1 lb=1:     78 shell pairs
          la=2 lb=0:    237 shell pairs
          la=2 lb=1:     70 shell pairs
          la=2 lb=2:     20 shell pairs

Calculating one electron integrals          ... done (  0.0 sec)
Calculating RI/J V-Matrix + Cholesky decomp.... done (  0.1 sec)
Calculating Nuclear repulsion               ... done (  0.0 sec) ENN=    236.325369271057 Eh

Diagonalization of the overlap matrix:
Smallest eigenvalue                        ... 1.512e-03
Time for diagonalization                   ...    0.001 sec
Threshold for overlap eigenvalues          ... 1.000e-07
Number of eigenvalues below threshold      ... 0
Time for construction of square roots      ...    0.012 sec
Total time needed                          ...    0.021 sec

-------------------
DFT GRID GENERATION
-------------------

General Integration Accuracy     IntAcc      ... 4.159
Radial Grid Type                 RadialGrid  ... OptM3 with GC (2021)
Angular Grid (max. ang.)         AngularGrid ... 3 (Lebedev-194)
Angular grid pruning method      GridPruning ... 4 (adaptive)
Weight generation scheme         WeightScheme... mBecke (2022)
Basis function cutoff            BFCut       ... 1.0000e-10
Integration weight cutoff        WCut        ... 1.0000e-14
Partially contracted basis set               ... off
Rotationally invariant grid construction     ... off
Angular grids for H and He will be reduced by one unit

Total number of grid points                  ...    36430
Total number of batches                      ...      579
Average number of points per batch           ...       62
Average number of grid points per atom       ...     2024
Initializing property integral containers    ... done (  0.0 sec)

SHARK setup successfully completed in   0.6 seconds

Maximum memory used throughout the entire STARTUP-calculation: 17.3 MB
-------------------------------------------------------------------------------
                                 ORCA GUESS
                   Start orbitals & Density for SCF / CASSCF
-------------------------------------------------------------------------------

------------
SCF SETTINGS
------------
Hamiltonian:
 Density Functional     Method          .... DFT(GTOs)
 Exchange Functional    Exchange        .... PBE
   PBE kappa parameter   XKappa         ....  0.804000
   PBE mue parameter    XMuePBE         ....  0.219520
 Correlation Functional Correlation     .... PBE
   PBE beta parameter  CBetaPBE         ....  0.066725
 LDA part of GGA corr.  LDAOpt          .... PW91-LDA
 Gradients option       PostSCFGGA      .... off
   NL short-range parameter             ....  6.400000
 RI-approximation to the Coulomb term is turned on
   Number of AuxJ basis functions       .... 426


General Settings:
 Integral files         IntName         .... sp
 Hartree-Fock type      HFTyp           .... RHF
 Total Charge           Charge          ....    0
 Multiplicity           Mult            ....    1
 Number of Electrons    NEL             ....   48
 Basis Dimension        Dim             ....  108
 Nuclear Repulsion      ENuc            ....    236.3253692711 Eh

Convergence Acceleration:
 AO-DIIS                CNVDIIS         .... on
   Start iteration      DIISMaxIt       ....    12
   Startup error        DIISStart       ....  0.200000
   # of expansion vecs  DIISMaxEq       ....     5
   Bias factor          DIISBfac        ....   1.050
   Max. coefficient     DIISMaxC        ....  10.000
 MO-DIIS                CNVKDIIS        .... off
 Trust-Rad. Augm. Hess. CNVTRAH         .... auto
   Auto Start mean grad. ratio tolernc. ....  1.125000
   Auto Start start iteration           ....    50
   Auto Start num. interpolation iter.  ....    10
   Max. Number of Micro iterations      ....    24
   Max. Number of Macro iterations      .... Maxiter - #DIIS iter
   Number of Davidson start vectors     ....     2
   Converg. threshold    (grad. norm)   ....   1.000e-04
   Grad. Scal. Fac. for Micro threshold ....   0.100
   Minimum threshold for Micro iter.    ....   1.000e-02
   NR start threshold (gradient norm)   ....   1.000e-04
   Initial trust radius                 ....   0.400
   Minimum AH scaling param. (alpha)    ....   1.000
   Maximum AH scaling param. (alpha)    .... 1000.000
   Quad. conv. algorithm                .... NR
   White noise on init. David. guess    .... on
   Maximum white noise                  ....   0.010
   Pseudo random numbers                .... off
   Inactive MOs                         .... canonical
   Orbital update algorithm             .... Taylor
   Preconditioner                       .... Diag
   Full preconditioner red. dimension   ....   250
 SOSCF                  CNVSOSCF        .... on
   Start iteration      SOSCFMaxIt      ....   150
   Startup grad/error   SOSCFStart      ....  0.003300
   Hessian update       SOSCFHessUp     .... L-BFGS
 Level Shifting         CNVShift        .... on
   Level shift para.    LevelShift      ....    0.2500
   Turn off err/grad.   ShiftErr        ....    0.0010
 Zerner damping         CNVZerner       .... off
 Static damping         CNVDamp         .... on
   Fraction old density DampFac         ....    0.7000
   Max. Damping (<1)    DampMax         ....    0.9800
   Min. Damping (>=0)   DampMin         ....    0.0000
   Turn off err/grad.   DampErr         ....    0.1000

SCF Procedure:
 Maximum # iterations   MaxIter         ....   125
 SCF integral mode      SCFMode         .... Direct
   Integral package                     .... SHARK and LIBINT hybrid scheme
 Reset frequency        DirectResetFreq ....    20
 Integral Threshold     Thresh          ....  1.000e-09 Eh
 Primitive CutOff       TCut            ....  1.000e-10 Eh

Convergence Tolerance:
 Convergence Check Mode ConvCheckMode   .... Total+1el-Energy
 Convergence forced     ConvForced      .... 0
 Energy Change          TolE            ....  1.000e-05 Eh
 1-El. energy change                    ....  1.000e-02 Eh
 Orbital Gradient       TolG            ....  1.000e-04
 Orbital Rotation angle TolX            ....  1.000e-04
 DIIS Error             TolErr          ....  5.000e-04

------------------------------
INITIAL GUESS: MODEL POTENTIAL
------------------------------
Loading Hartree-Fock densities                     ... done
Calculating cut-offs                               ... done
Initializing the effective Hamiltonian             ... done
Setting up the integral package (SHARK)            ... done
Starting the Coulomb interaction                   ... done (   0.1 sec)
Making the grid                                    ... done (   0.2 sec)
Mapping shells                                     ... done
Starting the XC term evaluation                    ... done (   0.1 sec)
  promolecular density results
     # of electrons  =     47.998984569
     EX              =    -34.217322533
     EC              =     -1.542908362
     EX+EC           =    -35.760230895
Transforming the Hamiltonian                       ... done (   0.0 sec)
Diagonalizing the Hamiltonian                      ... done (   0.0 sec)
Back transforming the eigenvectors                 ... done (   0.0 sec)
Now organizing SCF variables                       ... done
                      ------------------
                      INITIAL GUESS DONE (   0.4 sec)
                      ------------------
             **** ENERGY FILE WAS UPDATED (sp.en.tmp) ****
Finished Guess after   0.6 sec
Maximum memory used throughout the entire GUESS-calculation: 13.2 MB

-------------------------------------------------------------------------------------------
                                      ORCA LEAN-SCF
                              memory conserving SCF solver
-------------------------------------------------------------------------------------------

----------------------------------------D-I-I-S--------------------------------------------
Iteration    Energy (Eh)           Delta-E    RMSDP     MaxDP     DIISErr   Damp  Time(sec)
-------------------------------------------------------------------------------------------
               ***  Starting incremental Fock matrix formation  ***
    1    -235.1059239563017798     0.00e+00  5.07e-03  8.20e-02  1.60e-01  0.700   0.8
    2    -235.2017702882820629    -9.58e-02  3.74e-03  4.74e-02  7.78e-02  0.700   0.7
                               ***Turning on AO-DIIS***
    3    -235.2363812386621760    -3.46e-02  1.45e-03  1.38e-02  2.43e-02  0.700   0.6
    4    -235.2560088210371703    -1.96e-02  2.07e-03  2.21e-02  8.50e-03  0.000   0.6
    5    -235.3000579239843830    -4.40e-02  6.18e-04  5.91e-03  7.31e-03  0.000   0.6
                              *** Initializing SOSCF ***
---------------------------------------S-O-S-C-F--------------------------------------
Iteration    Energy (Eh)           Delta-E    RMSDP     MaxDP     MaxGrad    Time(sec)
--------------------------------------------------------------------------------------
    6    -235.3005443966970631    -4.86e-04  2.25e-04  2.03e-03  1.63e-03     0.6
               *** Restarting incremental Fock matrix formation ***
    7    -235.3005796103132354    -3.52e-05  1.59e-04  2.17e-03  4.60e-04     0.6
    8    -235.3005765580209356     3.05e-06  6.02e-05  1.71e-03  9.49e-04     0.6
                 **** Energy Check signals convergence ****

               *****************************************************
               *                     SUCCESS                       *
               *           SCF CONVERGED AFTER   8 CYCLES          *
               *****************************************************

             **** ENERGY FILE WAS UPDATED (sp.en.tmp) ****

----------------
TOTAL SCF ENERGY
----------------

Total Energy       :       -235.30057655802094 Eh           -6402.85420 eV

Components:
Nuclear Repulsion  :        236.32536927105704 Eh            6430.74023 eV
Electronic Energy  :       -471.62594582907798 Eh          -12833.59443 eV
One Electron Energy:       -783.23064303396984 Eh          -21312.78932 eV
Two Electron Energy:        311.60469720489186 Eh            8479.19488 eV

Virial components:
Potential Energy   :       -468.40357615293539 Eh          -12745.90930 eV
Kinetic Energy     :        233.10299959491445 Eh            6343.05509 eV
Virial Ratio       :          2.00942749328377

DFT components:
N(Alpha)           :       24.000073394434 electrons
N(Beta)            :       24.000073394434 electrons
N(Total)           :       48.000146788867 electrons
E(X)               :      -35.121313330925 Eh       
E(C)               :       -1.557438450295 Eh       
E(XC)              :      -36.678751781220 Eh       

---------------
SCF CONVERGENCE
---------------

  Last Energy change         ...   -3.0523e-06  Tolerance :   1.0000e-05
  Last MAX-Density change    ...    1.7064e-03  Tolerance :   1.0000e-03
  Last RMS-Density change    ...    6.0230e-05  Tolerance :   1.0000e-04
  Last DIIS Error            ...    1.6306e-03  Tolerance :   5.0000e-04
  Last Orbital Gradient      ...    9.4859e-04  Tolerance :   1.0000e-04
  Last Orbital Rotation      ...    1.6091e-03  Tolerance :   1.0000e-04


----------------
ORBITAL ENERGIES
----------------

  NO   OCC          E(Eh)            E(eV) 
   0   2.0000      -9.895051      -269.2580 
   1   2.0000      -9.884736      -268.9773 
   2   2.0000      -9.884120      -268.9606 
   3   2.0000      -9.877150      -268.7709 
   4   2.0000      -9.872955      -268.6568 
   5   2.0000      -9.862195      -268.3640 
   6   2.0000      -0.736050       -20.0289 
   7   2.0000      -0.686452       -18.6793 
   8   2.0000      -0.611743       -16.6464 
   9   2.0000      -0.601953       -16.3800 
  10   2.0000      -0.526900       -14.3377 
  11   2.0000      -0.460751       -12.5377 
  12   2.0000      -0.421268       -11.4633 
  13   2.0000      -0.409697       -11.1484 
  14   2.0000      -0.385158       -10.4807 
  15   2.0000      -0.373338       -10.1590 
  16   2.0000      -0.356789        -9.7087 
  17   2.0000      -0.336422        -9.1545 
  18   2.0000      -0.328170        -8.9299 
  19   2.0000      -0.316394        -8.6095 
  20   2.0000      -0.294662        -8.0181 
  21   2.0000      -0.291654        -7.9363 
  22   2.0000      -0.274201        -7.4614 
  23   2.0000      -0.210928        -5.7396 
  24   0.0000      -0.008291        -0.2256 
  25   0.0000       0.038670         1.0523 
  26   0.0000       0.061453         1.6722 
  27   0.0000       0.072281         1.9669 
  28   0.0000       0.086016         2.3406 
  29   0.0000       0.091222         2.4823 
  30   0.0000       0.101848         2.7714 
  31   0.0000       0.115894         3.1536 
  32   0.0000       0.125500         3.4150 
  33   0.0000       0.134466         3.6590 
  34   0.0000       0.141323         3.8456 
*Only the first 10 virtual orbitals were printed.

                    ********************************
                    * MULLIKEN POPULATION ANALYSIS *
                    ********************************

-----------------------
MULLIKEN ATOMIC CHARGES
-----------------------
   0 C :   -0.260895
   1 C :   -0.207932
   2 C :   -0.125372
   3 C :   -0.078896
   4 C :   -0.237644
   5 C :   -0.222001
   6 H :    0.103043
   7 H :    0.095796
   8 H :    0.096921
   9 H :    0.090982
  10 H :    0.095699
  11 H :    0.097616
  12 H :    0.071366
  13 H :    0.080623
  14 H :    0.086523
  15 H :    0.109434
  16 H :    0.109195
  17 H :    0.095542
Sum of atomic charges:    0.0000000

--------------------------------
MULLIKEN REDUCED ORBITAL CHARGES
--------------------------------
  0 C s       :     3.079475  s :     3.079475
      pz      :     1.057667  p :     3.151992
      px      :     1.032769
      py      :     1.061556
      dz2     :     0.007253  d :     0.029428
      dxz     :     0.006841
      dyz     :     0.002514
      dx2y2   :     0.007827
      dxy     :     0.004993

  1 C s       :     3.084444  s :     3.084444
      pz      :     1.045594  p :     3.086440
      px      :     0.988668
      py      :     1.052178
      dz2     :     0.010612  d :     0.037047
      dxz     :     0.006893
      dyz     :     0.002983
      dx2y2   :     0.011105
      dxy     :     0.005454

  2 C s       :     3.018061  s :     3.018061
      pz      :     1.060007  p :     3.071469
      px      :     0.988929
      py      :     1.022533
      dz2     :     0.010317  d :     0.035841
      dxz     :     0.006068
      dyz     :     0.003448
      dx2y2   :     0.010708
      dxy     :     0.005300

  3 C s       :     3.079687  s :     3.079687
      pz      :     0.950057  p :     2.956763
      px      :     1.020468
      py      :     0.986238
      dz2     :     0.004408  d :     0.042446
      dxz     :     0.005450
      dyz     :     0.007569
      dx2y2   :     0.012101
      dxy     :     0.012918

  4 C s       :     3.188150  s :     3.188150
      pz      :     1.070734  p :     3.022942
      px      :     0.935296
      py      :     1.016911
      dz2     :     0.003497  d :     0.026553
      dxz     :     0.002147
      dyz     :     0.003521
      dx2y2   :     0.008491
      dxy     :     0.008897

  5 C s       :     3.030888  s :     3.030888
      pz      :     1.060610  p :     3.161851
      px      :     1.046492
      py      :     1.054750
      dz2     :     0.005784  d :     0.029261
      dxz     :     0.002578
      dyz     :     0.008215
      dx2y2   :     0.007427
      dxy     :     0.005257

  6 H s       :     0.896957  s :     0.896957

  7 H s       :     0.904204  s :     0.904204

  8 H s       :     0.903079  s :     0.903079

  9 H s       :     0.909018  s :     0.909018

 10 H s       :     0.904301  s :     0.904301

 11 H s       :     0.902384  s :     0.902384

 12 H s       :     0.928634  s :     0.928634

 13 H s       :     0.919377  s :     0.919377

 14 H s       :     0.913477  s :     0.913477

 15 H s       :     0.890566  s :     0.890566

 16 H s       :     0.890805  s :     0.890805

 17 H s       :     0.904458  s :     0.904458


------------------------
MULLIKEN OVERLAP CHARGES
------------------------
B(  0-C ,  1-C ) :   0.8746 B(  0-C ,  2-C ) :  -0.1187 B(  0-C ,  6-H ) :   0.7304 
B(  0-C ,  7-H ) :   0.7502 B(  0-C ,  8-H ) :   0.7568 B(  1-C ,  2-C ) :   0.8600 
B(  1-C ,  3-C ) :  -0.0700 B(  1-C ,  9-H ) :   0.7388 B(  1-C , 10-H ) :   0.7026 
B(  1-C , 12-H ) :  -0.0622 B(  2-C ,  3-C ) :   0.6781 B(  2-C ,  4-C ) :  -0.1697 
B(  2-C ,  5-C ) :  -0.2200 B(  2-C ,  9-H ) :  -0.0786 B(  2-C , 11-H ) :   0.6238 
B(  2-C , 12-H ) :   0.6941 B(  2-C , 14-H ) :  -0.0649 B(  3-C ,  4-C ) :   1.4662 
B(  3-C ,  5-C ) :   0.8836 B(  3-C , 12-H ) :  -0.0587 B(  4-C ,  5-C ) :  -0.1445 
B(  4-C , 13-H ) :   0.6681 B(  4-C , 14-H ) :   0.7080 B(  5-C , 13-H ) :  -0.0621 
B(  5-C , 15-H ) :   0.7132 B(  5-C , 16-H ) :   0.6976 B(  5-C , 17-H ) :   0.7084 
B(  7-H ,  8-H ) :  -0.0540 B(  9-H , 10-H ) :  -0.0710 B( 11-H , 12-H ) :  -0.0647 
B( 13-H , 14-H ) :  -0.1150 B( 15-H , 16-H ) :  -0.0536 


                     *******************************
                     * LOEWDIN POPULATION ANALYSIS *
                     *******************************

----------------------
LOEWDIN ATOMIC CHARGES
----------------------
   0 C :   -0.340644
   1 C :   -0.228799
   2 C :   -0.216094
   3 C :   -0.059962
   4 C :   -0.271826
   5 C :   -0.323056
   6 H :    0.119348
   7 H :    0.116706
   8 H :    0.116215
   9 H :    0.117504
  10 H :    0.116146
  11 H :    0.130014
  12 H :    0.115479
  13 H :    0.116643
  14 H :    0.115345
  15 H :    0.127483
  16 H :    0.127693
  17 H :    0.121806

-------------------------------
LOEWDIN REDUCED ORBITAL CHARGES
-------------------------------
  0 C s       :     2.945326  s :     2.945326
      pz      :     1.121418  p :     3.324259
      px      :     1.081387
      py      :     1.121454
      dz2     :     0.017700  d :     0.071059
      dxz     :     0.015781
      dyz     :     0.006309
      dx2y2   :     0.020165
      dxy     :     0.011104

  1 C s       :     2.907184  s :     2.907184
      pz      :     1.091311  p :     3.232663
      px      :     1.044286
      py      :     1.097065
      dz2     :     0.024729  d :     0.088952
      dxz     :     0.017333
      dyz     :     0.007236
      dx2y2   :     0.026952
      dxy     :     0.012702

  2 C s       :     2.905205  s :     2.905205
      pz      :     1.092015  p :     3.223476
      px      :     1.041891
      py      :     1.089569
      dz2     :     0.023490  d :     0.087414
      dxz     :     0.016151
      dyz     :     0.008318
      dx2y2   :     0.027360
      dxy     :     0.012095

  3 C s       :     2.868946  s :     2.868946
      pz      :     0.950546  p :     3.082032
      px      :     1.039123
      py      :     1.092363
      dz2     :     0.010308  d :     0.108984
      dxz     :     0.011999
      dyz     :     0.016733
      dx2y2   :     0.033924
      dxy     :     0.036020

  4 C s       :     2.949390  s :     2.949390
      pz      :     1.077184  p :     3.253085
      px      :     1.077934
      py      :     1.097967
      dz2     :     0.006844  d :     0.069350
      dxz     :     0.005207
      dyz     :     0.008369
      dx2y2   :     0.024205
      dxy     :     0.024725

  5 C s       :     2.940316  s :     2.940316
      pz      :     1.118091  p :     3.311041
      px      :     1.102844
      py      :     1.090106
      dz2     :     0.014991  d :     0.071699
      dxz     :     0.005722
      dyz     :     0.019259
      dx2y2   :     0.016996
      dxy     :     0.014731

  6 H s       :     0.880652  s :     0.880652

  7 H s       :     0.883294  s :     0.883294

  8 H s       :     0.883785  s :     0.883785

  9 H s       :     0.882496  s :     0.882496

 10 H s       :     0.883854  s :     0.883854

 11 H s       :     0.869986  s :     0.869986

 12 H s       :     0.884521  s :     0.884521

 13 H s       :     0.883357  s :     0.883357

 14 H s       :     0.884655  s :     0.884655

 15 H s       :     0.872517  s :     0.872517

 16 H s       :     0.872307  s :     0.872307

 17 H s       :     0.878194  s :     0.878194


---------------------------------
LOEWDIN BOND ORDERS (THRESH 0.050000)
---------------------------------
B(  0-C ,  1-C ) :   1.1307 B(  0-C ,  2-C ) :   0.0577 B(  0-C ,  6-H ) :   0.9390 
B(  0-C ,  7-H ) :   0.9410 B(  0-C ,  8-H ) :   0.9403 B(  1-C ,  2-C ) :   1.0845 
B(  1-C ,  3-C ) :   0.0562 B(  1-C ,  9-H ) :   0.9083 B(  1-C , 10-H ) :   0.9047 
B(  2-C ,  3-C ) :   1.0571 B(  2-C ,  4-C ) :   0.0801 B(  2-C ,  5-C ) :   0.0623 
B(  2-C , 11-H ) :   0.8907 B(  2-C , 12-H ) :   0.8968 B(  3-C ,  4-C ) :   1.9884 
B(  3-C ,  5-C ) :   1.1073 B(  4-C ,  5-C ) :   0.0882 B(  4-C , 13-H ) :   0.9177 
B(  4-C , 14-H ) :   0.9165 B(  5-C , 15-H ) :   0.9231 B(  5-C , 16-H ) :   0.9224 
B(  5-C , 17-H ) :   0.9322 

------------------------------------------
LOEWDIN REDUCED ORBITAL POPULATIONS PER MO
-------------------------------------------
THRESHOLD FOR PRINTING IS 0.1%%
                      0         1         2         3         4         5   
                  -9.89505  -9.88474  -9.88412  -9.87715  -9.87295  -9.86219
                   2.00000   2.00000   2.00000   2.00000   2.00000   2.00000
                  --------  --------  --------  --------  --------  --------
 0 C  s               0.0       0.0       0.0       0.0      99.7       0.0
 1 C  s               0.0       0.1      99.5       0.0       0.0       0.0
 2 C  s               0.0      99.5       0.1       0.0       0.0       0.0
 3 C  s              99.5       0.0       0.0       0.0       0.0       0.0
 3 C  py              0.0       0.0       0.0       0.1       0.0       0.1
 4 C  s               0.0       0.0       0.0       0.0       0.0      99.6
 4 C  py              0.1       0.0       0.0       0.0       0.0       0.0
 5 C  s               0.0       0.0       0.0      99.7       0.0       0.0

                      6         7         8         9        10        11   
                  -0.73605  -0.68645  -0.61174  -0.60195  -0.52690  -0.46075
                   2.00000   2.00000   2.00000   2.00000   2.00000   2.00000
                  --------  --------  --------  --------  --------  --------
 0 C  s               3.3      16.5       9.1       9.2       8.5       0.1
 0 C  pz              0.0       0.1       0.0       0.0       1.5       1.3
 0 C  px              1.1       1.6       0.2       0.4       6.5       0.3
 0 C  py              0.0       0.1       0.0       0.0       1.3       0.4
 0 C  dx2y2           0.0       0.0       0.0       0.0       0.1       0.0
 1 C  s              10.2      17.9       0.0       0.0      15.9       0.3
 1 C  pz              0.7       0.3       0.1       0.4       3.6       4.7
 1 C  px              0.5       1.5       5.3       5.0       1.4       0.1
 1 C  py              0.4       0.2       0.0       0.3       2.6       1.0
 1 C  dx2y2           0.0       0.0       0.0       0.0       0.1       0.0
 2 C  s              18.3       1.7       5.7      12.0       2.9       2.1
 2 C  pz              0.8       0.3       0.0       0.3       4.1       4.3
 2 C  px              0.5       6.4       0.1       0.0       3.2       8.8
 2 C  py              0.3       0.2       0.4       0.7       2.3       0.8
 2 C  dxz             0.0       0.1       0.0       0.0       0.1       0.0
 2 C  dx2y2           0.0       0.0       0.0       0.0       0.0       0.2
 3 C  s              21.6       8.2       0.5       0.6       1.5      10.2
 3 C  pz              0.0       0.1       0.0       2.2       1.0       0.0
 3 C  px              0.4       3.2       5.3       5.5       1.8       0.3
 3 C  py              0.0       0.0       9.6      11.5       0.1       0.5
 3 C  dz2             0.2       0.0       0.0       0.0       0.0       0.0
 3 C  dx2y2           0.0       0.1       0.0       0.2       0.0       0.0
 3 C  dxy             0.0       0.0       0.3       0.1       0.0       0.0
 4 C  s               8.3       5.7       5.4      20.5       0.2       5.6
 4 C  pz              0.3       0.1       0.0       0.0       0.2       1.4
 4 C  px              0.5       0.0       0.6       0.1       0.1       3.1
 4 C  py              2.5       1.3       0.1       0.2       0.3      13.5
 4 C  dx2y2           0.0       0.0       0.0       0.0       0.0       0.2
 4 C  dxy             0.0       0.0       0.0       0.0       0.0       0.2
 5 C  s               8.0       9.0      24.1       1.6       1.7       1.2
 5 C  pz              0.0       0.0       0.0       0.1       0.1       0.0
 5 C  px              1.0       0.2       0.3       0.2       1.3       4.2
 5 C  py              1.4       0.6       0.6       0.8       0.5       5.1
 5 C  dxy             0.0       0.0       0.0       0.0       0.0       0.2
 6 H  s               0.5       3.2       2.6       2.9       3.4       0.6
 7 H  s               0.6       3.3       2.3       2.3       4.8       0.1
 8 H  s               0.6       3.3       2.3       2.3       4.9       0.0
 9 H  s               1.9       3.3       0.0       0.0       7.9       1.5
10 H  s               1.9       3.3       0.0       0.0       8.3       0.5
11 H  s               3.2       0.4       1.6       3.2       2.1       3.9
12 H  s               3.5       0.4       0.7       4.4       2.2       3.0
13 H  s               1.2       1.2       0.7       5.7       0.3       8.1
14 H  s               1.4       0.7       1.9       5.0       0.3       6.5
15 H  s               1.5       1.7       6.7       0.8       0.5       1.6
16 H  s               1.4       1.7       6.7       0.8       0.7       1.3
17 H  s               1.4       2.0       6.5       0.1       1.3       2.4

                     12        13        14        15        16        17   
                  -0.42127  -0.40970  -0.38516  -0.37334  -0.35679  -0.33642
                   2.00000   2.00000   2.00000   2.00000   2.00000   2.00000
                  --------  --------  --------  --------  --------  --------
 0 C  s               0.0       0.2       0.0       0.0       0.0       0.0
 0 C  pz              3.1       1.9       2.8       7.8      16.2       6.4
 0 C  px              0.5       3.9       0.0       0.0       7.9      14.2
 0 C  py              7.6       0.0       9.0       4.9       1.7       0.8
 0 C  dz2             0.0       0.0       0.0       0.1       0.0       0.2
 0 C  dxz             0.0       0.0       0.0       0.0       0.1       0.0
 0 C  dyz             0.0       0.0       0.0       0.0       0.1       0.0
 1 C  s               0.0       0.2       0.1       0.0       0.3       0.1
 1 C  pz              6.4       4.7       1.2       3.4       3.1       0.5
 1 C  px              0.0       0.3       4.7       0.1       0.0      15.1
 1 C  py             17.3       0.5       4.9       2.4       0.5       0.4
 1 C  dxz             0.0       0.0       0.0       0.0       0.1       0.0
 1 C  dxy             0.0       0.0       0.0       0.0       0.0       0.2
 2 C  s               0.0       0.1       0.0       0.0       1.3       0.7
 2 C  pz              6.4       1.7       5.0       2.3       3.6      10.2
 2 C  px              0.4       7.8       1.5       0.1       0.2       0.4
 2 C  py             15.3       0.1       3.8       0.7       0.1       0.0
 2 C  dz2             0.0       0.0       0.0       0.0       0.1       0.0
 2 C  dx2y2           0.0       0.0       0.0       0.0       0.1       0.0
 3 C  s               0.0       0.3       0.0       0.0       0.3       0.1
 3 C  pz              1.9       0.4       3.7       6.0       0.7       0.1
 3 C  px              0.3      12.8       1.4       0.1       0.2       1.2
 3 C  py              1.9       0.3       7.6       4.0       0.7       1.3
 3 C  dxz             0.0       0.0       0.0       0.0       0.1       0.0
 3 C  dx2y2           0.0       0.0       0.0       0.0       0.1       0.5
 4 C  s               0.3       0.5       0.2       0.0       0.1       0.2
 4 C  pz              1.0       0.2       0.4       2.1       0.1       1.0
 4 C  px              3.3       7.7      12.0       0.6       0.2       2.7
 4 C  py              0.0      15.0       2.0       0.1       0.4       0.8
 5 C  s               0.3       0.1       0.3       0.0       0.0       0.0
 5 C  pz              1.0       0.9       4.9      22.8      16.7       2.0
 5 C  px              1.4       3.2       6.2       8.6       6.9       8.5
 5 C  py              0.4      11.6       3.8       0.6       0.0       4.8
 5 C  dz2             0.0       0.1       0.0       0.1       0.1       0.0
 5 C  dyz             0.0       0.0       0.0       0.2       0.1       0.1
 5 C  dx2y2           0.0       0.0       0.0       0.0       0.1       0.2
 5 C  dxy             0.0       0.0       0.2       0.0       0.1       0.0
 6 H  s               0.2       2.4       1.9       0.2      12.5       1.1
 7 H  s               2.7       0.1       0.3       4.7       4.0       6.1
 8 H  s               2.6       0.1       3.9       2.4       0.3       0.2
 9 H  s               4.8       0.8       0.1       1.9       0.5       0.5
10 H  s               5.9       0.2       2.2       1.1       0.0       0.3
11 H  s               4.8       1.4       0.7       1.4       4.0       3.3
12 H  s               5.9       0.0       1.2       0.3       0.2       0.1
13 H  s               2.2       0.6       6.9       0.7       0.1       2.2
14 H  s               0.1      11.5       0.1       0.0       0.4       0.1
15 H  s               1.0       2.4       0.4       9.1       7.2       0.1
16 H  s               0.0       3.2       2.7       9.1       1.8       7.0
17 H  s               0.4       2.1       3.2       1.6       6.5       5.6

                     18        19        20        21        22        23   
                  -0.32817  -0.31639  -0.29466  -0.29165  -0.27420  -0.21093
                   2.00000   2.00000   2.00000   2.00000   2.00000   2.00000
                  --------  --------  --------  --------  --------  --------
 0 C  s               0.0       0.0       0.3       0.2       0.2       0.0
 0 C  pz              0.0       0.1      11.3       3.5       0.0       0.0
 0 C  px              0.8       3.9       1.6       4.2       6.4       0.6
 0 C  py             20.8       1.1       1.8       5.4       1.3       0.0
 0 C  dz2             0.1       0.0       0.2       0.2       0.0       0.0
 0 C  dxz             0.0       0.0       0.2       0.2       0.1       0.0
 0 C  dx2y2           0.3       0.0       0.2       0.1       0.1       0.0
 0 C  dxy             0.0       0.1       0.0       0.0       0.2       0.0
 1 C  s               0.0       0.0       0.2       0.0       0.0       0.3
 1 C  pz              0.1       0.0      19.6       5.2       0.1       0.2
 1 C  px              3.7       3.1       0.3       2.8       7.0       1.2
 1 C  py              1.2       0.4       4.2      12.9       5.6       0.1
 1 C  dz2             0.0       0.0       0.3       0.4       0.4       0.0
 1 C  dxz             0.0       0.0       0.2       0.1       0.1       0.0
 1 C  dx2y2           0.0       0.0       0.5       0.5       0.0       0.0
 1 C  dxy             0.1       0.1       0.0       0.0       0.1       0.0
 2 C  s               0.0       0.1       0.6       0.0       0.0       0.0
 2 C  pz              1.0       0.5      10.6       0.6       0.7       2.0
 2 C  px              1.1       1.0       0.1       5.3      14.9       0.2
 2 C  py             14.9       1.2       6.4       4.4       2.7       0.1
 2 C  dz2             0.1       0.0       0.1       0.1       0.3       0.2
 2 C  dxz             0.0       0.0       0.0       0.0       0.1       0.3
 2 C  dx2y2           0.1       0.0       0.4       0.4       0.0       0.0
 2 C  dxy             0.1       0.0       0.1       0.0       0.1       0.0
 3 C  s               0.0       0.2       0.2       0.1       0.1       0.0
 3 C  pz              0.9       0.8       0.0       1.9       0.4      27.3
 3 C  px              0.1       0.1       2.0       3.4      11.7       2.0
 3 C  py              4.5       6.5       1.9       0.1       1.9       1.8
 3 C  dz2             0.0       0.0       0.0       0.0       0.0       0.2
 3 C  dxz             0.0       0.0       0.0       0.0       0.1       0.1
 3 C  dyz             0.1       0.0       0.0       0.0       0.0       0.5
 3 C  dx2y2           0.1       0.0       0.2       0.1       0.3       0.0
 3 C  dxy             0.1       0.4       0.1       0.0       0.6       0.1
 4 C  s               0.3       0.3       0.1       0.0       0.0       0.0
 4 C  pz              0.7       0.0       0.5       0.0       0.0      45.6
 4 C  px              7.4       7.4       0.6       1.3       3.4       2.9
 4 C  py              1.3      11.2       1.4       1.0       1.1       2.6
 4 C  dyz             0.0       0.0       0.0       0.0       0.0       0.2
 4 C  dx2y2           0.1       0.1       0.0       0.1       0.3       0.0
 4 C  dxy             0.0       0.4       0.0       0.0       0.4       0.0
 5 C  s               0.0       0.2       0.1       0.0       0.7       0.0
 5 C  pz              1.2       3.6       0.2       0.8       0.0       1.6
 5 C  px              3.0       2.3       0.0       0.6       7.1       0.1
 5 C  py              0.3      18.3       0.6       0.2       4.6       0.1
 5 C  dz2             0.0       0.3       0.0       0.0       0.0       0.1
 5 C  dyz             0.0       0.0       0.0       0.0       0.0       0.5
 5 C  dx2y2           0.0       0.2       0.0       0.0       0.2       0.1
 6 H  s               1.3       2.3       3.5       1.4       3.8       0.1
 7 H  s               0.7       0.1       6.4       5.0       0.4       0.0
 8 H  s              12.4       0.5       1.0       5.8       1.7       0.0
 9 H  s               0.2       0.2      10.4       7.6       2.5       0.1
10 H  s               1.1       0.6       2.8      12.5       3.3       0.1
11 H  s               2.8       0.0       2.9       1.7       3.1       2.9
12 H  s               9.4       0.1       4.4       6.6       1.3       0.4
13 H  s               4.7       3.9       0.8       1.2       3.5       0.0
14 H  s               0.4      11.9       0.0       0.2       3.7       0.0
15 H  s               0.9       6.7       0.0       0.5       0.0       2.5
16 H  s               0.4       3.2       0.5       0.2       0.1       2.7
17 H  s               0.7       6.3       0.1       0.6       3.2       0.0

                     24        25        26        27        28        29   
                  -0.00829   0.03867   0.06145   0.07228   0.08602   0.09122
                   0.00000   0.00000   0.00000   0.00000   0.00000   0.00000
                  --------  --------  --------  --------  --------  --------
 0 C  s               0.1       5.9      10.0       2.5       0.1       1.8
 0 C  pz              0.2       0.3       0.0       0.1       5.0       1.3
 0 C  px              0.1       1.5       1.3       0.0       0.2       0.0
 0 C  py              0.0       0.5       0.1       3.4       0.0       0.2
 0 C  dxz             0.0       0.1       0.0       0.0       0.2       0.1
 0 C  dx2y2           0.0       0.1       0.0       0.1       0.0       0.0
 0 C  dxy             0.0       0.1       0.0       0.2       0.0       0.0
 1 C  s               0.9       4.9       2.8       1.0       3.0       2.7
 1 C  pz              0.2       1.5       0.1       0.4       2.8       2.3
 1 C  px              0.6       0.0       0.8       0.0       0.3       0.0
 1 C  py              0.2       1.0       0.8       7.3       0.5       0.1
 1 C  dz2             0.0       0.0       0.0       0.3       0.7       0.0
 1 C  dyz             0.0       0.2       0.0       0.0       0.1       0.0
 1 C  dx2y2           0.0       0.0       0.2       0.2       0.0       0.0
 2 C  s               0.2       5.6       0.8       0.3       1.8       0.9
 2 C  pz              0.6       1.7       0.2       0.3       5.9       0.2
 2 C  px              0.1       0.1       0.6       0.0       1.7       0.7
 2 C  py              0.0       1.6       0.4       3.4       0.3       0.0
 2 C  dz2             0.4       0.0       0.0       0.1       0.4       0.0
 2 C  dxz             1.0       0.0       0.1       0.1       0.3       0.0
 2 C  dyz             0.1       0.2       0.1       0.0       0.0       0.1
 2 C  dx2y2           0.0       0.0       0.1       0.1       0.0       0.0
 2 C  dxy             0.0       0.0       0.1       0.0       0.0       0.0
 3 C  s               0.0       0.1       0.7       0.1       0.1       0.6
 3 C  pz             34.6       0.9       0.2       0.3       0.4       0.3
 3 C  px              2.1       0.0       0.3       0.2       1.2       1.0
 3 C  py              2.3       0.1       0.2       0.4       0.3       0.2
 3 C  dz2             0.2       0.1       0.0       0.0       0.0       0.1
 3 C  dxz             0.1       0.1       0.0       0.0       0.0       0.0
 3 C  dyz             0.8       0.0       0.0       0.0       0.0       0.1
 3 C  dx2y2           0.0       0.0       0.0       0.1       0.2       1.2
 3 C  dxy             0.1       0.0       0.0       0.3       0.1       0.4
 4 C  s               0.0       2.2       0.5       4.5       1.5       0.9
 4 C  pz             36.2       0.4       0.2       0.0       1.9       0.1
 4 C  px              2.4       0.1       0.6       0.3       1.2       7.4
 4 C  py              2.1       0.5       0.1       4.5       0.1       0.0
 4 C  dz2             0.4       0.0       0.0       0.1       0.1       0.0
 4 C  dyz             1.0       0.0       0.0       0.0       0.0       0.0
 4 C  dx2y2           0.0       0.0       0.0       0.0       0.1       0.3
 4 C  dxy             0.1       0.0       0.0       0.2       0.0       0.0
 5 C  s               0.0       5.1      10.2       0.5       0.0       0.7
 5 C  pz              0.1       0.1       0.2       0.1       1.1       0.0
 5 C  px              0.0       0.1       1.2       0.2       2.1       8.5
 5 C  py              0.0       1.5       2.7       0.7       0.2       1.2
 5 C  dxz             0.2       0.0       0.0       0.0       0.0       0.2
 5 C  dyz             0.9       0.1       0.0       0.0       0.0       0.0
 5 C  dx2y2           0.1       0.0       0.0       0.1       0.0       0.3
 5 C  dxy             0.0       0.1       0.1       0.0       0.0       0.2
 6 H  s               0.0       3.5      10.4       0.3       4.1       0.4
 7 H  s               0.4       4.7       7.8       0.1       9.2       7.3
 8 H  s               0.1       6.5       3.7      14.4       0.0       0.2
 9 H  s               0.2       6.3       1.1       1.5      16.0      11.0
10 H  s               0.1       5.8       5.5      19.7       0.4       1.1
11 H  s               5.3       6.7       0.0       1.3      19.1       0.9
12 H  s               0.2      10.7       2.3       8.7       0.4       0.2
13 H  s               0.0       2.2       2.6       1.6       8.7      18.8
14 H  s               0.0       1.9       0.2      17.9       0.3       2.0
15 H  s               2.6       2.7      13.5       0.2       2.3       1.8
16 H  s               2.3       9.1       8.1       0.3       0.1      10.1
17 H  s               0.0       2.8       8.4       1.1       5.5      11.8

                     30        31        32        33        34        35   
                   0.10185   0.11589   0.12550   0.13447   0.14132   0.14877
                   0.00000   0.00000   0.00000   0.00000   0.00000   0.00000
                  --------  --------  --------  --------  --------  --------
 0 C  s               4.7       0.5       3.2       0.0       0.0       0.2
 0 C  pz              1.2       2.0       3.7       0.5      10.4       0.3
 0 C  px              1.1       0.4       2.4       2.7       0.2       0.3
 0 C  py              4.2       1.7       2.5       6.0       3.7       1.7
 0 C  dz2             0.0       0.1       0.0       0.3       0.7       0.2
 0 C  dxz             0.0       0.0       0.9       0.0       0.0       0.0
 0 C  dyz             0.1       0.0       0.1       0.3       0.3       0.0
 0 C  dx2y2           0.3       0.0       0.0       0.1       0.0       0.0
 0 C  dxy             0.0       0.1       0.2       0.2       0.0       0.2
 1 C  s               1.7       0.4       0.7       0.2       1.6       0.1
 1 C  pz              0.3       0.7       1.4       5.6       2.4       0.1
 1 C  px              0.1       0.1       2.1       0.0       0.1       0.3
 1 C  py              0.0       1.0       0.1       0.2       0.9       0.9
 1 C  dz2             0.1       0.0       0.0       0.0       0.0       0.0
 1 C  dxz             0.0       0.0       1.0       0.1       0.5       0.1
 1 C  dyz             0.1       0.0       0.0       0.4       0.1       0.1
 1 C  dx2y2           0.5       0.0       0.0       0.0       0.0       0.0
 1 C  dxy             0.0       0.0       0.3       0.3       0.2       0.5
 2 C  s               0.9       0.2       8.7       0.2       0.8       0.1
 2 C  pz              0.7       1.3       2.2       0.4       0.8       1.0
 2 C  px              0.1       0.6       0.1       1.3       0.1       1.4
 2 C  py              4.0       2.6       0.3       2.6       0.9       6.6
 2 C  dz2             0.0       0.0       0.0       0.0       0.6       0.1
 2 C  dxz             0.0       0.3       0.0       0.2       0.0       0.1
 2 C  dyz             0.0       0.1       0.0       0.0       0.1       0.0
 2 C  dx2y2           0.8       0.0       0.0       0.1       0.2       0.3
 2 C  dxy             0.2       0.1       0.0       0.4       0.0       0.1
 3 C  s               1.0       0.2       0.4       0.1       0.4       1.5
 3 C  pz              0.1       0.1       0.6       1.1       0.4       0.4
 3 C  px              0.0       0.2       0.5       0.4       0.0       0.1
 3 C  py              0.6       0.2       0.3       0.4       0.5       0.3
 3 C  dz2             0.2       0.0       0.0       0.0       0.1       0.2
 3 C  dxz             0.0       0.8       0.1       0.0       0.1       0.4
 3 C  dyz             0.0       0.2       0.0       0.0       0.1       0.1
 3 C  dx2y2           0.1       0.2       0.3       0.3       0.0       0.0
 3 C  dxy             0.6       0.2       0.1       0.8       0.3       0.1
 4 C  s               2.7       1.8       0.7       1.1       0.0       4.1
 4 C  pz              0.1       0.0       0.1       0.3       0.2       0.4
 4 C  px              0.1       0.4       0.8       0.2       0.4       5.5
 4 C  py              1.0       0.7       0.6       0.2       0.2       0.4
 4 C  dz2             0.1       0.1       0.1       0.2       0.0       0.0
 4 C  dyz             0.0       0.0       0.0       0.0       0.0       0.1
 4 C  dx2y2           0.1       0.0       0.3       0.0       0.1       0.0
 4 C  dxy             0.0       0.0       0.1       0.1       0.0       0.2
 5 C  s               7.6       0.2       2.4       0.3       0.3       0.1
 5 C  pz              1.8      14.9       1.6       1.8       4.8       0.7
 5 C  px              0.6       0.1       0.6       2.8       0.5       5.1
 5 C  py              0.2       0.0       0.4       6.0       0.9       1.6
 5 C  dz2             0.0       0.4       0.0       0.1       0.4       0.4
 5 C  dxz             0.0       0.1       0.1       0.3       0.0       0.2
 5 C  dyz             0.0       0.5       0.0       0.1       0.0       0.2
 5 C  dx2y2           0.0       0.1       0.2       0.1       0.0       0.4
 5 C  dxy             0.3       0.0       0.0       0.2       0.1       0.1
 6 H  s              20.7       2.0       6.7      12.2       4.2       0.3
 7 H  s               1.6       2.9       8.7       0.5      20.4       1.1
 8 H  s               0.8       5.7       9.8       8.8       9.5       4.4
 9 H  s               0.1       4.2       3.5       9.2      11.5       0.4
10 H  s               1.0       0.8       0.1       0.1       0.2       1.8
11 H  s               0.2       5.0      15.7       2.6       5.2       4.2
12 H  s              10.9       4.2       2.3       4.0       0.9      12.5
13 H  s               3.1       0.1       0.2       2.0       1.0      20.1
14 H  s               4.1       5.0       3.6       0.0       0.8       0.1
15 H  s              13.9      19.7       0.1       0.8       7.2       2.0
16 H  s               0.6      13.4       7.1      12.6       1.7       1.8
17 H  s               4.4       3.3       1.9       8.0       2.9      13.8

                     36        37        38        39        40        41   
                   0.16832   0.19986   0.20834   0.21992   0.25494   0.32101
                   0.00000   0.00000   0.00000   0.00000   0.00000   0.00000
                  --------  --------  --------  --------  --------  --------
 0 C  s               0.2       2.1       0.1       0.3       0.2       0.0
 0 C  pz              0.1       1.5       1.7       1.5       1.9       0.4
 0 C  px              1.1      22.5       6.3       2.2       1.0       1.0
 0 C  py              1.3       1.6       1.4       0.9       1.5       2.3
 0 C  dz2             0.0       1.3       0.1       0.0       0.2       0.0
 0 C  dxz             0.2       1.1       0.1       0.5       0.0       0.1
 0 C  dyz             0.0       0.1       0.2       0.6       0.1       0.2
 0 C  dx2y2           0.2       3.3       1.0       0.0       0.7       0.7
 0 C  dxy             0.2       0.9       0.0       0.9       0.0       0.0
 1 C  s               4.5       7.8       0.1       0.7       0.9       0.2
 1 C  pz              2.2       8.8       0.1       3.4       0.1       0.1
 1 C  px              1.5       6.5       5.3      19.1       1.5       3.0
 1 C  py              6.6       6.2       0.2       4.7       0.2       0.9
 1 C  dz2             0.2       0.2       0.5       0.1       0.2       0.2
 1 C  dxz             0.2       0.0       0.4       3.1       0.2       0.1
 1 C  dyz             0.1       2.0       0.1       0.8       0.2       0.1
 1 C  dx2y2           0.3       2.1       0.9       0.1       0.1       0.0
 1 C  dxy             0.2       0.1       0.1       2.0       0.0       0.2
 2 C  s               0.4       0.9       2.5       5.0       1.6       0.0
 2 C  pz              0.4       0.6       0.1      15.0       3.5       0.1
 2 C  px              1.7       7.3       9.6       2.1       6.7       1.2
 2 C  py              0.1       0.1       1.6       3.8       1.9       2.5
 2 C  dz2             0.0       0.0       0.6       0.1       0.3       0.6
 2 C  dxz             0.0       1.2       0.8       0.7       0.6       0.1
 2 C  dyz             0.3       0.1       0.1       1.8       0.8       0.2
 2 C  dx2y2           0.0       0.0       2.0       0.9       1.9       0.0
 2 C  dxy             0.6       0.6       0.4       0.6       0.4       0.2
 3 C  s               0.5       2.4      22.3       1.7       0.6       4.7
 3 C  pz              0.1       1.1       0.5       0.8       0.2       0.7
 3 C  px              1.2       0.3       0.8       0.2      16.9       0.1
 3 C  py              1.0       0.8       2.1       1.5       1.8       9.7
 3 C  dz2             0.1       0.0       1.9       0.8       0.0       0.2
 3 C  dxz             0.0       0.3       0.4       0.0       0.2       0.1
 3 C  dyz             0.0       0.1       0.6       0.1       0.0       0.1
 3 C  dx2y2           0.3       0.1       0.1       0.3       0.8       0.2
 3 C  dxy             0.7       0.0       0.0       0.1       0.3       0.3
 4 C  s               3.6       0.7       0.4       0.2       0.5      12.0
 4 C  pz              0.1       0.1       0.3       1.3       0.0       3.7
 4 C  px              2.2       1.3       0.1       0.5       1.5       5.6
 4 C  py              4.9       0.2       1.6       0.3       0.4      24.5
 4 C  dz2             0.1       0.0       0.0       0.0       0.1       1.0
 4 C  dxz             0.0       0.0       0.1       0.1       0.0       0.2
 4 C  dyz             0.0       0.1       0.3       0.1       0.1       2.4
 4 C  dx2y2           0.5       0.0       0.5       0.0       1.3       4.3
 4 C  dxy             0.2       0.0       0.9       0.2       0.7       4.4
 5 C  s               0.1       0.3       0.6       0.0       0.6       0.1
 5 C  pz              0.3       0.1       0.0       0.3       0.1       0.2
 5 C  px              0.5       2.6       4.2       2.3       3.0       2.7
 5 C  py              2.9       0.3       7.7       1.1      14.8       1.3
 5 C  dz2             0.3       0.0       0.7       0.1       1.4       0.1
 5 C  dyz             0.0       0.1       0.0       0.0       0.4       0.0
 5 C  dx2y2           0.1       0.1       0.0       0.0       1.5       0.0
 5 C  dxy             0.2       0.4       3.5       0.8       2.1       1.1
 6 H  s               2.0       1.1       2.0       1.7       1.3       0.0
 7 H  s               1.8       0.6       0.4       1.5       1.0       0.1
 8 H  s               0.4       1.1       2.1       0.9       1.1       1.0
 9 H  s               1.4       1.1       0.2       0.6       0.2       0.1
10 H  s              26.0       1.5       0.6       2.0       0.1       0.8
11 H  s               1.1       0.1       0.1       3.3       1.2       0.2
12 H  s               0.2       0.7       6.4       1.0       1.1       0.3
13 H  s               0.4       0.6       0.0       1.2       7.1       1.1
14 H  s              22.6       0.3       0.3       1.3       7.6       0.3
15 H  s               1.4       0.5       0.7       0.5       0.5       0.1
16 H  s               0.3       0.2       1.1       0.9       1.5       0.4
17 H  s               0.0       1.8       0.1       1.4       1.2       1.9

                     42        43        44        45        46        47   
                   0.38351   0.40399   0.40631   0.41298   0.41931   0.43564
                   0.00000   0.00000   0.00000   0.00000   0.00000   0.00000
                  --------  --------  --------  --------  --------  --------
 0 C  s               0.7       0.5       0.1       0.1       0.3       1.1
 0 C  pz              0.1       0.1      14.5       0.3       2.6       5.5
 0 C  px              7.4       6.7       0.5       0.7       1.6       3.7
 0 C  py              1.0       2.4       9.5       0.5       0.2       8.4
 0 C  dz2             0.1       0.6       5.1       0.0       0.4       0.0
 0 C  dxz             1.1       0.2       0.2       1.0       0.0       0.0
 0 C  dyz             0.1       0.3       0.8       0.0       0.3       1.0
 0 C  dx2y2           0.9       0.3       0.6       0.3       0.1       2.2
 0 C  dxy             0.0       0.8       0.3       0.4       0.0       0.0
 1 C  s               0.2       0.2       0.1       1.2       0.1       0.0
 1 C  pz              2.5       1.4       0.2      11.1       0.1       5.1
 1 C  px              4.5       1.9       0.3       0.3       1.0       3.9
 1 C  py              1.2       1.2       3.2       5.1       0.1       2.4
 1 C  dz2             2.7       0.3       1.3       0.2       0.1       0.3
 1 C  dxz             0.0       0.2       0.5       0.7       0.3       0.3
 1 C  dyz             0.2       0.3       0.0       2.3       0.0       0.6
 1 C  dx2y2           0.0       1.8       1.1       0.9       0.1       0.3
 1 C  dxy             0.3       0.0       0.6       0.4       0.0       0.3
 2 C  s               0.1       0.8       0.4       0.4       0.3       0.6
 2 C  pz              1.0       0.4       0.4       2.2       0.3       2.1
 2 C  px              1.4       7.1       1.7       7.7       0.3       6.5
 2 C  py              0.4       3.9       1.3       6.9       0.2       1.1
 2 C  dz2             0.8       0.5       0.0       0.9       0.0       0.5
 2 C  dxz             0.2       0.0       0.0       0.2       0.0       0.0
 2 C  dyz             0.0       0.1       0.2       0.2       0.1       0.4
 2 C  dx2y2           0.5       2.1       0.0       0.6       0.0       0.0
 2 C  dxy             0.6       0.2       0.0       1.3       0.1       0.0
 3 C  s              19.1       0.5       2.7       0.4       1.8       2.3
 3 C  pz              0.3       0.8       0.8       0.1       7.6       1.2
 3 C  px              1.1       1.9       1.3       0.7       2.0       1.7
 3 C  py              1.8       1.3       0.0       1.4       1.2       0.4
 3 C  dz2             2.0       0.0       0.3       0.0       0.8       1.2
 3 C  dxz             0.5       0.5       0.0       0.1       0.1       0.0
 3 C  dyz             1.3       0.0       0.1       0.3       0.2       0.4
 3 C  dx2y2           0.6       0.5       1.2       1.2       0.3       0.7
 3 C  dxy             0.4       2.4       0.2       1.0       0.1       0.2
 4 C  s               7.2       0.5       1.0       1.1       1.9       5.2
 4 C  pz              1.2       2.7       0.3       3.0      21.6       0.1
 4 C  px              0.6       1.8       0.7       0.2       2.3       0.2
 4 C  py              3.1       2.7       0.8       0.8       0.2       0.5
 4 C  dz2             0.9       0.0       0.0       0.4       0.0       0.9
 4 C  dxz             0.2       0.2       0.3       0.2       0.6       0.0
 4 C  dyz             0.0       0.0       0.0       0.1       0.6       0.2
 4 C  dx2y2           0.3       0.6       0.7       0.1       0.1       0.0
 4 C  dxy             0.3       2.4       0.4       0.0       0.0       0.1
 5 C  s               0.1       0.8       0.8       0.1       0.5       1.0
 5 C  pz              1.2       2.3       0.0       1.6      15.8       9.9
 5 C  px              0.9       1.5       0.4       5.7       0.7       2.8
 5 C  py              3.9       7.6       4.5       1.3       8.0       2.3
 5 C  dz2             0.8       0.7       0.2       1.8       0.5       0.7
 5 C  dxz             0.1       0.0       0.1       0.5       1.2       0.6
 5 C  dyz             0.0       0.1       0.0       0.0       2.8       1.1
 5 C  dx2y2           0.4       0.0       0.4       1.9       0.1       0.7
 5 C  dxy             0.0       0.2       0.1       0.0       0.6       0.0
 6 H  s               1.5       3.4       0.1       3.5       0.1       0.9
 7 H  s               0.6       0.6      14.3       0.2       1.6       1.4
 8 H  s               2.6       2.3       7.4       0.9       0.0       4.2
 9 H  s               6.6       1.7       4.0       4.5       0.0       1.3
10 H  s               1.6       4.2       6.4       1.4       0.1       0.5
11 H  s               1.0       0.6       0.7       0.4       0.9       0.2
12 H  s               0.4       8.5       0.6       4.7       0.3       0.1
13 H  s               2.6       3.7       2.8       0.7       1.6       0.8
14 H  s               2.5       5.5       1.2       0.7       0.0       1.3
15 H  s               1.0       3.0       0.6       3.4       5.3       3.3
16 H  s               0.7       0.2       0.9       0.8       9.5       4.2
17 H  s               2.5       0.1       1.0       8.9       0.1       1.1

                     48        49        50        51        52        53   
                   0.46657   0.48286   0.52082   0.54300   0.56589   0.58485
                   0.00000   0.00000   0.00000   0.00000   0.00000   0.00000
                  --------  --------  --------  --------  --------  --------
 0 C  s               0.3       0.2       1.1       0.4       8.9       1.3
 0 C  pz              3.5       1.6       3.4       4.4       2.0       0.2
 0 C  px              1.3       1.9       4.9       0.0      13.1       1.9
 0 C  py              2.3       1.3      11.7       1.4       0.4       0.4
 0 C  dz2             0.8       0.0       0.3       0.3       0.0       0.1
 0 C  dxz             0.1       0.6       0.6       0.1       0.2       0.0
 0 C  dyz             0.2       0.8       1.1       0.3       1.1       0.4
 0 C  dx2y2           0.1       0.1       0.5       0.1       0.0       0.0
 0 C  dxy             0.3       0.2       0.0       0.1       0.3       0.0
 1 C  s               1.6       0.1       1.2       1.9       0.4       7.3
 1 C  pz              3.2       0.0       0.7       9.8       2.9       3.0
 1 C  px              2.0       0.9       0.9       3.5       4.8      12.1
 1 C  py              8.6       1.2       1.3       1.3       0.6       2.3
 1 C  dz2             0.6       0.2       0.1       0.6       0.0       0.1
 1 C  dxz             0.7       0.0       0.1       0.0       0.0       0.0
 1 C  dyz             0.1       0.0       0.1       0.6       0.0       0.0
 1 C  dx2y2           0.4       0.1       0.4       0.0       1.1       0.3
 1 C  dxy             0.0       0.0       0.3       0.1       0.2       0.0
 2 C  s               0.5       1.6       5.0       0.0       7.7       6.0
 2 C  pz             17.5       0.0       0.5       0.1       0.3      12.5
 2 C  px              0.7       5.4       2.3       0.4       1.8       2.9
 2 C  py              0.2       0.6       1.2       1.0       0.1       5.5
[...]
 5 C  s               0.0       0.1       0.5       0.4       0.0       0.0
 5 C  pz              0.0       0.1       0.0       0.1       0.0       0.1
 5 C  px              0.4       0.0       0.2       0.7       0.0       0.0
 5 C  py              0.3       0.0       1.4       0.1       0.1       0.1
 5 C  dz2             1.9       3.1       9.6       0.0       7.6       0.7
 5 C  dxz             3.7       0.0       0.3       0.6       2.5       0.3
 5 C  dyz             8.0       6.6       1.3       0.4      15.4       1.8
 5 C  dx2y2          14.3       0.0       0.1       1.9       0.1       7.3
 5 C  dxy             0.1       0.0      10.5       4.6       0.0       0.3
 6 H  s               2.7       0.2       0.1       0.1       0.0       0.2
 7 H  s               0.5       0.5       0.0       1.7       0.0       0.2
 8 H  s               1.1       1.3       0.3       0.6       0.3       0.1
 9 H  s               0.3       3.5       0.5       0.5       0.3       0.1
10 H  s               0.8       3.1       0.0       0.6       0.4       0.4
11 H  s               0.2       0.1       0.3       1.9       0.4       0.1
12 H  s               0.2       0.2       0.1       2.0       1.4       0.6
13 H  s               0.0       0.1       2.1       0.1       0.1       0.2
14 H  s               0.0       0.0       1.9       0.1       0.1       0.4
15 H  s               0.0       0.8       0.3       0.1       1.8       0.1
16 H  s               2.2       0.4       0.7       0.0       0.3       0.3
17 H  s               2.3       0.1       0.1       0.6       0.3       0.4

                    102       103       104       105       106       107   
                   2.36984   2.44825   2.50689   2.60259   2.79626   2.87602
                   0.00000   0.00000   0.00000   0.00000   0.00000   0.00000
                  --------  --------  --------  --------  --------  --------
 0 C  s               0.2       0.4       0.7       1.0       0.3       0.0
 0 C  pz              0.0       0.1       0.2       0.0       0.0       0.0
 0 C  px              0.3       0.6       1.4       1.7       0.4       0.0
 0 C  py              0.0       0.1       0.2       0.0       0.0       0.0
 0 C  dz2             2.2       0.4       1.3       2.1       0.3       0.0
 0 C  dxz             1.3       1.7       6.3       0.8       0.3       0.3
 0 C  dyz             0.0       0.5       0.8       0.0       0.0       0.0
 0 C  dx2y2           4.8       4.2       2.5       6.1       0.7       0.0
 0 C  dxy             0.3       0.9       6.0       0.9       0.2       0.2
 1 C  s               0.0       1.5       1.5       0.0       0.0       0.0
 1 C  pz              0.1       0.9       0.2       0.2       0.1       0.0
 1 C  px              0.8       0.1       0.5       3.6       0.8       0.0
 1 C  py              0.0       0.5       0.2       0.1       0.0       0.0
 1 C  dz2             0.2       1.5       5.6       0.5       1.2       0.9
 1 C  dxz             7.4       1.3       0.0      14.2       3.0       0.1
 1 C  dyz             1.0       5.3       0.0       1.1       0.3       0.4
 1 C  dx2y2           2.6       8.9      20.9       1.2       0.6       0.7
 1 C  dxy             3.1       0.0       0.0      10.4       1.4       0.0
 2 C  s               0.4       0.9       0.3       0.4       0.0       0.9
 2 C  pz              0.7       0.8       0.0       0.3       0.0       0.1
 2 C  px              0.1       0.0       0.5       2.0       1.2       1.5
 2 C  py              0.2       0.3       0.1       0.4       0.1       0.0
 2 C  dz2             0.9       2.8       8.1       0.5       0.0       1.6
 2 C  dxz             0.6       2.9       1.0      14.7       4.5       1.1
 2 C  dyz             2.6       9.0       0.8       1.1       0.0       0.4
 2 C  dx2y2           1.7       5.6       3.3       0.2       0.0      10.5
 2 C  dxy             0.6       0.1       4.3       2.4       8.1       0.2
 3 C  s               1.6       2.5       2.6       4.1       1.6       0.1
 3 C  pz              0.0       0.0       0.1       0.0       0.5       0.0
 3 C  px              1.3       0.0       0.2       0.1       1.0       0.8
 3 C  py              0.1       0.3       0.3       1.1       3.4       0.4
 3 C  dz2            19.5       1.0       4.6      10.3       0.1       0.1
 3 C  dxz             0.5       4.5       4.4       0.0       0.2       6.6
 3 C  dyz             6.1      11.8       0.2       0.3       6.9       0.2
 3 C  dx2y2           1.3       1.9       0.1       1.7      23.2      14.5
 3 C  dxy             0.2       4.8       6.1       1.1       8.6      26.0
 4 C  s               0.3       0.1       0.1       1.5       3.6       0.1
 4 C  pz              0.6       0.2       0.0       0.4       0.5       0.0
 4 C  px              0.2       0.0       0.0       0.2       0.8       0.3
 4 C  py              0.0       0.1       0.0       1.3       4.5       0.3
 4 C  dz2             0.0       5.3       1.4       0.4       1.4       0.2
 4 C  dxz             0.2       0.1       1.0       1.4       0.4       1.7
 4 C  dyz            15.0       2.9       0.0       4.9       2.1       0.1
 4 C  dx2y2           3.2       0.7       1.0       0.5       3.8      10.4
 4 C  dxy             5.5       0.2       0.4       2.3       7.1       7.0
 5 C  s               0.4       0.4       0.3       0.1       0.0       0.9
 5 C  px              0.2       0.2       0.2       0.1       0.0       0.9
 5 C  py              0.4       0.7       0.6       0.0       0.1       0.8
 5 C  dz2             2.1       1.3       1.4       0.9       0.0       1.0
 5 C  dxz             1.3       0.6       0.0       0.0       0.5       0.1
 5 C  dyz             0.5       0.1       0.8       0.0       0.2       0.1
 5 C  dx2y2           3.5       1.4       0.4       0.6       5.3       0.0
 5 C  dxy             1.7       4.4       4.7       0.2       0.0       6.2
 6 H  s               0.1       0.0       0.3       0.1       0.0       0.0
 7 H  s               0.2       0.1       0.1       0.0       0.0       0.0
 8 H  s               0.1       0.2       0.0       0.0       0.0       0.0
 9 H  s               0.0       0.6       0.3       0.0       0.0       0.0
10 H  s               0.1       0.5       0.5       0.0       0.0       0.0
11 H  s               0.0       1.2       0.2       0.0       0.0       0.0
12 H  s               0.0       0.2       0.1       0.1       0.0       0.2
13 H  s               0.2       0.0       0.3       0.1       0.0       0.9
14 H  s               1.0       0.1       0.0       0.0       0.1       0.9
15 H  s               0.1       0.0       0.0       0.1       0.0       0.0
16 H  s               0.0       0.1       0.2       0.0       0.0       0.0
17 H  s               0.2       0.0       0.0       0.1       0.2       0.1



                      *****************************
                      * MAYER POPULATION ANALYSIS *
                      *****************************

  NA   - Mulliken gross atomic population
  ZA   - Total nuclear charge
  QA   - Mulliken gross atomic charge
  VA   - Mayer's total valence
  BVA  - Mayer's bonded valence
  FA   - Mayer's free valence

  ATOM       NA         ZA         QA         VA         BVA        FA
  0 C      6.2609     6.0000    -0.2609     4.0116     4.0116     0.0000
  1 C      6.2079     6.0000    -0.2079     4.1823     4.1823     0.0000
  2 C      6.1254     6.0000    -0.1254     3.9845     3.9845     0.0000
  3 C      6.0789     6.0000    -0.0789     4.3433     4.3433    -0.0000
  4 C      6.2376     6.0000    -0.2376     3.9379     3.9379     0.0000
  5 C      6.2220     6.0000    -0.2220     3.9344     3.9344    -0.0000
  6 H      0.8970     1.0000     0.1030     0.9499     0.9499     0.0000
  7 H      0.9042     1.0000     0.0958     0.9571     0.9571     0.0000
  8 H      0.9031     1.0000     0.0969     0.9576     0.9576     0.0000
  9 H      0.9090     1.0000     0.0910     0.9475     0.9475    -0.0000
 10 H      0.9043     1.0000     0.0957     0.9449     0.9449     0.0000
 11 H      0.9024     1.0000     0.0976     0.9489     0.9489     0.0000
 12 H      0.9286     1.0000     0.0714     0.9655     0.9655    -0.0000
 13 H      0.9194     1.0000     0.0806     0.9505     0.9505    -0.0000
 14 H      0.9135     1.0000     0.0865     0.9488     0.9488    -0.0000
 15 H      0.8906     1.0000     0.1094     0.9505     0.9505     0.0000
 16 H      0.8908     1.0000     0.1092     0.9516     0.9516    -0.0000
 17 H      0.9045     1.0000     0.0955     0.9690     0.9690    -0.0000

  Mayer bond orders larger than 0.100000
B(  0-C ,  1-C ) :   1.1538 B(  0-C ,  6-H ) :   0.9528 B(  0-C ,  7-H ) :   0.9536 
B(  0-C ,  8-H ) :   0.9538 B(  1-C ,  2-C ) :   1.1343 B(  1-C ,  9-H ) :   0.9324 
B(  1-C , 10-H ) :   0.9183 B(  2-C ,  3-C ) :   1.0506 B(  2-C , 11-H ) :   0.8961 
B(  2-C , 12-H ) :   0.9178 B(  3-C ,  4-C ) :   2.0434 B(  3-C ,  5-C ) :   1.1261 
B(  4-C , 13-H ) :   0.9036 B(  4-C , 14-H ) :   0.9138 B(  5-C , 15-H ) :   0.9337 
B(  5-C , 16-H ) :   0.9283 B(  5-C , 17-H ) :   0.9420 

-------
TIMINGS
-------

Total SCF time: 0 days 0 hours 0 min 5 sec 

Total time                  ....       5.385 sec
Sum of individual times     ....       4.895 sec  ( 90.9%)

SCF preparation             ....       0.151 sec  (  2.8%)
Fock matrix formation       ....       4.169 sec  ( 77.4%)
  Startup                   ....       0.043 sec  (  1.0% of F)
  Split-RI-J                ....       1.262 sec  ( 30.3% of F)
  XC integration            ....       2.486 sec  ( 59.6% of F)
    XC Preparation          ....       0.000 sec  (  0.0% of XC)
    Basis function eval.    ....       0.846 sec  ( 34.0% of XC)
    Density eval.           ....       0.280 sec  ( 11.3% of XC)
    XC-Functional eval.     ....       0.240 sec  (  9.6% of XC)
    XC-Potential eval.      ....       0.477 sec  ( 19.2% of XC)
Diagonalization             ....       0.000 sec  (  0.0%)
Density matrix formation    ....       0.130 sec  (  2.4%)
Total Energy calculation    ....       0.024 sec  (  0.4%)
Population analysis         ....       0.056 sec  (  1.0%)
Orbital Transformation      ....       0.040 sec  (  0.7%)
Orbital Orthonormalization  ....       0.000 sec  (  0.0%)
DIIS solution               ....       0.268 sec  (  5.0%)
  MO trafo                  ....       0.000 sec  (  0.0 % of DIIS)
  Orb grad                  ....       0.000 sec  (  0.0 % of DIIS)
  Energy W gradient         ....       0.000 sec  (  0.0 % of DIIS)
  DIIS error                ....       0.002 sec  (  0.8 % of DIIS)
  DIIS work                 ....       0.232 sec  ( 86.6 % of DIIS)
  Form Q                    ....       0.000 sec  (  0.0 % of DIIS)
  Form QpQm                 ....       0.000 sec  (  0.0 % of DIIS)
  Exp/Cayley                ....       0.000 sec  (  0.0 % of DIIS)
  Orb update                ....       0.000 sec  (  0.0 % of DIIS)
  Wake-sleep                ....       0.012 sec  (  4.5 % of DIIS)
SOSCF solution              ....       0.055 sec  (  1.0%)
  MO trafo                  ....       0.031 sec  ( 55.7 % of SOSCF)
  Orb grad                  ....       0.001 sec  (  2.0 % of SOSCF)
  Rot update                ....       0.009 sec  ( 17.0 % of SOSCF)
  Step                      ....       0.014 sec  ( 25.2 % of SOSCF)
Finished LeanSCF after   5.4 sec

Maximum memory used throughout the entire LEANSCF-calculation: 10.6 MB


-------------------------------------------------------------------------------
                          DFT DISPERSION CORRECTION                            
                                                                               
                                DFTD4 V3.4.0                                   
-------------------------------------------------------------------------------
The PBE functional is recognized
Active option DFTDOPT                   ...         5   

-------------------------   ----------------
Dispersion correction           -0.013067555
-------------------------   ----------------

------------------   -----------------
gCP correction             0.071029843
------------------   -----------------

-------------------------   --------------------
FINAL SINGLE POINT ENERGY      -235.242614269894
-------------------------   --------------------


------------------------------------------------------------------------------
                              ORCA PROPERTY CALCULATIONS
------------------------------------------------------------------------------

GBWName                                 ... sp.gbw
Number of atoms                         ...     18
Number of basis functions               ...    108
Max core memory                         ...   1024 MB

Electric properties:
Dipole moment                           ... YES
Quadrupole moment                       ...  NO
Static polarizability (Dipole/Dipole)   ...  NO
Static polarizability (Dipole/Quad.)    ...  NO
Static polarizability (Quad./Quad.)     ...  NO
Static polarizability (Velocity)        ...  NO

Atomic electric properties:
Dipole moment                           ...  NO
Quadrupole moment                       ...  NO
Static polarizability                   ...  NO

Choice of electric origin               ... Center of mass
Position of electric origin             ...    -0.000006    -0.000003     0.000000

General magnetic properties:
Magnetizability                         ...  NO

EPR properties:
g-Tensor (aka g-matrix)                 ...  NO
Zero-Field splitting spin-orbit         ...  NO
Zero-field splitting spin-spin          ...  NO
Hyperfine couplings                     ...  NO (   0 nuclei)
Quadrupole couplings                    ...  NO (   0 nuclei)
Contact density                         ...  NO (   0 nuclei)

NMR properties:
Chemical shifts                         ...  NO (   0 nuclei)
Spin-rotation constants                 ...  NO (   0 nuclei)
Spin-spin couplings                     ...  NO (   0 nuclei,    0 pairs)

Choice of magnetic origin               ... GIAO
Position of magnetic origin             ...     0.000000     0.000000     0.000000

Properties with geometric perturbations:
SCF Hessian                             ...  NO
IR spectrum                             ...  NO
VCD spectrum                            ...  NO
X-ray spectroscopy properties:
SCF XES/XAS/RIXS spectra                ...  NO


-------------
DIPOLE MOMENT
-------------

Method             : SCF
Type of density    : Electron Density
Multiplicity       :   1
Irrep              :   0
Energy             :  -235.3005765580209356 Eh
Relativity type    : 
Basis              : AO
                                X                 Y                 Z
Electronic contribution:      2.337215492       0.902045187      -0.009152365
Nuclear contribution   :     -2.440600802      -1.058947172       0.077209180
                        -----------------------------------------
Total Dipole Moment    :     -0.103385310      -0.156901986       0.068056816
                        -----------------------------------------
Magnitude (a.u.)       :      0.199846155
Magnitude (Debye)      :      0.507968557



--------------------
Rotational spectrum 
--------------------
 
Rotational constants in cm-1:             0.243627             0.060694             0.051852 
Rotational constants in MHz :          7303.760879          1819.555420          1554.485853 

Dipole components along the rotational axes: 
x,y,z [a.u.] :    -0.088102    -0.178574     0.016964 
x,y,z [Debye]:    -0.223937    -0.453900     0.043118 

 

Dipole moment calculation done in   0.0 sec 

Maximum memory used throughout the entire PROP-calculation: 6.6 MB

--------------------------------
SUGGESTED CITATIONS FOR THIS RUN
--------------------------------

Below you find a list of papers that are relevant to this ORCA run
We neither can nor want to force you to cite these papers, but we appreciate if you do
You receive ORCA, which is the product of decades of hard work by many enthusiastic individuals, for free
The only thing we kindly ask in return is that you cite our papers,
We deeply appreciate it, if you show your appreciation for ORCA by not just citing the generic ORCA reference.

Please note that relegating all ORCA citations to the supporting information does *not* help us.
SI sections are not indexed - citations you put there will not count into any citation statistics
But we need these citations in order to attract the funding resources that allow us to do what we are doing

Therefore, if you are a happy ORCA user, please consider citing a few of the papers listed below in the main body of your paper

In addition to the list printed below, the program has created the file sp.bibtex that contains the list in bibtex format
You can import this file easily into all common literature databanks and citation aid programs


List of essential papers. We consider these as the minimum necessary citations

  1. Neese,F.
     Software update: the ORCA program system, version 5.0
     WIRES Comput. Molec. Sci., 2022 12(1)e1606
     doi.org/10.1002/wcms.1606

List of papers to cite with high priority. The work reported in these papers was absolutely
necessary for this run to complete.
Our perspective: the developers of density functionals and basis sets usually get cited in chemistry papers
Good! But without the algorithms to do something with them, the functionals or basis sets would not do anything.
Hence, in our opinion, the algorithm design and method developments papers are equally worthy of getting cited

  1. Neese,F.
     An improvement of the resolution of the identity approximation for the formation of the Coulomb matrix
     J. Comp. Chem., 2003 24(14)1740-1747
     doi.org/10.1002/jcc.10318
  2. Neese,F.
     The SHARK Integral Generation and Digestion System
     J. Comp. Chem., 2022  1-16
     doi.org/10.1002/jcc.26942
  3. Caldeweyher,E.; Bannwarth,C.; Grimme,S.
     Extension of the D3 dispersion coefficient model
     J. Chem. Phys., 2017 147 034112-XXXX
     doi.org/10.1063/1.4993215
  4. Caldeweyher,E.; Ehlert,S.; Hansen,A.; Neugebauer,H.; Spicher,S.; Bannwarth,C.; Grimme,S.
     A generally applicable atomic-charge dependent London dispersion correction
     J. Chem. Phys., 2019 150 154122-XXXX
     doi.org/10.1063/1.5090222
  5. Caldeweyher,E.; Mewes,J.; Ehlert,S.; Grimme,S.
     Extension and evaluation of the D4 London-dispersion model for periodic systems
     Phys. Chem. Chem. Phys., 2020 22(16)8499-8512
     doi.org/10.1039/D0CP00502A

List of suggested additional citations. These are papers that are important in the 'surrounding' of 
of this run, or papers that preceded the highly important papers. If you like your results we are grateful for a citation.

  1. Neese,F.
     The ORCA program system
     WIRES Comput. Molec. Sci., 2012 2(1)73-78
     doi.org/10.1002/wcms.81
  2. Neese,F.
     Software update: the ORCA program system, version 4.0
     WIRES Comput. Molec. Sci., 2018 8(1)1-6
     doi.org/10.1002/wcms.1327
  3. Neese,F.; Wennmohs,F.; Becker,U.; Riplinger,C.
     The ORCA quantum chemistry program package
     J. Chem. Phys., 2020 152 Art. No. L224108
     doi.org/10.1063/5.0004608

List of optional additional citations

  1. Neese,F.
     Approximate second-order SCF convergence for spin unrestricted wavefunctions
     Chem. Phys. Lett., 2000 325(1-3)93-98
     doi.org/10.1016/s0009-2614(00)00662-x

Timings for individual modules:

Sum of individual times          ...        6.927 sec (=   0.115 min)
Startup calculation              ...        0.658 sec (=   0.011 min)   9.5 %
SCF iterations                   ...        6.142 sec (=   0.102 min)  88.7 %
Property calculations            ...        0.126 sec (=   0.002 min)   1.8 %
                             ****ORCA TERMINATED NORMALLY****
TOTAL RUN TIME: 0 days 0 hours 0 minutes 7 seconds 664 msec
