      -----------------------------------------------------------      
     |                   =====================                   |     
     |                           x T B                           |     
     |                   =====================                   |     
     |                         S. Grimme                         |     
     |          Mulliken Center for Theoretical Chemistry        |     
     |                    University of Bonn                     |     
      -----------------------------------------------------------      

   * xtb version 6.7.1 (edcfbbe) compiled by 'albert@albert-system' on 2024-07-22

   xtb is free software: you can redistribute it and/or modify it under
   the terms of the GNU Lesser General Public License as published by
   the Free Software Foundation, either version 3 of the License, or
   (at your option) any later version.
   
   xtb is distributed in the hope that it will be useful,
   but WITHOUT ANY WARRANTY; without even the implied warranty of
   MERCHANTABILITY or FITNESS FOR A PARTICULAR PURPOSE.  See the
   GNU Lesser General Public License for more details.
   
   Cite this work as:
   * C. Bannwarth, E. Caldeweyher, S. Ehlert, A. Hansen, P. Pracht,
     J. Seibert, S. Spicher, S. Grimme, WIREs Comput. Mol. Sci., 2020, 11,
     e01493. DOI: 10.1002/wcms.1493
   
   for GFN2-xTB:
   * C. Bannwarth, S. Ehlert and S. Grimme., J. Chem. Theory Comput., 2019,
     15, 1652-1671. DOI: 10.1021/acs.jctc.8b01176
   for GFN1-xTB:
   * S. Grimme, C. Bannwarth, P. Shushkov, J. Chem. Theory Comput., 2017,
     13, 1989-2009. DOI: 10.1021/acs.jctc.7b00118
   for GFN0-xTB:
   * P. Pracht, E. Caldeweyher, S. Ehlert, S. Grimme, ChemRxiv, 2019, preprint.
     DOI: 10.26434/chemrxiv.8326202.v1
   for GFN-FF:
   * S. Spicher and S. Grimme, Angew. Chem. Int. Ed., 2020, 59, 15665-15673.
     DOI: 10.1002/anie.202004239
   
   for ALPB and GBSA implicit solvation:
   * S. Ehlert, M. Stahn, S. Spicher, S. Grimme, J. Chem. Theory Comput.,
     2021, 17, 4250-4261. DOI: 10.1021/acs.jctc.1c00471
   
   for ddCOSMO and CPCM-X implicit solvation:
   * M. Stahn, S. Ehlert, S. Grimme, J. Phys. Chem. A,
     2023, XX, XXXX-XXXX. DOI: 10.1021/acs.jpca.3c04382
   
   for DFT-D4:
   * E. Caldeweyher, C. Bannwarth and S. Grimme, J. Chem. Phys., 2017,
     147, 034112. DOI: 10.1063/1.4993215
   * E. Caldeweyher, S. Ehlert, A. Hansen, H. Neugebauer, S. Spicher,
     C. Bannwarth and S. Grimme, J. Chem. Phys., 2019, 150, 154122.
     DOI: 10.1063/1.5090222
   * E. Caldeweyher, J.-M. Mewes, S. Ehlert and S. Grimme, Phys. Chem. Chem. Phys.
     2020, 22, 8499-8512. DOI: 10.1039/D0CP00502A
   
   for sTDA-xTB:
   * S. Grimme and C. Bannwarth, J. Chem. Phys., 2016, 145, 054103.
     DOI: 10.1063/1.4959605
   
   in the mass-spec context:
   * V. Asgeirsson, C. Bauer and S. Grimme, Chem. Sci., 2017, 8, 4879.
     DOI: 10.1039/c7sc00601b
   * J. Koopman and S. Grimme, ACS Omega 2019, 4, 12, 15120-15133.
     DOI: 10.1021/acsomega.9b02011
   
   for metadynamics refer to:
   * S. Grimme, J. Chem. Theory Comput., 2019, 155, 2847-2862
     DOI: 10.1021/acs.jctc.9b00143
   
   for SPH calculations refer to:
   * S. Spicher and S. Grimme, J. Chem. Theory Comput., 2021, 17, 1701-1714
     DOI: 10.1021/acs.jctc.0c01306
   
   for ONIOM refer to:
   * C. Plett, A. Katbashev, S. Ehlert, S. Grimme, M. Bursch,
     Phys. Chem. Chem. Phys., 2023, 25, 17860-17868. DOI: 10.1039/D3CP02178E
   
   for DIPRO refer to:
   * J. Kohn, N. Gildemeister, S. Grimme, D. Fazzi, A. Hansen,
     J. Chem. Phys., 2023, just accepted.
   
   for PTB refer to:
   * S. Grimme, M. Mueller, A. Hansen, J. Chem. Phys., 2023, 158, 124111.
     DOI: 10.1063/5.0137838
   
   with help from (in alphabetical order)
   P. Atkinson, C. Bannwarth, F. Bohle, G. Brandenburg, E. Caldeweyher
   M. Checinski, S. Dohm, S. Ehlert, S. Ehrlich, I. Gerasimov, C. Hölzer
   A. Katbashev, J. Kohn, J. Koopman, C. Lavigne, S. Lehtola, F. März, M. Müller,
   F. Musil, H. Neugebauer, J. Pisarek, C. Plett, P. Pracht, F. Pultar,
   J. Seibert, P. Shushkov, S. Spicher, M. Stahn, M. Steiner, T. Strunk,
   J. Stückrath, T. Rose, and J. Unsleber
   
 * started run on 2025/04/11 at 10:35:17.420     
   ID    Z sym.   atoms
    1    6 C      1-6
    2    1 H      7-18

           -------------------------------------------------
          |                Calculation Setup                |
           -------------------------------------------------

          program call               : /srv/scratch/z5358697/.xtb/bin/xtb gas.coord --gfn2 --sp --chrg 0 --norestart --parallel 1
          hostname                   : k112
          coordinate file            : gas.coord
          omp threads                :                     1


           -------------------------------------------------
          |                 G F N 2 - x T B                 |
           -------------------------------------------------

        Reference                      10.1021/acs.jctc.8b01176
      * Hamiltonian:
        H0-scaling (s, p, d)           1.850000    2.230000    2.230000
        zeta-weighting                 0.500000
      * Dispersion:
        s8                             2.700000
        a1                             0.520000
        a2                             5.000000
        s9                             5.000000
      * Repulsion:
        kExp                           1.500000    1.000000
        rExp                           1.000000
      * Coulomb:
        alpha                          2.000000
        third order                    shell-resolved
        anisotropic                    true
        a3                             3.000000
        a5                             4.000000
        cn-shift                       1.200000
        cn-exp                         4.000000
        max-rad                        5.000000


          ...................................................
          :                      SETUP                      :
          :.................................................:
          :  # basis functions                  36          :
          :  # atomic orbitals                  36          :
          :  # shells                           24          :
          :  # electrons                        36          :
          :  max. iterations                   250          :
          :  Hamiltonian                  GFN2-xTB          :
          :  restarted?                      false          :
          :  GBSA solvation                  false          :
          :  PC potential                    false          :
          :  electronic temp.          300.0000000     K    :
          :  accuracy                    1.0000000          :
          :  -> integral cutoff          0.2500000E+02      :
          :  -> integral neglect         0.1000000E-07      :
          :  -> SCF convergence          0.1000000E-05 Eh   :
          :  -> wf. convergence          0.1000000E-03 e    :
          :  Broyden damping             0.4000000          :
          :  net charge                          0          :
          :  unpaired electrons                  0          :
          ...................................................

 iter      E             dE          RMSdq      gap      omega  full diag
   1    -19.2121696 -0.192122E+02  0.306E+00    5.43       0.0  T
   2    -19.2503894 -0.382197E-01  0.183E+00    5.29       1.0  T
   3    -19.2476337  0.275569E-02  0.109E+00    5.37       1.0  T
   4    -19.2554684 -0.783472E-02  0.470E-01    5.26       1.0  T
   5    -19.2568995 -0.143109E-02  0.648E-02    5.27       1.0  T
   6    -19.2569016 -0.210482E-05  0.337E-02    5.27       1.0  T
   7    -19.2569033 -0.171647E-05  0.535E-03    5.27       4.4  T
   8    -19.2569034 -0.985924E-07  0.127E-03    5.27      18.6  T
   9    -19.2569034 -0.171117E-08  0.320E-04    5.27      73.6  T
  10    -19.2569034 -0.257003E-09  0.135E-04    5.27     174.3  T

   *** convergence criteria satisfied after 10 iterations ***

         #    Occupation            Energy/Eh            Energy/eV
      -------------------------------------------------------------
         1        2.0000           -0.6242422             -16.9865
       ...           ...                  ...                  ...
        12        2.0000           -0.4593078             -12.4984
        13        2.0000           -0.4460823             -12.1385
        14        2.0000           -0.4409848             -11.9998
        15        2.0000           -0.4380409             -11.9197
        16        2.0000           -0.4215942             -11.4722
        17        2.0000           -0.4163064             -11.3283
        18        2.0000           -0.3819071             -10.3922 (HOMO)
        19                         -0.1881435              -5.1196 (LUMO)
        20                          0.0819254               2.2293
        21                          0.1039319               2.8281
        22                          0.1269841               3.4554
        23                          0.1380033               3.7553
       ...                                ...                  ...
        36                          0.6443057              17.5325
      -------------------------------------------------------------
                  HL-Gap            0.1937636 Eh            5.2726 eV
             Fermi-level           -0.2850253 Eh           -7.7559 eV

 SCC (total)                   0 d,  0 h,  0 min,  0.022 sec
 SCC setup                      ...        0 min,  0.000 sec (  1.097%)
 Dispersion                     ...        0 min,  0.000 sec (  0.513%)
 classical contributions        ...        0 min,  0.000 sec (  0.133%)
 integral evaluation            ...        0 min,  0.001 sec (  5.590%)
 iterations                     ...        0 min,  0.016 sec ( 75.228%)
 molecular gradient             ...        0 min,  0.004 sec ( 16.592%)
 printout                       ...        0 min,  0.000 sec (  0.772%)

         :::::::::::::::::::::::::::::::::::::::::::::::::::::
         ::                     SUMMARY                     ::
         :::::::::::::::::::::::::::::::::::::::::::::::::::::
         :: total energy             -18.939702877094 Eh    ::
         :: gradient norm              0.001850899616 Eh/a0 ::
         :: HOMO-LUMO gap              5.272576946025 eV    ::
         ::.................................................::
         :: SCC energy               -19.256861290991 Eh    ::
         :: -> isotropic ES            0.004329235039 Eh    ::
         :: -> anisotropic ES          0.005912380681 Eh    ::
         :: -> anisotropic XC          0.013200063870 Eh    ::
         :: -> dispersion             -0.010700873161 Eh    ::
         :: repulsion energy           0.317158413897 Eh    ::
         :: add. restraining           0.000000000000 Eh    ::
         :: total charge              -0.000000000000 e     ::
         :::::::::::::::::::::::::::::::::::::::::::::::::::::

           -------------------------------------------------
          |                Property Printout                |
           -------------------------------------------------

    * Orbital Energies and Occupations

         #    Occupation            Energy/Eh            Energy/eV
      -------------------------------------------------------------
         1        2.0000           -0.6242422             -16.9865
       ...           ...                  ...                  ...
         6        2.0000           -0.5245965             -14.2750
         7        2.0000           -0.5100788             -13.8800
         8        2.0000           -0.5046887             -13.7333
         9        2.0000           -0.4895028             -13.3200
        10        2.0000           -0.4802884             -13.0693
        11        2.0000           -0.4759982             -12.9526
        12        2.0000           -0.4593078             -12.4984
        13        2.0000           -0.4460823             -12.1385
        14        2.0000           -0.4409848             -11.9998
        15        2.0000           -0.4380409             -11.9197
        16        2.0000           -0.4215942             -11.4722
        17        2.0000           -0.4163064             -11.3283
        18        2.0000           -0.3819071             -10.3922 (HOMO)
        19                         -0.1881435              -5.1196 (LUMO)
        20                          0.0819254               2.2293
        21                          0.1039319               2.8281
        22                          0.1269841               3.4554
        23                          0.1380033               3.7553
        24                          0.1416463               3.8544
        25                          0.1652755               4.4974
        26                          0.1876787               5.1070
        27                          0.1926690               5.2428
        28                          0.2140221               5.8238
        29                          0.2172278               5.9111
       ...                                ...                  ...
        36                          0.6443057              17.5325
      -------------------------------------------------------------
                  HL-Gap            0.1937636 Eh            5.2726 eV
             Fermi-level           -0.2850253 Eh           -7.7559 eV

     #   Z          covCN         q      C6AA      α(0)
     1   6 C        3.752    -0.102    22.510     6.766
     2   6 C        3.800    -0.050    21.477     6.598
     3   6 C        3.808    -0.064    21.724     6.635
     4   6 C        2.935     0.019    27.592     8.615
     5   6 C        2.843    -0.109    30.750     9.088
     6   6 C        3.760    -0.109    22.634     6.782
     7   1 H        0.925     0.032     2.564     2.504
     8   1 H        0.925     0.031     2.577     2.510
     9   1 H        0.925     0.038     2.474     2.460
    10   1 H        0.924     0.027     2.627     2.535
    11   1 H        0.924     0.033     2.549     2.497
    12   1 H        0.924     0.038     2.478     2.462
    13   1 H        0.924     0.037     2.487     2.466
    14   1 H        0.926     0.026     2.637     2.539
    15   1 H        0.926     0.031     2.567     2.506
    16   1 H        0.925     0.043     2.412     2.428
    17   1 H        0.925     0.041     2.440     2.443
    18   1 H        0.925     0.040     2.454     2.450

 Mol. C6AA /au·bohr⁶  :       2359.737870
 Mol. C8AA /au·bohr⁸  :      50654.938199
 Mol. α(0) /au        :         74.284197


Wiberg/Mayer (AO) data.
largest (>0.10) Wiberg bond orders for each atom

 ---------------------------------------------------------------------------
     #   Z sym  total        # sym  WBO       # sym  WBO       # sym  WBO
 ---------------------------------------------------------------------------
     1   6 C    3.997 --     2 C    1.020     7 H    0.988     8 H    0.988
                             9 H    0.986
     2   6 C    3.998 --     1 C    1.020     3 C    1.003    10 H    0.978
                            11 H    0.976
     3   6 C    3.997 --     4 C    1.008     2 C    1.003    12 H    0.973
                            13 H    0.959
     4   6 C    3.987 --     5 C    1.932     6 C    1.024     3 C    1.008
     5   6 C    3.988 --     4 C    1.932    14 H    0.976    15 H    0.973
     6   6 C    3.997 --     4 C    1.024    18 H    0.985    17 H    0.974
                            16 H    0.971
     7   1 H    0.999 --     1 C    0.988
     8   1 H    0.999 --     1 C    0.988
     9   1 H    0.999 --     1 C    0.986
    10   1 H    0.999 --     2 C    0.978
    11   1 H    0.999 --     2 C    0.976
    12   1 H    0.999 --     3 C    0.973
    13   1 H    0.999 --     3 C    0.959
    14   1 H    0.999 --     5 C    0.976
    15   1 H    0.999 --     5 C    0.973
    16   1 H    0.998 --     6 C    0.971
    17   1 H    0.998 --     6 C    0.974
    18   1 H    0.998 --     6 C    0.985
 ---------------------------------------------------------------------------

Topologies differ in total number of bonds
Writing topology from bond orders to xtbtopo.mol

molecular dipole:
                 x           y           z       tot (Debye)
 q only:       -0.042      -0.196      -0.022
   full:       -0.036      -0.237      -0.035       0.616
molecular quadrupole (traceless):
                xx          xy          yy          xz          yz          zz
 q only:       -0.047      -0.815       0.097       0.376      -0.078      -0.050
  q+dip:       -0.474      -0.215       1.475       1.292      -0.111      -1.001
   full:       -0.226      -0.592       0.631       0.763      -0.106      -0.405


           -------------------------------------------------
          | TOTAL ENERGY              -18.939702877094 Eh   |
          | GRADIENT NORM               0.001850899616 Eh/α |
          | HOMO-LUMO GAP               5.272576946025 eV   |
           -------------------------------------------------

------------------------------------------------------------------------
 * finished run on 2025/04/11 at 10:35:17.540     
------------------------------------------------------------------------
 total:
 * wall-time:     0 d,  0 h,  0 min,  0.120 sec
 *  cpu-time:     0 d,  0 h,  0 min,  0.020 sec
 * ratio c/w:     0.170 speedup
 SCF:
 * wall-time:     0 d,  0 h,  0 min,  0.022 sec
 *  cpu-time:     0 d,  0 h,  0 min,  0.011 sec
 * ratio c/w:     0.486 speedup

