 Entering Gaussian System
 *********************************************
 Gaussian 98:
 frequency output generated by the xtb code
 *********************************************
                         Standard orientation:
 --------------------------------------------------------------------
  Center     Atomic     Atomic              Coordinates (Angstroms)
  Number     Number      Type              X           Y           Z
 --------------------------------------------------------------------
    1          6             0       -3.287709    0.745175    0.433377
    2          6             0       -2.251912    1.519213   -0.063717
    3          6             0       -1.084605    0.918455   -0.498977
    4          6             0       -0.939175   -0.462170   -0.436818
    5          6             0       -1.978449   -1.231564    0.066487
    6          6             0       -3.149637   -0.630713    0.496028
    7          6             0        0.344182   -1.106658   -0.906932
    8          7             0        1.493410   -0.483154   -0.299459
    9          6             0        1.835711   -0.546558    1.020349
   10          6             0        2.943715    0.237341    1.161607
   11          7             0        3.284128    0.783384   -0.038082
   12          6             0        2.392235    0.335073   -0.884434
   13          1             0       -4.198711    1.214371    0.772100
   14          1             0       -2.353346    2.592738   -0.113567
   15          1             0       -0.276237    1.524460   -0.883167
   16          1             0       -1.873969   -2.305208    0.120806
   17          1             0       -3.952996   -1.238055    0.884342
   18          1             0        0.340042   -2.171325   -0.657370
   19          1             0        0.440681   -1.000105   -1.991192
   20          1             0        1.278166   -1.125783    1.726088
   21          1             0        3.519092    0.444329    2.041489
   22          1             0        2.375773    0.574553   -1.928999
 --------------------------------------------------------------------
     1 basis functions        1 primitive gaussians
     1 alpha electrons        1 beta electrons
 
 Harmonic frequencies (cm**-1), IR intensities (km*mol⁻¹),
 Raman scattering activities (A**4/amu), Raman depolarization ratios,
 reduced masses (AMU), force constants (mDyne/A) and normal coordinates:
                      1                      2                      3
                        a                      a                      a 
 Frequencies --    17.6212                32.7299                64.1889
 Red. masses --     9.9611                10.2200                11.2188
 Frc consts  --     0.0000                 0.0000                 0.0000
 IR Inten    --     0.8907                 2.4929                 2.5146
 Raman Activ --     0.0000                 0.0000                 0.0000
 Depolar     --     0.0000                 0.0000                 0.0000
 Atom AN      X      Y      Z        X      Y      Z        X      Y      Z
   1   6    -0.06   0.00  -0.09    -0.01   0.09  -0.16     0.29   0.11   0.17
   2   6     0.11   0.00   0.28     0.06   0.03  -0.11     0.34   0.01   0.12
   3   6     0.14  -0.02   0.38     0.07  -0.04   0.01     0.22  -0.11  -0.03
   4   6    -0.01  -0.05   0.12     0.00  -0.05   0.08     0.06  -0.13  -0.12
   5   6    -0.19  -0.05  -0.25    -0.07   0.02   0.04     0.00  -0.04  -0.09
   6   6    -0.21  -0.02  -0.36    -0.08   0.09  -0.08     0.12   0.09   0.05
   7   6    -0.00  -0.10   0.20    -0.00  -0.14   0.18     0.02  -0.20  -0.12
   8   7     0.02  -0.02   0.07     0.02  -0.09   0.08    -0.03  -0.17  -0.09
   9   6     0.06   0.20   0.06     0.35  -0.35  -0.03    -0.19  -0.01  -0.03
  10   6     0.08   0.20  -0.10     0.20  -0.13  -0.08    -0.36   0.22   0.06
  11   7     0.06  -0.01  -0.22    -0.24   0.30  -0.02    -0.34   0.23   0.08
  12   6     0.02  -0.13  -0.10    -0.32   0.29   0.08    -0.12  -0.01  -0.01
  13   1    -0.02   0.01  -0.05    -0.01   0.04  -0.07     0.11   0.06   0.09
  14   1     0.07   0.01   0.14     0.03   0.01  -0.05     0.14   0.01   0.06
  15   1     0.08  -0.00   0.19     0.04  -0.03   0.01     0.08  -0.05  -0.02
  16   1    -0.09  -0.02  -0.13    -0.03   0.01   0.03    -0.04  -0.01  -0.05
  17   1    -0.10  -0.01  -0.19    -0.04   0.04  -0.04     0.02   0.05   0.02
  18   1     0.00  -0.02   0.10    -0.00  -0.03   0.09    -0.00  -0.06  -0.02
  19   1    -0.01  -0.08   0.05    -0.01  -0.08   0.05     0.01  -0.07  -0.03
  20   1     0.02   0.10   0.05     0.19  -0.20  -0.01    -0.05  -0.02  -0.02
  21   1     0.03   0.10  -0.05     0.10  -0.07  -0.05    -0.15   0.11   0.04
  22   1    -0.00  -0.09  -0.04    -0.18   0.16   0.04    -0.01  -0.02  -0.01
                      4                      5                      6
                        a                      a                      a 
 Frequencies --   185.8116               241.9652               308.8199
 Red. masses --    10.3907                10.9944                11.0418
 Frc consts  --     0.0000                 0.0000                 0.0000
 IR Inten    --     1.3167                 0.9548                 0.7728
 Raman Activ --     0.0000                 0.0000                 0.0000
 Depolar     --     0.0000                 0.0000                 0.0000
 Atom AN      X      Y      Z        X      Y      Z        X      Y      Z
   1   6    -0.16  -0.03  -0.33    -0.06  -0.07   0.16    -0.11   0.13   0.21
   2   6    -0.05   0.03  -0.01    -0.22   0.07   0.04    -0.11  -0.02  -0.03
   3   6     0.12   0.09   0.34    -0.15   0.26  -0.12    -0.18  -0.14  -0.08
   4   6     0.14   0.09   0.29     0.05   0.28  -0.13    -0.08  -0.13   0.09
   5   6     0.17   0.07   0.33     0.11   0.15  -0.20    -0.28  -0.00  -0.05
   6   6     0.02  -0.00  -0.01     0.08  -0.06  -0.03    -0.23   0.11   0.02
   7   6    -0.03   0.05  -0.12     0.00  -0.01   0.05     0.05  -0.08   0.09
   8   7     0.15  -0.22  -0.23     0.19  -0.43   0.13     0.32  -0.07  -0.28
   9   6    -0.06  -0.13  -0.16     0.20  -0.15   0.13     0.14  -0.10  -0.21
  10   6    -0.22   0.05   0.01    -0.02   0.19   0.01    -0.05   0.09   0.10
  11   7    -0.11   0.08   0.05    -0.15   0.09  -0.07     0.15   0.17   0.19
  12   6     0.10  -0.08  -0.09    -0.01  -0.29   0.01     0.39   0.05  -0.05
  13   1    -0.10  -0.03  -0.22    -0.02  -0.05   0.10     0.00   0.06   0.11
  14   1    -0.04   0.00  -0.03    -0.11   0.02   0.03    -0.00  -0.01  -0.04
  15   1     0.05   0.04   0.14    -0.08   0.12  -0.04    -0.06  -0.05  -0.05
  16   1     0.08   0.02   0.14     0.07   0.05  -0.09    -0.13  -0.01  -0.03
  17   1    -0.00  -0.01  -0.03     0.06  -0.06  -0.01    -0.08   0.04  -0.01
  18   1    -0.03  -0.00  -0.11    -0.11  -0.00   0.01     0.04  -0.01   0.09
  19   1    -0.08   0.09  -0.03     0.05  -0.01   0.02    -0.05  -0.10   0.01
  20   1    -0.03  -0.06  -0.07     0.11  -0.05   0.07     0.02  -0.06  -0.10
  21   1    -0.11   0.05   0.03    -0.02   0.14  -0.00    -0.08   0.04   0.07
  22   1     0.07  -0.03  -0.03    -0.02  -0.13  -0.01     0.18   0.03  -0.01
                      7                      8                      9
                        a                      a                      a 
 Frequencies --   343.4623               369.8361               447.5536
 Red. masses --     7.2630                 8.8433                 9.5997
 Frc consts  --     0.0000                 0.0000                 0.0000
 IR Inten    --     0.5496                 0.0747                 2.4889
 Raman Activ --     0.0000                 0.0000                 0.0000
 Depolar     --     0.0000                 0.0000                 0.0000
 Atom AN      X      Y      Z        X      Y      Z        X      Y      Z
   1   6     0.01  -0.10   0.01     0.00   0.00   0.00     0.30  -0.05   0.27
   2   6    -0.06   0.02   0.03    -0.16  -0.04  -0.39    -0.01   0.02  -0.27
   3   6     0.04   0.20  -0.00     0.16   0.03   0.39     0.05   0.05  -0.09
   4   6     0.10   0.20  -0.04     0.00  -0.00   0.01     0.14   0.10   0.57
   5   6     0.17   0.11  -0.05    -0.16  -0.04  -0.39     0.02  -0.10  -0.05
   6   6     0.12  -0.09  -0.03     0.16   0.04   0.38    -0.03  -0.11  -0.25
   7   6    -0.02  -0.28   0.34     0.01  -0.00  -0.00    -0.09   0.16   0.14
   8   7    -0.05   0.15  -0.18    -0.01   0.01   0.00    -0.02   0.00  -0.02
   9   6    -0.18   0.01  -0.17    -0.01   0.01   0.00    -0.09  -0.01  -0.03
  10   6    -0.12  -0.15  -0.01     0.00  -0.00  -0.00    -0.06  -0.05  -0.03
  11   7     0.00  -0.07   0.06     0.00  -0.00  -0.00    -0.06  -0.04  -0.03
  12   6     0.01   0.13  -0.07    -0.00   0.01   0.00    -0.06   0.00  -0.04
  13   1    -0.00  -0.05   0.01     0.00   0.00   0.00     0.11  -0.01   0.15
  14   1    -0.06   0.00   0.03    -0.10  -0.02  -0.25    -0.08  -0.01  -0.20
  15   1    -0.00   0.09   0.02     0.10   0.02   0.25    -0.02  -0.02  -0.15
  16   1     0.09   0.04  -0.02    -0.10  -0.02  -0.25    -0.01  -0.03  -0.14
  17   1     0.06  -0.05  -0.01     0.10   0.02   0.24    -0.08  -0.02  -0.20
  18   1    -0.03  -0.00   0.44     0.00  -0.00  -0.00    -0.01   0.02  -0.06
  19   1    -0.03  -0.43   0.06     0.00   0.00  -0.00    -0.13   0.15   0.04
  20   1    -0.09  -0.01  -0.09    -0.00   0.00   0.00    -0.04  -0.00  -0.02
  21   1    -0.04  -0.09   0.01     0.00  -0.00  -0.00    -0.02  -0.02  -0.01
  22   1     0.03   0.07  -0.01    -0.00   0.00   0.00    -0.03   0.00  -0.01
                     10                     11                     12
                        a                      a                      a 
 Frequencies --   546.1538               588.8743               610.7347
 Red. masses --    10.6710                11.1459                11.3150
 Frc consts  --     0.0000                 0.0000                 0.0000
 IR Inten    --     0.7415                 0.0941                 2.1474
 Raman Activ --     0.0000                 0.0000                 0.0000
 Depolar     --     0.0000                 0.0000                 0.0000
 Atom AN      X      Y      Z        X      Y      Z        X      Y      Z
   1   6    -0.27   0.17   0.25     0.04   0.18  -0.04     0.09  -0.04  -0.13
   2   6    -0.19  -0.14  -0.02    -0.17   0.43   0.04     0.03   0.15   0.06
   3   6    -0.07  -0.13   0.11    -0.39  -0.14   0.17    -0.07   0.05  -0.06
   4   6     0.37  -0.11   0.04    -0.04  -0.16   0.02    -0.13   0.03   0.04
   5   6     0.13   0.23   0.01     0.17  -0.39  -0.04    -0.07  -0.15  -0.05
   6   6     0.00   0.20  -0.14     0.42   0.16  -0.18     0.05  -0.05   0.07
   7   6     0.31  -0.24  -0.18     0.05  -0.00   0.05    -0.14  -0.02   0.02
   8   7     0.07  -0.11   0.01    -0.03   0.06   0.02     0.31  -0.48  -0.15
   9   6    -0.18   0.17   0.08     0.02  -0.07  -0.01    -0.21   0.39   0.07
  10   6     0.05  -0.13  -0.05    -0.05   0.02  -0.00     0.24  -0.22  -0.03
  11   7    -0.03  -0.05  -0.04    -0.02  -0.02  -0.01    -0.00   0.13   0.06
  12   6    -0.16   0.12   0.03     0.01  -0.04  -0.03    -0.06   0.19   0.08
  13   1    -0.08   0.04   0.07    -0.05  -0.09   0.03     0.02  -0.03  -0.03
  14   1    -0.01  -0.04  -0.10     0.02   0.13  -0.01     0.00   0.04   0.06
  15   1    -0.09   0.04  -0.00    -0.08  -0.08   0.04     0.01  -0.02  -0.01
  16   1    -0.05   0.06  -0.01    -0.01  -0.11   0.02     0.00  -0.04  -0.01
  17   1     0.02  -0.02  -0.12     0.09   0.09  -0.04    -0.00   0.03   0.06
  18   1     0.10  -0.08  -0.09     0.03   0.01   0.05    -0.10  -0.01  -0.02
  19   1     0.10  -0.02  -0.04     0.02  -0.03   0.01    -0.07   0.01   0.00
  20   1    -0.08   0.09   0.03     0.01  -0.04  -0.01    -0.12   0.21   0.05
  21   1     0.04  -0.06  -0.03    -0.02   0.01  -0.00     0.09  -0.11  -0.01
  22   1    -0.09   0.06   0.01     0.00  -0.03  -0.01    -0.04   0.12   0.04
                     13                     14                     15
                        a                      a                      a 
 Frequencies --   642.0491               658.9883               718.6510
 Red. masses --    11.7598                10.3422                 6.4567
 Frc consts  --     0.0000                 0.0000                 0.0000
 IR Inten    --    12.1221                 1.4451                21.6291
 Raman Activ --     0.0000                 0.0000                 0.0000
 Depolar     --     0.0000                 0.0000                 0.0000
 Atom AN      X      Y      Z        X      Y      Z        X      Y      Z
   1   6    -0.00   0.01   0.04    -0.19   0.00  -0.27    -0.05   0.01  -0.06
   2   6    -0.02  -0.02  -0.03     0.13  -0.05   0.34    -0.02  -0.08  -0.12
   3   6     0.02  -0.01   0.04    -0.11  -0.07  -0.30    -0.01  -0.06  -0.07
   4   6     0.00  -0.01  -0.03     0.22   0.01   0.36     0.00  -0.02  -0.03
   5   6     0.02   0.02   0.03    -0.09   0.04  -0.32    -0.04  -0.00  -0.06
   6   6    -0.01   0.01  -0.04     0.16   0.07   0.32    -0.07   0.01  -0.11
   7   6     0.02   0.02   0.00     0.13   0.07   0.13     0.26   0.31   0.30
   8   7    -0.12   0.18   0.05     0.02   0.08   0.04     0.23  -0.02   0.04
   9   6    -0.09   0.10   0.03    -0.05  -0.05   0.00    -0.14  -0.08   0.03
  10   6     0.23  -0.34  -0.09    -0.06  -0.05  -0.04    -0.14  -0.10  -0.08
  11   7    -0.38   0.49   0.11    -0.08  -0.01  -0.03    -0.11  -0.07  -0.07
  12   6     0.28  -0.39  -0.11    -0.01  -0.04  -0.07    -0.06   0.03  -0.14
  13   1     0.00   0.01   0.02    -0.09  -0.00  -0.18     0.13   0.05   0.30
  14   1    -0.00  -0.01  -0.01     0.04  -0.02   0.05     0.14   0.00   0.26
  15   1     0.00   0.00   0.02    -0.09  -0.01  -0.19     0.11   0.01   0.27
  16   1     0.01   0.01   0.02    -0.08   0.00  -0.19     0.10   0.03   0.28
  17   1    -0.00  -0.00  -0.01     0.04  -0.01   0.05     0.11   0.03   0.27
  18   1     0.02   0.01   0.01     0.07   0.01  -0.02     0.09   0.07   0.02
  19   1     0.02  -0.00   0.00    -0.02   0.09   0.04     0.05   0.14   0.08
  20   1    -0.03   0.02   0.00    -0.03  -0.03  -0.03    -0.12  -0.01  -0.05
  21   1     0.12  -0.17  -0.05    -0.01  -0.01  -0.02    -0.03  -0.00  -0.04
  22   1     0.13  -0.18  -0.05    -0.01  -0.03  -0.02    -0.06  -0.01  -0.04
                     16                     17                     18
                        a                      a                      a 
 Frequencies --   762.5348               768.1376               798.8636
 Red. masses --     3.3961                 7.4597                 2.8861
 Frc consts  --     0.0000                 0.0000                 0.0000
 IR Inten    --     5.2115                 6.5272                 6.2292
 Raman Activ --     0.0000                 0.0000                 0.0000
 Depolar     --     0.0000                 0.0000                 0.0000
 Atom AN      X      Y      Z        X      Y      Z        X      Y      Z
   1   6    -0.02  -0.00  -0.03     0.11  -0.01   0.11     0.00   0.00   0.01
   2   6    -0.01  -0.01  -0.02     0.04   0.06   0.05     0.00  -0.00   0.00
   3   6    -0.01  -0.00  -0.04     0.04   0.01   0.13    -0.00  -0.00  -0.00
   4   6     0.04   0.01   0.08    -0.15  -0.02  -0.28    -0.00  -0.00  -0.01
   5   6    -0.00   0.01  -0.04    -0.03  -0.05   0.17     0.00   0.00   0.00
   6   6     0.01   0.01  -0.03    -0.08  -0.04   0.12     0.00   0.00   0.00
   7   6    -0.06  -0.06  -0.03     0.29   0.28   0.16     0.00   0.01   0.01
   8   7    -0.04  -0.02  -0.02     0.26  -0.04   0.06    -0.03   0.05   0.01
   9   6    -0.22   0.35   0.06    -0.19   0.01   0.09     0.02  -0.03  -0.00
  10   6     0.06  -0.04   0.00    -0.10  -0.11  -0.08     0.00  -0.01  -0.00
  11   7     0.05  -0.03   0.00    -0.08  -0.06  -0.07    -0.02   0.03   0.00
  12   6     0.06  -0.07   0.01    -0.03   0.03  -0.13     0.24  -0.32  -0.08
  13   1     0.03   0.00   0.09    -0.10  -0.01  -0.30    -0.00  -0.00  -0.01
  14   1     0.03   0.00   0.07    -0.11  -0.01  -0.24    -0.00  -0.00  -0.01
  15   1     0.02   0.01   0.05    -0.06  -0.03  -0.16    -0.00   0.00   0.00
  16   1     0.03   0.01   0.06    -0.09  -0.03  -0.17    -0.00  -0.00  -0.01
  17   1     0.04   0.00   0.07    -0.15  -0.00  -0.22    -0.01  -0.00  -0.01
  18   1    -0.02  -0.02  -0.03     0.06   0.09   0.11    -0.00   0.00   0.00
  19   1    -0.04   0.01  -0.01     0.17  -0.01   0.04     0.00  -0.00   0.00
  20   1     0.52  -0.66  -0.15     0.04  -0.21  -0.08    -0.10   0.13   0.03
  21   1    -0.06   0.08   0.03    -0.04   0.04  -0.03    -0.11   0.14   0.03
  22   1    -0.06   0.11   0.03    -0.07  -0.01  -0.04    -0.51   0.69   0.17
                     19                     20                     21
                        a                      a                      a 
 Frequencies --   820.9143               831.0146               877.0002
 Red. masses --    10.3245                 3.2938                 3.3216
 Frc consts  --     0.0000                 0.0000                 0.0000
 IR Inten    --     0.8588                 2.0001                 0.0974
 Raman Activ --     0.0000                 0.0000                 0.0000
 Depolar     --     0.0000                 0.0000                 0.0000
 Atom AN      X      Y      Z        X      Y      Z        X      Y      Z
   1   6     0.21  -0.13  -0.13    -0.01   0.01   0.01     0.01   0.00   0.02
   2   6    -0.07   0.42  -0.02     0.01  -0.03   0.00     0.08   0.02   0.20
   3   6    -0.08   0.22  -0.02     0.00  -0.02   0.00     0.09   0.02   0.21
   4   6     0.07   0.01   0.13    -0.01  -0.00  -0.02    -0.00  -0.00  -0.01
   5   6    -0.18  -0.03   0.04     0.01  -0.00   0.00    -0.10  -0.02  -0.24
   6   6    -0.30  -0.21   0.13     0.02   0.01  -0.01    -0.08  -0.02  -0.19
   7   6     0.39  -0.32  -0.21    -0.02   0.03   0.02     0.00   0.00   0.01
   8   7    -0.01   0.10   0.05     0.04  -0.06  -0.01     0.00  -0.00  -0.00
   9   6    -0.02  -0.04   0.04    -0.02   0.02   0.00     0.00   0.00  -0.00
  10   6    -0.04   0.01  -0.02    -0.25   0.33   0.08    -0.00   0.00  -0.00
  11   7    -0.00  -0.01  -0.02     0.02  -0.02  -0.01    -0.00  -0.00   0.00
  12   6     0.00  -0.01  -0.02     0.07  -0.09  -0.03     0.00  -0.00   0.00
  13   1     0.09  -0.03   0.07    -0.01   0.00  -0.01    -0.02  -0.00  -0.04
  14   1    -0.11   0.11   0.10     0.01  -0.01  -0.01    -0.17  -0.03  -0.41
  15   1     0.00   0.05   0.01    -0.00  -0.00  -0.00    -0.16  -0.04  -0.39
  16   1    -0.00  -0.01   0.03    -0.00  -0.00  -0.00     0.19   0.04   0.46
  17   1    -0.12   0.03   0.11     0.00  -0.00  -0.01     0.15   0.03   0.36
  18   1     0.18  -0.09  -0.09    -0.02   0.01   0.01    -0.00  -0.00  -0.01
  19   1     0.14  -0.04  -0.05    -0.00   0.00   0.01     0.00  -0.00   0.00
  20   1    -0.02  -0.01   0.00     0.05  -0.08  -0.02     0.00   0.00   0.00
  21   1     0.04  -0.04  -0.03     0.51  -0.69  -0.17    -0.00  -0.00   0.00
  22   1    -0.03  -0.01  -0.00    -0.09   0.12   0.03    -0.00   0.01   0.00
                     22                     23                     24
                        a                      a                      a 
 Frequencies --   893.8113               901.4308               928.5186
 Red. masses --    11.4757                 3.6869                 4.0714
 Frc consts  --     0.0000                 0.0000                 0.0000
 IR Inten    --    26.2668                 0.1373                 0.0631
 Raman Activ --     0.0000                 0.0000                 0.0000
 Depolar     --     0.0000                 0.0000                 0.0000
 Atom AN      X      Y      Z        X      Y      Z        X      Y      Z
   1   6    -0.02   0.00  -0.02     0.12   0.02   0.29     0.05   0.01   0.11
   2   6     0.00  -0.02  -0.00    -0.01   0.02   0.01     0.07   0.02   0.18
   3   6     0.01  -0.01   0.01    -0.09   0.01  -0.22    -0.09  -0.01  -0.22
   4   6    -0.00   0.01   0.02     0.01  -0.01   0.03     0.00  -0.00   0.01
   5   6     0.01  -0.01   0.01    -0.09  -0.00  -0.23     0.09   0.03   0.22
   6   6     0.01   0.01  -0.01     0.04   0.01   0.08    -0.12  -0.03  -0.31
   7   6    -0.03   0.00  -0.01    -0.00  -0.09   0.05    -0.00  -0.04   0.03
   8   7    -0.05  -0.08   0.16    -0.03   0.00   0.01    -0.01   0.01   0.00
   9   6    -0.25  -0.21   0.07    -0.02  -0.01  -0.02    -0.00   0.00  -0.01
  10   6    -0.23  -0.06  -0.46    -0.02  -0.00  -0.04    -0.00  -0.00  -0.00
  11   7     0.46   0.37  -0.13     0.05   0.04  -0.01     0.01   0.00   0.00
  12   6     0.14   0.04   0.28     0.02   0.01   0.02     0.01   0.01  -0.00
  13   1     0.02   0.01   0.05    -0.19  -0.05  -0.46    -0.09  -0.02  -0.21
  14   1     0.01  -0.00   0.01    -0.04  -0.00  -0.07    -0.11  -0.02  -0.25
  15   1    -0.01  -0.01  -0.03     0.18   0.05   0.43     0.13   0.03   0.31
  16   1    -0.01  -0.01  -0.03     0.18   0.04   0.42    -0.15  -0.03  -0.37
  17   1     0.01   0.00   0.02    -0.09  -0.02  -0.21     0.22   0.04   0.52
  18   1    -0.03   0.01   0.03     0.03  -0.05  -0.08     0.02  -0.02  -0.04
  19   1     0.01  -0.03  -0.00    -0.03   0.08   0.02    -0.02   0.04   0.01
  20   1     0.05   0.00   0.17     0.01  -0.00   0.01    -0.00  -0.00  -0.01
  21   1    -0.19  -0.13  -0.01    -0.02  -0.02   0.01    -0.00  -0.00   0.00
  22   1    -0.11  -0.10   0.05     0.00  -0.01   0.00     0.01  -0.00  -0.00
                     25                     26                     27
                        a                      a                      a 
 Frequencies --   932.3978               948.8177               985.6028
 Red. masses --     3.1343                 6.2393                10.7975
 Frc consts  --     0.0000                 0.0000                 0.0000
 IR Inten    --     0.0480                 3.6507                 0.6788
 Raman Activ --     0.0000                 0.0000                 0.0000
 Depolar     --     0.0000                 0.0000                 0.0000
 Atom AN      X      Y      Z        X      Y      Z        X      Y      Z
   1   6     0.09   0.02   0.23     0.06   0.03   0.05     0.32  -0.16  -0.12
   2   6    -0.12  -0.01  -0.27     0.01  -0.05  -0.04     0.03   0.15  -0.02
   3   6     0.06   0.03   0.13    -0.08  -0.11  -0.04    -0.35  -0.40   0.19
   4   6     0.01  -0.00   0.03     0.13   0.05   0.22     0.14  -0.07  -0.08
   5   6    -0.01   0.01  -0.03    -0.06  -0.06  -0.04     0.04   0.55  -0.06
   6   6    -0.03  -0.01  -0.10    -0.08  -0.03  -0.01    -0.09  -0.12   0.05
   7   6    -0.00  -0.05   0.06     0.03   0.35  -0.45    -0.10   0.08   0.10
   8   7    -0.00   0.00   0.00     0.03  -0.02  -0.04    -0.03  -0.03  -0.01
   9   6    -0.00   0.00  -0.01     0.01  -0.02   0.11     0.01   0.02  -0.06
  10   6    -0.00  -0.00  -0.01     0.03   0.01   0.03     0.01   0.01  -0.00
  11   7     0.01   0.00   0.00    -0.04  -0.02  -0.00     0.01   0.01   0.01
  12   6     0.01   0.01  -0.01    -0.07  -0.07   0.07    -0.01  -0.01   0.03
  13   1    -0.19  -0.05  -0.46    -0.02   0.04  -0.12     0.09  -0.04  -0.03
  14   1     0.22   0.05   0.54     0.07  -0.00   0.05     0.10   0.04  -0.05
  15   1    -0.13  -0.02  -0.33     0.03  -0.04   0.09    -0.07  -0.15   0.04
  16   1    -0.02  -0.00  -0.06    -0.00  -0.01   0.08     0.06   0.16  -0.05
  17   1     0.11   0.02   0.26    -0.01   0.03   0.10     0.03  -0.11  -0.01
  18   1     0.02  -0.03  -0.05    -0.11   0.21   0.41    -0.07   0.02   0.00
  19   1    -0.02   0.06   0.02     0.08  -0.45  -0.16    -0.05   0.05   0.03
  20   1    -0.00  -0.00  -0.01     0.04   0.02   0.08     0.02   0.01   0.00
  21   1    -0.01  -0.00   0.00     0.05   0.04  -0.02    -0.03  -0.02   0.02
  22   1     0.00   0.01  -0.00    -0.06  -0.04   0.01     0.01  -0.00   0.01
                     28                     29                     30
                        a                      a                      a 
 Frequencies --  1013.6163              1072.1043              1084.2112
 Red. masses --     9.2953                 2.7946                 6.8042
 Frc consts  --     0.0000                 0.0000                 0.0000
 IR Inten    --    18.5846                14.5119                 0.2108
 Raman Activ --     0.0000                 0.0000                 0.0000
 Depolar     --     0.0000                 0.0000                 0.0000
 Atom AN      X      Y      Z        X      Y      Z        X      Y      Z
   1   6     0.02  -0.02  -0.01    -0.02   0.02   0.01    -0.38   0.19   0.14
   2   6    -0.00  -0.00  -0.00     0.00   0.02  -0.00     0.09   0.36  -0.07
   3   6    -0.02  -0.03   0.01     0.01   0.01  -0.01     0.14  -0.06  -0.05
   4   6    -0.02  -0.00   0.02     0.01  -0.01  -0.01     0.01  -0.01  -0.01
   5   6     0.01   0.07  -0.02     0.01  -0.03   0.00     0.14  -0.07  -0.05
   6   6     0.04   0.01  -0.02    -0.02  -0.02   0.01    -0.19  -0.30   0.10
   7   6    -0.22  -0.15  -0.12     0.09   0.05   0.05    -0.04   0.02   0.01
   8   7     0.16   0.12   0.07    -0.06  -0.03  -0.07    -0.00  -0.00  -0.01
   9   6    -0.11  -0.22   0.54     0.07   0.05  -0.01    -0.01  -0.01   0.01
  10   6    -0.10  -0.06  -0.04    -0.14  -0.08  -0.08     0.01   0.01  -0.00
  11   7    -0.04  -0.02  -0.03    -0.16  -0.14   0.07     0.01   0.00   0.00
  12   6     0.23   0.26  -0.33     0.04   0.07  -0.17     0.00  -0.01   0.02
  13   1     0.00  -0.02   0.00    -0.00   0.02  -0.00    -0.11   0.06   0.04
  14   1     0.00  -0.00   0.00     0.01   0.01  -0.00     0.30   0.13  -0.14
  15   1     0.00  -0.02   0.00     0.00   0.00  -0.00     0.19  -0.23  -0.06
  16   1     0.01   0.02   0.00     0.02  -0.01  -0.01     0.29  -0.01  -0.12
  17   1     0.02  -0.02  -0.01    -0.01  -0.00   0.00     0.11  -0.34  -0.02
  18   1    -0.07  -0.04  -0.05     0.02   0.01   0.01     0.02   0.01   0.01
  19   1    -0.13  -0.03  -0.04     0.02   0.02   0.01    -0.04  -0.01  -0.00
  20   1    -0.06  -0.08   0.12     0.52   0.26   0.58    -0.02  -0.01  -0.02
  21   1     0.22   0.22  -0.23    -0.19  -0.16   0.10     0.02   0.02  -0.02
  22   1     0.15   0.13  -0.08     0.24   0.18  -0.01    -0.00  -0.00   0.00
                     31                     32                     33
                        a                      a                      a 
 Frequencies --  1113.3428              1123.9164              1137.9830
 Red. masses --     5.3387                 4.2427                 2.5079
 Frc consts  --     0.0000                 0.0000                 0.0000
 IR Inten    --     3.2069                 0.0267                 0.4950
 Raman Activ --     0.0000                 0.0000                 0.0000
 Depolar     --     0.0000                 0.0000                 0.0000
 Atom AN      X      Y      Z        X      Y      Z        X      Y      Z
   1   6    -0.02  -0.02   0.01    -0.06  -0.17   0.04     0.03   0.02  -0.02
   2   6    -0.00   0.03  -0.00    -0.03   0.17  -0.00     0.01  -0.04   0.01
   3   6     0.03   0.00  -0.01     0.23   0.02  -0.09    -0.05   0.03   0.03
   4   6    -0.03  -0.02   0.01    -0.08  -0.14   0.02    -0.07  -0.03  -0.08
   5   6    -0.02   0.04   0.00    -0.14   0.22   0.04     0.05   0.00  -0.01
   6   6     0.03   0.01  -0.01     0.15   0.10  -0.07    -0.02   0.02   0.01
   7   6    -0.10  -0.06  -0.09     0.05   0.08  -0.02     0.06   0.01   0.01
   8   7     0.16   0.10   0.04     0.01  -0.01  -0.06     0.07   0.05  -0.20
   9   6     0.10   0.03   0.18    -0.02  -0.00  -0.03    -0.04  -0.02  -0.01
  10   6    -0.01  -0.09   0.33    -0.00   0.01  -0.05    -0.02  -0.02   0.02
  11   7     0.07   0.10  -0.18    -0.02  -0.03   0.05     0.00  -0.03   0.14
  12   6    -0.01   0.08  -0.32    -0.02  -0.05   0.09    -0.03  -0.06   0.13
  13   1    -0.03  -0.06   0.02    -0.17  -0.42   0.11     0.04   0.09  -0.03
  14   1    -0.02   0.01   0.01    -0.24   0.03   0.09     0.01  -0.01  -0.01
  15   1     0.04  -0.04  -0.01     0.26  -0.28  -0.08    -0.09   0.11   0.01
  16   1    -0.03   0.01   0.01    -0.36   0.04   0.14     0.16   0.01  -0.08
  17   1     0.04  -0.04  -0.01     0.18  -0.18  -0.06    -0.04   0.05   0.00
  18   1     0.02  -0.01  -0.01     0.13   0.04   0.06     0.45   0.01   0.04
  19   1    -0.14  -0.04  -0.03    -0.11  -0.03  -0.02    -0.53  -0.00  -0.05
  20   1    -0.00  -0.01   0.02     0.05   0.02   0.05     0.15   0.07   0.18
  21   1    -0.32  -0.33   0.38     0.07   0.07  -0.08     0.19   0.17  -0.16
  22   1    -0.39  -0.25  -0.15    -0.02  -0.01   0.03    -0.33  -0.24  -0.01
                     34                     35                     36
                        a                      a                      a 
 Frequencies --  1180.0529              1180.7066              1199.2052
 Red. masses --     1.5505                 3.2244                 2.0773
 Frc consts  --     0.0000                 0.0000                 0.0000
 IR Inten    --     0.1633                 1.9626                 1.3761
 Raman Activ --     0.0000                 0.0000                 0.0000
 Depolar     --     0.0000                 0.0000                 0.0000
 Atom AN      X      Y      Z        X      Y      Z        X      Y      Z
   1   6     0.03   0.07  -0.02     0.00   0.03  -0.00     0.02  -0.02  -0.01
   2   6    -0.03  -0.00   0.01    -0.01   0.03  -0.00     0.09   0.08  -0.04
   3   6    -0.06   0.03   0.02    -0.01   0.00   0.00    -0.02   0.12  -0.00
   4   6    -0.05  -0.07   0.01     0.07   0.01   0.02     0.12  -0.08  -0.07
   5   6     0.07  -0.02  -0.02    -0.01  -0.05   0.01    -0.08  -0.06   0.04
   6   6     0.02  -0.01  -0.01     0.00  -0.06   0.00    -0.01  -0.11   0.01
   7   6     0.02   0.01  -0.01    -0.06  -0.05   0.05    -0.02   0.05   0.02
   8   7    -0.00  -0.02  -0.00     0.01   0.05   0.00     0.01   0.00  -0.02
   9   6     0.02  -0.00   0.08    -0.05   0.01  -0.23     0.01  -0.01   0.06
  10   6     0.02   0.02  -0.01    -0.06  -0.05   0.04     0.01   0.01  -0.01
  11   7    -0.01   0.01  -0.09     0.03  -0.04   0.24    -0.00   0.01  -0.05
  12   6    -0.04  -0.04   0.04     0.12   0.12  -0.11    -0.03  -0.03   0.04
  13   1     0.25   0.59  -0.16     0.08   0.20  -0.05     0.00  -0.01  -0.00
  14   1    -0.43  -0.03   0.18    -0.06   0.00   0.03     0.36   0.05  -0.16
  15   1     0.08  -0.13  -0.02     0.01  -0.01   0.00    -0.28   0.45   0.07
  16   1    -0.09  -0.01   0.04    -0.20  -0.03   0.09    -0.48  -0.05   0.20
  17   1     0.24  -0.35  -0.07     0.11  -0.19  -0.03     0.19  -0.32  -0.05
  18   1     0.12   0.01   0.03    -0.35  -0.03  -0.08     0.03   0.02   0.03
  19   1    -0.12  -0.02  -0.02     0.32   0.05   0.05    -0.17   0.01  -0.01
  20   1    -0.06  -0.03  -0.05     0.16   0.09   0.14    -0.03  -0.02  -0.01
  21   1    -0.07  -0.06   0.06     0.19   0.18  -0.17    -0.03  -0.03   0.03
  22   1     0.15   0.10   0.04    -0.43  -0.29  -0.10     0.08   0.05   0.02
                     37                     38                     39
                        a                      a                      a 
 Frequencies --  1219.6270              1276.9747              1287.6904
 Red. masses --     8.0549                 4.1493                11.4857
 Frc consts  --     0.0000                 0.0000                 0.0000
 IR Inten    --     5.2742                 1.4266                15.4536
 Raman Activ --     0.0000                 0.0000                 0.0000
 Depolar     --     0.0000                 0.0000                 0.0000
 Atom AN      X      Y      Z        X      Y      Z        X      Y      Z
   1   6     0.08  -0.03  -0.03    -0.03  -0.10   0.02    -0.00  -0.00   0.00
   2   6     0.06  -0.21  -0.01    -0.10  -0.08   0.05    -0.01  -0.00   0.00
   3   6    -0.16   0.05   0.06    -0.10   0.07   0.04    -0.00   0.01   0.00
   4   6    -0.52   0.26   0.23    -0.02   0.30  -0.07     0.01   0.01  -0.01
   5   6    -0.16   0.12   0.05     0.08  -0.03  -0.02     0.01  -0.00  -0.00
   6   6     0.20   0.07  -0.09     0.06  -0.10  -0.01     0.00  -0.01  -0.00
   7   6     0.16  -0.14  -0.12     0.32  -0.09   0.02    -0.09  -0.06  -0.11
   8   7     0.03  -0.01   0.02    -0.04   0.05  -0.04     0.22   0.09   0.29
   9   6     0.00   0.01  -0.03    -0.00  -0.01   0.03     0.12   0.10  -0.03
  10   6    -0.01  -0.00  -0.02     0.01  -0.00   0.03     0.07   0.19  -0.55
  11   7    -0.01  -0.02   0.02     0.01   0.01  -0.04    -0.15  -0.23   0.50
  12   6     0.00   0.00  -0.01    -0.02  -0.02   0.04    -0.03   0.00  -0.11
  13   1     0.03  -0.01  -0.01     0.07   0.17  -0.05     0.01   0.01  -0.00
  14   1     0.30  -0.04  -0.12     0.28  -0.00  -0.12     0.01   0.00  -0.01
  15   1    -0.00  -0.07   0.01     0.23  -0.37  -0.07     0.01  -0.01  -0.00
  16   1     0.12   0.06  -0.05    -0.32  -0.03   0.13    -0.01  -0.00   0.00
  17   1     0.24  -0.25  -0.07    -0.14   0.20   0.04    -0.01   0.01   0.00
  18   1     0.21  -0.04  -0.02    -0.29  -0.03  -0.05    -0.02  -0.00   0.01
  19   1     0.23  -0.04  -0.01    -0.35   0.04  -0.03    -0.17  -0.03  -0.04
  20   1     0.01   0.01   0.00     0.00  -0.00   0.01    -0.07  -0.02  -0.14
  21   1    -0.00  -0.00  -0.00     0.01   0.00   0.01    -0.20  -0.16   0.04
  22   1    -0.01  -0.00  -0.00     0.01   0.01   0.01    -0.07  -0.04  -0.03
                     40                     41                     42
                        a                      a                      a 
 Frequencies --  1303.5284              1326.1888              1384.1395
 Red. masses --     5.6712                10.1094                11.8939
 Frc consts  --     0.0000                 0.0000                 0.0000
 IR Inten    --     0.9859                 0.8615                 0.1026
 Raman Activ --     0.0000                 0.0000                 0.0000
 Depolar     --     0.0000                 0.0000                 0.0000
 Atom AN      X      Y      Z        X      Y      Z        X      Y      Z
   1   6     0.12   0.28  -0.07    -0.11  -0.28   0.07    -0.01  -0.01   0.00
   2   6    -0.08  -0.02   0.04     0.37  -0.00  -0.15     0.04  -0.01  -0.02
   3   6     0.14  -0.23  -0.04    -0.20   0.26   0.06    -0.03   0.01   0.01
   4   6    -0.04   0.11  -0.03    -0.20  -0.32   0.10    -0.01  -0.00   0.00
   5   6    -0.28  -0.04   0.12     0.28  -0.00  -0.11     0.01  -0.01  -0.00
   6   6     0.07  -0.06  -0.02    -0.21   0.35   0.06    -0.02   0.03   0.01
   7   6     0.34  -0.02   0.00     0.22   0.02  -0.01    -0.12  -0.11   0.03
   8   7    -0.04   0.05  -0.01    -0.05  -0.00   0.03     0.36   0.37  -0.36
   9   6    -0.00  -0.00   0.01    -0.01  -0.00  -0.02     0.22   0.11   0.22
  10   6     0.01   0.01   0.00     0.02   0.01   0.01    -0.20  -0.12  -0.13
  11   7     0.00  -0.00  -0.01     0.01   0.00   0.01    -0.20  -0.11  -0.17
  12   6    -0.02  -0.01   0.02     0.01   0.01  -0.02    -0.03  -0.13   0.45
  13   1    -0.07  -0.16   0.04    -0.03  -0.07   0.02    -0.01  -0.02   0.00
  14   1    -0.18  -0.02   0.08    -0.05  -0.01   0.02    -0.01  -0.00   0.01
  15   1    -0.12   0.17   0.03    -0.04   0.05   0.01     0.00  -0.01   0.00
  16   1     0.25   0.01  -0.11     0.11   0.00  -0.05     0.02  -0.00  -0.01
  17   1     0.14  -0.19  -0.04     0.05  -0.07  -0.02     0.01  -0.01  -0.00
  18   1    -0.47  -0.01  -0.04    -0.34   0.00  -0.00    -0.17  -0.04  -0.09
  19   1    -0.32   0.00  -0.03    -0.14  -0.04  -0.02     0.16   0.04   0.03
  20   1    -0.01  -0.00  -0.00    -0.00  -0.00  -0.01     0.02   0.01  -0.00
  21   1     0.00  -0.00   0.00     0.01   0.00   0.00    -0.07  -0.04  -0.03
  22   1     0.01   0.00   0.01    -0.00  -0.00  -0.01    -0.04  -0.07   0.12
                     43                     44                     45
                        a                      a                      a 
 Frequencies --  1401.9936              1434.0681              1439.6469
 Red. masses --    12.1557                 3.3955                 7.7877
 Frc consts  --     0.0000                 0.0000                 0.0000
 IR Inten    --     0.3902                11.5135                 3.8497
 Raman Activ --     0.0000                 0.0000                 0.0000
 Depolar     --     0.0000                 0.0000                 0.0000
 Atom AN      X      Y      Z        X      Y      Z        X      Y      Z
   1   6     0.00   0.01  -0.00     0.03   0.13  -0.03    -0.14  -0.31   0.08
   2   6     0.01  -0.00  -0.00     0.12  -0.07  -0.04    -0.21   0.20   0.07
   3   6    -0.01  -0.01   0.00    -0.09  -0.03   0.05     0.24   0.01  -0.10
   4   6     0.00   0.02   0.00     0.02   0.15  -0.03    -0.15  -0.34   0.09
   5   6     0.01  -0.01  -0.00     0.09  -0.08  -0.03    -0.16   0.21   0.05
   6   6    -0.02   0.00   0.01    -0.12   0.01   0.05     0.29  -0.06  -0.11
   7   6     0.08   0.06   0.14    -0.02  -0.23  -0.16     0.06  -0.03  -0.08
   8   7    -0.22  -0.02  -0.55     0.06   0.03  -0.03     0.03   0.03  -0.05
   9   6    -0.05  -0.14   0.40    -0.05  -0.03  -0.00    -0.02  -0.02   0.02
  10   6     0.23   0.20  -0.14     0.02   0.01   0.02     0.01   0.01   0.00
  11   7     0.20   0.07   0.32     0.06   0.03   0.03     0.03   0.01   0.02
  12   6    -0.24  -0.13  -0.17    -0.09  -0.06  -0.04    -0.05  -0.04  -0.01
  13   1    -0.01  -0.02   0.00    -0.06  -0.12   0.04     0.12   0.30  -0.08
  14   1    -0.01  -0.00   0.01    -0.09  -0.03   0.04     0.15   0.08  -0.07
  15   1    -0.00  -0.01  -0.00     0.00  -0.05   0.00    -0.03   0.16  -0.00
  16   1    -0.01  -0.00   0.00    -0.05  -0.03   0.03     0.14   0.08  -0.06
  17   1     0.00  -0.01   0.00     0.01  -0.06   0.00    -0.04   0.18   0.00
  18   1    -0.02  -0.02  -0.09     0.00   0.12   0.58    -0.17   0.07   0.26
  19   1     0.18  -0.00   0.04     0.03   0.62   0.05     0.02   0.23   0.02
  20   1    -0.07  -0.07   0.06     0.01  -0.00   0.03     0.00  -0.00   0.01
  21   1    -0.05  -0.06   0.08     0.01   0.01   0.01     0.00  -0.00   0.00
  22   1    -0.05  -0.02  -0.05     0.02   0.02  -0.01     0.00   0.00  -0.00
                     46                     47                     48
                        a                      a                      a 
 Frequencies --  1471.9516              1476.0581              1514.9518
 Red. masses --    11.1096                 9.1801                11.5334
 Frc consts  --     0.0000                 0.0000                 0.0000
 IR Inten    --   194.2438                31.7423                45.6911
 Raman Activ --     0.0000                 0.0000                 0.0000
 Depolar     --     0.0000                 0.0000                 0.0000
 Atom AN      X      Y      Z        X      Y      Z        X      Y      Z
   1   6     0.08  -0.04  -0.03     0.22  -0.09  -0.08    -0.00  -0.00   0.00
   2   6    -0.10  -0.05   0.05    -0.31  -0.12   0.14     0.00   0.00  -0.00
   3   6    -0.02   0.11   0.00    -0.04   0.29  -0.01    -0.00   0.00   0.00
   4   6     0.11  -0.06  -0.05     0.33  -0.16  -0.12    -0.00   0.00   0.00
   5   6    -0.08  -0.06   0.04    -0.22  -0.16   0.10    -0.00   0.00   0.00
   6   6    -0.04   0.12   0.01    -0.12   0.32   0.02     0.00  -0.00  -0.00
   7   6    -0.14  -0.03  -0.00    -0.03   0.05   0.03    -0.02  -0.02   0.02
   8   7     0.40   0.26   0.13    -0.16  -0.10  -0.06     0.07   0.06  -0.05
   9   6    -0.28  -0.15  -0.21     0.09   0.05   0.08    -0.42  -0.29  -0.08
  10   6     0.10   0.04   0.13    -0.03  -0.01  -0.04     0.46   0.34  -0.00
  11   7     0.20   0.13   0.05    -0.06  -0.04  -0.01    -0.31  -0.18  -0.19
  12   6    -0.43  -0.29  -0.10     0.15   0.10   0.03     0.27   0.15   0.21
  13   1     0.02  -0.01  -0.01     0.06  -0.04  -0.02    -0.00   0.00   0.00
  14   1     0.08  -0.01  -0.03     0.22  -0.01  -0.09    -0.00   0.00   0.00
  15   1     0.07  -0.08  -0.02     0.17  -0.18  -0.05    -0.00  -0.00   0.00
  16   1     0.09  -0.01  -0.04     0.21  -0.03  -0.08     0.00   0.00  -0.00
  17   1     0.06  -0.07  -0.02     0.15  -0.18  -0.05    -0.00   0.00   0.00
  18   1    -0.07  -0.03  -0.12    -0.00   0.03   0.10    -0.02  -0.01   0.00
  19   1    -0.01  -0.09  -0.01    -0.02   0.09   0.01     0.03   0.02   0.01
  20   1     0.10   0.04   0.14    -0.03  -0.02  -0.05     0.01  -0.03   0.15
  21   1     0.06   0.04   0.01    -0.02  -0.01  -0.00    -0.05  -0.08   0.18
  22   1     0.15   0.11   0.01    -0.06  -0.04  -0.01    -0.07  -0.06   0.05
                     49                     50                     51
                        a                      a                      a 
 Frequencies --  1592.4577              1602.0820              2959.1868
 Red. masses --    11.5022                11.4862                 1.9887
 Frc consts  --     0.0000                 0.0000                 0.0000
 IR Inten    --     0.1258                 5.0091                19.4691
 Raman Activ --     0.0000                 0.0000                 0.0000
 Depolar     --     0.0000                 0.0000                 0.0000
 Atom AN      X      Y      Z        X      Y      Z        X      Y      Z
   1   6     0.19   0.49  -0.12     0.18  -0.07  -0.07    -0.00  -0.00   0.00
   2   6    -0.19  -0.21   0.10    -0.42   0.07   0.17     0.00   0.00  -0.00
   3   6    -0.04   0.33  -0.01     0.33  -0.30  -0.11    -0.00  -0.00   0.00
   4   6    -0.18  -0.45   0.12    -0.26   0.09   0.10     0.00   0.01  -0.01
   5   6     0.21   0.20  -0.11     0.44  -0.05  -0.18     0.00  -0.00   0.00
   6   6     0.01  -0.34   0.02    -0.31   0.28   0.10    -0.00   0.00   0.00
   7   6     0.02   0.03  -0.01     0.02  -0.02  -0.02     0.01   0.20  -0.22
   8   7     0.01   0.00  -0.01     0.02   0.01   0.00     0.00   0.01  -0.01
   9   6    -0.00  -0.00  -0.00    -0.00  -0.00  -0.00    -0.00  -0.00   0.00
  10   6     0.00   0.00  -0.00     0.00   0.00   0.00     0.00   0.00  -0.00
  11   7     0.00   0.00   0.00    -0.00  -0.00  -0.00     0.00  -0.00   0.00
  12   6    -0.01  -0.00   0.00    -0.00  -0.00   0.00    -0.00  -0.00   0.00
  13   1    -0.05  -0.11   0.03     0.04  -0.03  -0.02     0.00  -0.00  -0.00
  14   1     0.05  -0.05  -0.02     0.09   0.03  -0.04    -0.00  -0.00   0.00
  15   1     0.07  -0.04  -0.03    -0.04   0.11   0.01     0.01   0.00  -0.00
  16   1    -0.06   0.04   0.02    -0.10  -0.03   0.04    -0.00   0.00  -0.00
  17   1    -0.07   0.02   0.03     0.03  -0.09  -0.00    -0.00  -0.00   0.00
  18   1    -0.07   0.01   0.02    -0.00  -0.00  -0.01    -0.00  -0.67   0.14
  19   1     0.02  -0.01  -0.00     0.02  -0.01  -0.00    -0.06  -0.05   0.66
  20   1     0.00   0.00   0.00     0.00   0.00   0.00     0.00   0.00  -0.00
  21   1     0.00  -0.00   0.00    -0.00  -0.00   0.00    -0.00  -0.00   0.00
  22   1    -0.00  -0.00   0.00     0.00   0.00   0.00    -0.00  -0.00  -0.00
                     52                     53                     54
                        a                      a                      a 
 Frequencies --  2966.2953              3070.1423              3075.0114
 Red. masses --     1.4648                 1.7913                 1.7727
 Frc consts  --     0.0000                 0.0000                 0.0000
 IR Inten    --    31.5992                41.1996                32.1912
 Raman Activ --     0.0000                 0.0000                 0.0000
 Depolar     --     0.0000                 0.0000                 0.0000
 Atom AN      X      Y      Z        X      Y      Z        X      Y      Z
   1   6     0.00   0.00  -0.00    -0.01   0.00   0.00    -0.04   0.02   0.01
   2   6     0.00  -0.00  -0.00     0.01  -0.09   0.00     0.00  -0.04   0.00
   3   6    -0.00   0.00   0.00     0.18   0.14  -0.09     0.02   0.02  -0.01
   4   6     0.01  -0.01  -0.00     0.01   0.00  -0.00     0.01  -0.01  -0.00
   5   6    -0.00   0.00   0.00    -0.01   0.05  -0.00     0.02  -0.22   0.01
   6   6     0.00  -0.00  -0.00    -0.01  -0.01   0.01     0.09   0.07  -0.05
   7   6     0.02  -0.15  -0.14     0.00   0.00  -0.00     0.00  -0.00  -0.00
   8   7    -0.01  -0.01  -0.01    -0.00  -0.00  -0.00    -0.00  -0.00  -0.00
   9   6     0.00  -0.00   0.00     0.00   0.00  -0.00     0.00   0.00  -0.00
  10   6    -0.00   0.00  -0.00    -0.00  -0.00   0.00    -0.00  -0.00  -0.00
  11   7    -0.00  -0.00  -0.00     0.00   0.00  -0.00    -0.00   0.00  -0.00
  12   6     0.00   0.00  -0.00    -0.00   0.00  -0.00     0.00   0.00  -0.00
  13   1    -0.00   0.00   0.00     0.04  -0.02  -0.01     0.16  -0.08  -0.06
  14   1    -0.00   0.00  -0.00    -0.03   0.35  -0.02    -0.01   0.14  -0.01
  15   1     0.00   0.00  -0.00    -0.65  -0.49   0.31    -0.09  -0.07   0.05
  16   1     0.00  -0.01  -0.00     0.02  -0.18   0.01    -0.07   0.79  -0.04
  17   1    -0.00   0.00   0.00     0.04   0.03  -0.02    -0.36  -0.27   0.17
  18   1     0.01   0.66  -0.19     0.00  -0.00   0.00    -0.00   0.01  -0.00
  19   1    -0.06  -0.10   0.69    -0.00   0.00   0.01    -0.00  -0.00   0.00
  20   1     0.00  -0.00   0.00    -0.00  -0.00   0.00    -0.00  -0.00   0.00
  21   1     0.00   0.00   0.00     0.00   0.00  -0.00     0.00   0.00   0.00
  22   1     0.00  -0.00  -0.00     0.00  -0.00   0.01     0.00  -0.00   0.00
                     55                     56                     57
                        a                      a                      a 
 Frequencies --  3081.2343              3087.3479              3098.5260
 Red. masses --     1.8030                 1.8701                 1.9236
 Frc consts  --     0.0000                 0.0000                 0.0000
 IR Inten    --    32.6724               196.8927                78.8523
 Raman Activ --     0.0000                 0.0000                 0.0000
 Depolar     --     0.0000                 0.0000                 0.0000
 Atom AN      X      Y      Z        X      Y      Z        X      Y      Z
   1   6    -0.16   0.08   0.06    -0.03   0.01   0.01     0.16  -0.08  -0.06
   2   6     0.01  -0.12   0.01    -0.02   0.18  -0.01     0.01  -0.13   0.01
   3   6    -0.06  -0.05   0.03     0.05   0.04  -0.02    -0.04  -0.03   0.02
   4   6    -0.01   0.00   0.00    -0.00  -0.00   0.00    -0.00   0.00   0.00
   5   6    -0.01   0.10  -0.01    -0.01   0.10  -0.00    -0.01   0.07  -0.00
   6   6     0.05   0.04  -0.02     0.13   0.10  -0.06     0.11   0.09  -0.05
   7   6    -0.00  -0.00   0.00     0.00   0.00  -0.00    -0.00   0.00   0.00
   8   7     0.00   0.00   0.00     0.00  -0.00  -0.00     0.00   0.00   0.00
   9   6    -0.00  -0.00   0.00     0.00   0.00  -0.00    -0.00  -0.00  -0.00
  10   6     0.00   0.00   0.00    -0.00  -0.00   0.00     0.00   0.00   0.00
  11   7     0.00   0.00   0.00     0.00   0.00   0.00     0.00   0.00   0.00
  12   6    -0.00  -0.00   0.00    -0.00   0.00  -0.00    -0.00  -0.00   0.00
  13   1     0.59  -0.30  -0.22     0.10  -0.05  -0.04    -0.53   0.27   0.20
  14   1    -0.04   0.44  -0.02     0.06  -0.61   0.03    -0.04   0.44  -0.02
  15   1     0.20   0.15  -0.10    -0.16  -0.12   0.08     0.12   0.09  -0.06
  16   1     0.03  -0.34   0.02     0.03  -0.32   0.02     0.02  -0.21   0.01
  17   1    -0.17  -0.13   0.08    -0.46  -0.35   0.22    -0.38  -0.29   0.18
  18   1     0.00  -0.00  -0.00     0.00  -0.00   0.00     0.00  -0.00   0.00
  19   1     0.00  -0.00  -0.00    -0.00   0.00   0.00     0.00   0.00  -0.00
  20   1     0.00   0.00  -0.00    -0.00  -0.00   0.00     0.00   0.00  -0.00
  21   1    -0.00  -0.00  -0.00     0.00   0.00  -0.00    -0.00  -0.00  -0.00
  22   1    -0.00   0.00  -0.00     0.00  -0.00   0.00    -0.00   0.00  -0.00
                     58                     59                     60
                        a                      a                      a 
 Frequencies --  3163.2840              3166.5362              3188.9214
 Red. masses --     1.8343                 1.8577                 1.9406
 Frc consts  --     0.0000                 0.0000                 0.0000
 IR Inten    --    73.5605                23.1970                35.4371
 Raman Activ --     0.0000                 0.0000                 0.0000
 Depolar     --     0.0000                 0.0000                 0.0000
 Atom AN      X      Y      Z        X      Y      Z        X      Y      Z
   1   6    -0.00   0.00   0.00    -0.00  -0.00   0.00    -0.00   0.00  -0.00
   2   6    -0.00  -0.00   0.00    -0.00  -0.00   0.00    -0.00   0.00  -0.00
   3   6    -0.00  -0.00   0.00    -0.00  -0.00   0.00     0.00   0.00  -0.00
   4   6     0.00  -0.00   0.00    -0.00   0.00   0.00     0.00  -0.00   0.00
   5   6    -0.00   0.00  -0.00     0.00  -0.00   0.00     0.00   0.00  -0.00
   6   6     0.00   0.00  -0.00    -0.00  -0.00   0.00     0.00   0.00  -0.00
   7   6     0.00   0.00   0.00     0.00   0.00  -0.00     0.00  -0.00   0.00
   8   7    -0.00  -0.00   0.00    -0.01  -0.00  -0.01    -0.01  -0.00  -0.00
   9   6    -0.03  -0.03   0.05     0.02   0.02  -0.02    -0.15  -0.15   0.18
  10   6    -0.14  -0.05  -0.20     0.04   0.01   0.07     0.06   0.02   0.07
  11   7    -0.00  -0.00  -0.00     0.01   0.01  -0.00     0.00   0.00  -0.00
  12   6     0.00   0.02  -0.09    -0.01   0.06  -0.26     0.00   0.00  -0.02
  13   1     0.00  -0.00  -0.00     0.00  -0.00  -0.00     0.00  -0.00  -0.00
  14   1    -0.00  -0.00  -0.00     0.00  -0.00   0.00    -0.00  -0.00   0.00
  15   1     0.00   0.00  -0.00     0.00   0.00  -0.00    -0.00  -0.00   0.00
  16   1     0.00  -0.00  -0.00    -0.00   0.00  -0.00     0.00   0.00  -0.00
  17   1    -0.00  -0.00   0.00     0.00   0.00  -0.00    -0.00  -0.00   0.00
  18   1     0.00  -0.00   0.00     0.00  -0.00   0.00     0.00   0.00   0.00
  19   1     0.00   0.00  -0.00     0.00   0.00   0.00     0.00   0.00  -0.00
  20   1     0.13   0.14  -0.17    -0.08  -0.08   0.10     0.47   0.49  -0.60
  21   1     0.47   0.17   0.72    -0.15  -0.05  -0.23    -0.15  -0.06  -0.23
  22   1     0.00  -0.07   0.30     0.01  -0.21   0.88     0.00  -0.01   0.06
