
                                 *****************
                                 * O   R   C   A *
                                 *****************

                                            #,                                       
                                            ###                                      
                                            ####                                     
                                            #####                                    
                                            ######                                   
                                           ########,                                 
                                     ,,################,,,,,                         
                               ,,#################################,,                 
                          ,,##########################################,,             
                       ,#########################################, ''#####,          
                    ,#############################################,,   '####,        
                  ,##################################################,,,,####,       
                ,###########''''           ''''###############################       
              ,#####''   ,,,,##########,,,,          '''####'''          '####       
            ,##' ,,,,###########################,,,                        '##       
           ' ,,###''''                  '''############,,,                           
         ,,##''                                '''############,,,,        ,,,,,,###''
      ,#''                                            '''#######################'''  
     '                                                          ''''####''''         
             ,#######,   #######,   ,#######,      ##                                
            ,#'     '#,  ##    ##  ,#'     '#,    #''#        ,####,   ,####,        
            ##       ##  ##   ,#'  ##            #'  '#       #'       #'  '#        
            ##       ##  #######   ##           ,######,      #####,   #    #        
            '#,     ,#'  ##    ##  '#,     ,#' ,#      #,     #,   #   #,  ,#        
             '#######'   ##     ##  '#######'  #'      '#     '####' # '####'        



                #########################################################
                #                        -***-                          #
                #          Department of theory and spectroscopy        #
                #                                                       #
                #                      Frank Neese                      #
                #                                                       #
                #     Directorship, Architecture, Infrastructure        #
                #                    SHARK, DRIVERS                     #
                #        Core code/Algorithms in most modules           #
                #                                                       #
                #        Max Planck Institute fuer Kohlenforschung      #
                #                Kaiser Wilhelm Platz 1                 #
                #                 D-45470 Muelheim/Ruhr                 #
                #                      Germany                          #
                #                                                       #
                #                  All rights reserved                  #
                #                        -***-                          #
                #########################################################


                         Program Version 6.0.0  -   RELEASE  -


 With contributions from (in alphabetic order):
   Daniel Aravena         : Magnetic Suceptibility
   Michael Atanasov       : Ab Initio Ligand Field Theory (pilot matlab implementation)
   Alexander A. Auer      : GIAO ZORA, VPT2 properties, NMR spectrum
   Ute Becker             : All parallelization in ORCA, NUMFREQ, NUMCALC
   Giovanni Bistoni       : ED, misc. LED, open-shell LED, HFLD
   Martin Brehm           : Molecular dynamics
   Dmytro Bykov           : pre 5.0 version of the SCF Hessian
   Marcos Casanova-Páez   : Triplet and SCS-CIS(D). UHF-(DLPNO)-IP/EA/STEOM-CCSD. UHF-CVS-IP/STEOM-CCSD
   Vijay G. Chilkuri      : MRCI spin determinant printing, contributions to CSF-ICE
   Pauline Colinet        : FMM embedding
   Dipayan Datta          : RHF DLPNO-CCSD density
   Achintya Kumar Dutta   : EOM-CC, STEOM-CC
   Nicolas Foglia         : Exact transition moments, OPA infrastructure, MCD improvements
   Dmitry Ganyushin       : Spin-Orbit,Spin-Spin,Magnetic field MRCI
   Miquel Garcia          : C-PCM and meta-GGA Hessian, CCSD/C-PCM, Gaussian charge scheme
   Tiago L. C. Gouveia    : GS-ROHF, GS-ROCIS
   Yang Guo               : DLPNO-NEVPT2, F12-NEVPT2, CIM, IAO-localization
   Andreas Hansen         : Spin unrestricted coupled pair/coupled cluster methods
   Ingolf Harden          : AUTO-CI MPn and infrastructure 
   Benjamin Helmich-Paris : MC-RPA, TRAH-(SCF,CASSCF), AVAS, COSX integrals, SCF dyn. polar.
   Lee Huntington         : MR-EOM, pCC
   Robert Izsak           : Overlap fitted RIJCOSX, COSX-SCS-MP3, EOM
   Riya Kayal             : Wick's Theorem for AUTO-CI, AUTO-CI UHF-CCSDT
   Emily Kempfer          : AUTO-CI, RHF CISDT and CCSDT
   Christian Kollmar      : KDIIS, OOCD, Brueckner-CCSD(T), CCSD density, CASPT2, CASPT2-K, improved NEVPT2
   Axel Koslowski         : Symmetry handling
   Simone Kossmann        : Meta GGA functionals, TD-DFT gradient, OOMP2, (MP2 Hessian; deprecated post 5.0)
   Lucas Lang             : DCDCAS
   Marvin Lechner         : AUTO-CI (C++ implementation), FIC-MRCC
   Spencer Leger          : CASSCF response
   Dagmar Lenk            : GEPOL surface, SMD, ORCA-2-JSON
   Dimitrios Liakos       : Extrapolation schemes; Compound Job, initial MDCI parallelization
   Dimitrios Manganas     : Further ROCIS development; embedding schemes. LFT, Crystal Embedding
   Dimitrios Pantazis     : SARC Basis sets
   Anastasios Papadopoulos: AUTO-CI, single reference methods and gradients
   Taras Petrenko         : pre 6.0 DFT Hessian and TD-DFT gradient, (ASA, deprecated), ECA, 1-Electron XAS/XES, NRVS
   Peter Pinski           : DLPNO-MP2, DLPNO-MP2 Gradient
   Christoph Reimann      : Effective Core Potentials
   Marius Retegan         : Local ZFS, SOC
   Christoph Riplinger    : Optimizer, TS searches, QM/MM, DLPNO-CCSD(T), (RO)-DLPNO pert. Triples
   Michael Roemelt        : Original ROCIS implementation
   Masaaki Saitow         : Open-shell DLPNO-CCSD energy and density
   Barbara Sandhoefer     : DKH picture change effects
   Kantharuban Sivalingam : CASSCF convergence/infrastructure, NEVPT2 and variants, FIC-MRCI
   Bernardo de Souza      : ESD, SOC TD-DFT
   Georgi Stoychev        : AutoAux, RI-MP2 NMR, DLPNO-MP2 response, X2C
   Van Anh Tran           : RI-MP2 g-tensors
   Willem Van den Heuvel  : Paramagnetic NMR
   Zikuan Wang            : NOTCH, Electric field optimization 
   Frank Wennmohs         : Technical directorship and infrastructure
   Hang Xu                : AUTO-CI-Response properties 


 We gratefully acknowledge several colleagues who have allowed us to
 interface, adapt or use parts of their codes:
   Stefan Grimme, W. Hujo, H. Kruse, P. Pracht,  : VdW corrections, initial TS optimization,
                  C. Bannwarth, S. Ehlert,         DFT functionals, gCP, sTDA/sTD-DF
                  L. Wittmann, M. Mueller
   Ed Valeev, F. Pavosevic, A. Kumar             : LibInt (2-el integral package), F12 methods
   Garnet Chan, S. Sharma, J. Yang, R. Olivares  : DMRG
   Ulf Ekstrom                                   : XCFun DFT Library
   Mihaly Kallay                                 : mrcc  (arbitrary order and MRCC methods)
   Frank Weinhold                                : gennbo (NPA and NBO analysis)
   Simon Mueller                                 : openCOSMO-RS
   Christopher J. Cramer and Donald G. Truhlar   : smd solvation model
   Lars Goerigk                                  : TD-DFT with DH, B97 family of functionals
   V. Asgeirsson, H. Jonsson                     : NEB implementation
   FAccTs GmbH                                   : IRC, NEB, NEB-TS, DLPNO-Multilevel, CI-OPT
                                                   MM, QMMM, 2- and 3-layer-ONIOM, Crystal-QMMM,
                                                   LR-CPCM, SF, NACMEs, symmetry and pop. for TD-DFT,
                                                   nearIR, NL-DFT gradient (VV10), updates on ESD,
                                                   ML-optimized integration grids, MBIS, APM,
                                                   GOAT, DOCKER, SOLVATOR, interface openCOSMO-RS
   S Lehtola, MJT Oliveira, MAL Marques          : LibXC Library
   Liviu Ungur et al                             : ANISO software


 Your calculation uses the libint2 library for the computation of 2-el integrals
 For citations please refer to: http://libint.valeyev.net

 Your ORCA version has been built with support for libXC version: 6.2.2
 For citations please refer to: https://libxc.gitlab.io

 This ORCA versions uses:
   CBLAS   interface :  Fast vector & matrix operations
   LAPACKE interface :  Fast linear algebra routines
   SCALAPACK package :  Parallel linear algebra routines
   Shared memory     :  Shared parallel matrices
   BLAS/LAPACK       :  OpenBLAS 0.3.27  USE64BITINT DYNAMIC_ARCH NO_AFFINITY SkylakeX SINGLE_THREADED
        Core in use  :  SkylakeX
   Copyright (c) 2011-2014, The OpenBLAS Project


Your calculation utilizes the geometrical counterpoise correction gCP
Please cite in your paper:
H.Kruse, S. Grimme J.Chem.Phys., 136, (2012), 154101 
   

Your calculation utilizes the atom-pairwise dispersion correction
based on EEQ partial charges (D4)


Your calculation utilizes the SMD solvation module
Please cite in your paper:
A.V. Marenich, C.J. Cramer, D.G. Truhlar J. Phys. Chem. B, 113, (2009), 6378 

================================================================================

----- Orbital basis set information -----
Your calculation utilizes the basis: def2-mTZVPP
   Stefan Grimme, Andreas Hansen, Sebastian Ehlert, and Jan-Michael Mewes 
   J. Chem. Phys. 154, 064103 (2021). DOI: 10.1063/5.0040021

----- AuxJ basis set information -----
Your calculation utilizes the auxiliary basis: def2/J
   F. Weigend, Phys. Chem. Chem. Phys. 8, 1057 (2006).

================================================================================
                                        WARNINGS
                       Please study these warnings very carefully!
================================================================================

Using LibXC functional ID 497 : Re-regularized SCAN exchange by Furness et al
[ 1]  J. W. Furness, A. D. Kaplan, J. Ning, J. P. Perdew, and J. Sun.,  J. Phys. Chem. Lett. 11, 8208-8215 (2020)
[ 2]  J. W. Furness, A. D. Kaplan, J. Ning, J. P. Perdew, and J. Sun.,  J. Phys. Chem. Lett. 11, 9248-9248 (2020)
Using LibXC functional ID 498 : Re-regularized SCAN correlation by Furness et al
[ 1]  J. W. Furness, A. D. Kaplan, J. Ning, J. P. Perdew, and J. Sun.,  J. Phys. Chem. Lett. 11, 8208-8215 (2020)
[ 2]  J. W. Furness, A. D. Kaplan, J. Ning, J. P. Perdew, and J. Sun.,  J. Phys. Chem. Lett. 11, 9248-9248 (2020)
Using LibXC functional ID 497 : Re-regularized SCAN exchange by Furness et al
[ 1]  J. W. Furness, A. D. Kaplan, J. Ning, J. P. Perdew, and J. Sun.,  J. Phys. Chem. Lett. 11, 8208-8215 (2020)
[ 2]  J. W. Furness, A. D. Kaplan, J. Ning, J. P. Perdew, and J. Sun.,  J. Phys. Chem. Lett. 11, 9248-9248 (2020)
Using LibXC functional ID 498 : Re-regularized SCAN correlation by Furness et al
[ 1]  J. W. Furness, A. D. Kaplan, J. Ning, J. P. Perdew, and J. Sun.,  J. Phys. Chem. Lett. 11, 8208-8215 (2020)
[ 2]  J. W. Furness, A. D. Kaplan, J. Ning, J. P. Perdew, and J. Sun.,  J. Phys. Chem. Lett. 11, 9248-9248 (2020)

================================================================================
                                       INPUT FILE
================================================================================
NAME = sp_solv.inp
|  1> ! r2scan-3c def2/J RI DEFGRID2 scfconv6 printgap
|  2> %output
|  3>     printlevel normal
|  4> end
|  5> %cpcm
|  6>     smd true
|  7>     smdsolvent "water"
|  8> end
|  9> * xyz 0 1
| 10> C -2.9637570171 0.151588247 -0.1070887158
| 11> C -1.6381903634 0.6208233148 0.4805810753
| 12> C -0.4730542146 -0.1812659966 -0.0416792536
| 13> O -0.5321555563 -1.3304915023 -0.426433342
| 14> O 0.6479790316 0.5283963116 -0.0104939703
| 15> C 1.8828444681 -0.0895801594 -0.4144821577
| 16> C 2.9847440296 0.3428409523 0.5365769667
| 17> H -3.0777895455 -0.9188247302 0.0443491021
| 18> H -3.7897027764 0.6688338202 0.3709759327
| 19> H -2.9971125308 0.3471801473 -1.1757613046
| 20> H -1.6455117471 0.4881340016 1.5653006286
| 21> H -1.4521825583 1.6740940746 0.2730094731
| 22> H 1.7443738369 -1.1752876307 -0.4129239361
| 23> H 2.091236733 0.2423718966 -1.4356789666
| 24> H 2.7687458924 0.0017475317 1.5451909725
| 25> H 3.9271193379 -0.0844591974 0.2100397496
| 26> H 3.0639542275 1.425995805 0.5421248744
| 27> *
| 28> 
| 29>                          ****END OF INPUT****
================================================================================

                       ****************************
                       * Single Point Calculation *
                       ****************************

---------------------------------
CARTESIAN COORDINATES (ANGSTROEM)
---------------------------------
  C     -2.963757    0.151588   -0.107089
  C     -1.638190    0.620823    0.480581
  C     -0.473054   -0.181266   -0.041679
  O     -0.532156   -1.330492   -0.426433
  O      0.647979    0.528396   -0.010494
  C      1.882844   -0.089580   -0.414482
  C      2.984744    0.342841    0.536577
  H     -3.077790   -0.918825    0.044349
  H     -3.789703    0.668834    0.370976
  H     -2.997113    0.347180   -1.175761
  H     -1.645512    0.488134    1.565301
  H     -1.452183    1.674094    0.273009
  H      1.744374   -1.175288   -0.412924
  H      2.091237    0.242372   -1.435679
  H      2.768746    0.001748    1.545191
  H      3.927119   -0.084459    0.210040
  H      3.063954    1.425996    0.542125

----------------------------
CARTESIAN COORDINATES (A.U.)
----------------------------
  NO LB      ZA    FRAG     MASS         X           Y           Z
   0 C     6.0000    0    12.011   -5.600689    0.286460   -0.202368
   1 C     6.0000    0    12.011   -3.095731    1.173186    0.908167
   2 C     6.0000    0    12.011   -0.893943   -0.342543   -0.078762
   3 O     8.0000    0    15.999   -1.005628   -2.514265   -0.805842
   4 O     8.0000    0    15.999    1.224503    0.998524   -0.019831
   5 C     6.0000    0    12.011    3.558060   -0.169282   -0.783258
   6 C     6.0000    0    12.011    5.640349    0.647876    1.013984
   7 H     1.0000    0     1.008   -5.816179   -1.736327    0.083808
   8 H     1.0000    0     1.008   -7.161500    1.263913    0.701043
   9 H     1.0000    0     1.008   -5.663722    0.656075   -2.221867
  10 H     1.0000    0     1.008   -3.109567    0.922440    2.957990
  11 H     1.0000    0     1.008   -2.744227    3.163579    0.515913
  12 H     1.0000    0     1.008    3.296389   -2.220972   -0.780313
  13 H     1.0000    0     1.008    3.951865    0.458017   -2.713040
  14 H     1.0000    0     1.008    5.232171    0.003302    2.919988
  15 H     1.0000    0     1.008    7.421180   -0.159605    0.396918
  16 H     1.0000    0     1.008    5.790034    2.694742    1.024468

--------------------------------
INTERNAL COORDINATES (ANGSTROEM)
--------------------------------
 C      0   0   0     0.000000000000     0.00000000     0.00000000
 C      1   0   0     1.524028964825     0.00000000     0.00000000
 C      2   1   0     1.507861187194   112.00875552     0.00000000
 O      3   2   1     1.213362246027   125.17057572   332.47965853
 O      3   2   1     1.327143041522   111.10768058   153.41031309
 C      5   3   2     1.438747378983   119.25643829   177.21749928
 C      6   5   3     1.518447931140   108.94448599   221.15489159
 H      1   2   3     1.087069810077   109.91919968    53.19914191
 H      1   2   3     1.085483849924   110.19861181   173.53674916
 H      1   2   3     1.086936007228   110.51243580   293.94465662
 H      2   1   3     1.092829614262   109.84827406   241.83518084
 H      2   1   3     1.089524743660   111.88065367   122.00636513
 H      6   5   3     1.094503200999   108.48678712   343.23009025
 H      6   5   3     1.093829249042   107.17639257   100.85283237
 H      7   6   5     1.086417106615   110.35254698    62.50638580
 H      7   6   5     1.085026817078   109.24591473   182.54278226
 H      7   6   5     1.086061448381   109.88550656   302.48043608

---------------------------
INTERNAL COORDINATES (A.U.)
---------------------------
 C      0   0   0     0.000000000000     0.00000000     0.00000000
 C      1   0   0     2.879997363683     0.00000000     0.00000000
 C      2   1   0     2.849444691766   112.00875552     0.00000000
 O      3   2   1     2.292922346230   125.17057572   332.47965853
 O      3   2   1     2.507936889016   111.10768058   153.41031309
 C      5   3   2     2.718838522175   119.25643829   177.21749928
 C      6   5   3     2.869450738473   108.94448599   221.15489159
 H      1   2   3     2.054264229500   109.91919968    53.19914191
 H      1   2   3     2.051267199151   110.19861181   173.53674916
 H      1   2   3     2.054011378760   110.51243580   293.94465662
 H      2   1   3     2.065148681994   109.84827406   241.83518084
 H      2   1   3     2.058903381648   111.88065367   122.00636513
 H      6   5   3     2.068311302587   108.48678712   343.23009025
 H      6   5   3     2.067037717963   107.17639257   100.85283237
 H      7   6   5     2.053030798710   110.35254698    62.50638580
 H      7   6   5     2.050403532238   109.24591473   182.54278226
 H      7   6   5     2.052358702049   109.88550656   302.48043608

---------------------
BASIS SET INFORMATION
---------------------
There are 3 groups of distinct atoms

 Group   1 Type C   : 11s6p1d contracted to 5s3p1d pattern {62111/411/1}
 Group   2 Type O   : 11s6p2d contracted to 5s3p2d pattern {62111/411/11}
 Group   3 Type H   : 4s1p contracted to 2s1p pattern {31/1}

Atom   0C    basis set group =>   1
Atom   1C    basis set group =>   1
Atom   2C    basis set group =>   1
Atom   3O    basis set group =>   2
Atom   4O    basis set group =>   2
Atom   5C    basis set group =>   1
Atom   6C    basis set group =>   1
Atom   7H    basis set group =>   3
Atom   8H    basis set group =>   3
Atom   9H    basis set group =>   3
Atom  10H    basis set group =>   3
Atom  11H    basis set group =>   3
Atom  12H    basis set group =>   3
Atom  13H    basis set group =>   3
Atom  14H    basis set group =>   3
Atom  15H    basis set group =>   3
Atom  16H    basis set group =>   3
---------------------------------
AUXILIARY/J BASIS SET INFORMATION
---------------------------------
There are 3 groups of distinct atoms

 Group   1 Type C   : 12s5p4d2f1g contracted to 6s4p3d1f1g pattern {711111/2111/211/2/1}
 Group   2 Type O   : 12s5p4d2f1g contracted to 6s4p3d1f1g pattern {711111/2111/211/2/1}
 Group   3 Type H   : 5s2p1d contracted to 3s1p1d pattern {311/2/1}

Atom   0C    basis set group =>   1
Atom   1C    basis set group =>   1
Atom   2C    basis set group =>   1
Atom   3O    basis set group =>   2
Atom   4O    basis set group =>   2
Atom   5C    basis set group =>   1
Atom   6C    basis set group =>   1
Atom   7H    basis set group =>   3
Atom   8H    basis set group =>   3
Atom   9H    basis set group =>   3
Atom  10H    basis set group =>   3
Atom  11H    basis set group =>   3
Atom  12H    basis set group =>   3
Atom  13H    basis set group =>   3
Atom  14H    basis set group =>   3
Atom  15H    basis set group =>   3
Atom  16H    basis set group =>   3

Checking for AutoStart:
The File: sp_solv.gbw exists
Trying to determine its content:
     ... Fine, the file contains calculation information
     ... Fine, the calculation information was read
     ... Fine, the file contains a basis set
     ... Fine, the basis set was read
     ... Fine, the file contains a geometry
     ... Fine, the geometry was read
     ... Fine, the file contains a set of orbitals
     ... Fine, the orbitals can be read
     => possible old guess file was deleted
     => GBW file was renamed to GES file
     => GES file is set as startup file
     => Guess is set to MORead
     ... now leaving AutoStart

------------------------------------------------------------------------------
                             ORCA STARTUP CALCULATIONS
                           -- RI-GTO INTEGRALS CHOSEN --
------------------------------------------------------------------------------
------------------------------------------------------------------------------
                   ___                                                        
                  /   \      - P O W E R E D   B Y -                         
                 /     \                                                     
                 |  |  |   _    _      __       _____    __    __             
                 |  |  |  | |  | |    /  \     |  _  \  |  |  /  |          
                  \  \/   | |  | |   /    \    | | | |  |  | /  /          
                 / \  \   | |__| |  /  /\  \   | |_| |  |  |/  /          
                |  |  |   |  __  | /  /__\  \  |    /   |      \           
                |  |  |   | |  | | |   __   |  |    \   |  |\   \          
                \     /   | |  | | |  |  |  |  | |\  \  |  | \   \       
                 \___/    |_|  |_| |__|  |__|  |_| \__\ |__|  \__/        
                                                                              
                      - O R C A' S   B I G   F R I E N D -                    
                                      &                                       
                       - I N T E G R A L  F E E D E R -                       
                                                                              
 v1 FN, 2020, v2 2021, v3 2022-2024                                           
------------------------------------------------------------------------------


----------------------
SHARK INTEGRAL PACKAGE
----------------------

Number of atoms                             ...     17
Number of basis functions                   ...    193
Number of shells                            ...     95
Maximum angular momentum                    ...      2
Integral batch strategy                     ... SHARK/LIBINT Hybrid
RI-J (if used) integral strategy            ... SPLIT-RIJ (Revised 2003 algorithm where possible)
Printlevel                                  ...      1
Contraction scheme used                     ... SEGMENTED contraction
Prescreening option                         ... SCHWARTZ
   Thresh                                   ... 1.000e-10
   Tcut                                     ... 1.000e-11
   Tpresel                                  ... 1.000e-11 
Coulomb Range Separation                    ... NOT USED
Exchange Range Separation                   ... NOT USED
Multipole approximations                    ... NOT USED
Finite Nucleus Model                        ... NOT USED
CABS basis                                  ... NOT available
Auxiliary Coulomb fitting basis             ... AVAILABLE
   # of basis functions in Aux-J            ...    453
   # of shells in Aux-J                     ...    155
   Maximum angular momentum in Aux-J        ...      4
Auxiliary J/K fitting basis                 ... NOT available
Auxiliary Correlation fitting basis         ... NOT available
Auxiliary 'external' fitting basis          ... NOT available

Checking pre-screening integrals            ... done (  0.0 sec) Dimension = 95
Check shell pair data                       ... done (  0.0 sec)
Shell pair information
Shell pair cut-off parameter TPreSel        ...   1.0e-11
Total number of shell pairs                 ...      4560
Shell pairs after pre-screening             ...      4002
Total number of primitive shell pairs       ...     16115
Primitive shell pairs kept                  ...     10162
          la=0 lb=0:   1334 shell pairs
          la=1 lb=0:   1488 shell pairs
          la=1 lb=1:    438 shell pairs
          la=2 lb=0:    448 shell pairs
          la=2 lb=1:    251 shell pairs
          la=2 lb=2:     43 shell pairs

Calculating one electron integrals          ... done (  0.0 sec)
Calculating RI/J V-Matrix + Cholesky decomp.... done (  0.1 sec)
Calculating Nuclear repulsion               ... done (  0.0 sec) ENN=    313.677859187640 Eh

Diagonalization of the overlap matrix:
Smallest eigenvalue                        ... 2.115e-04
Time for diagonalization                   ...    0.003 sec
Threshold for overlap eigenvalues          ... 1.000e-07
Number of eigenvalues below threshold      ... 0
Time for construction of square roots      ...    0.020 sec
Total time needed                          ...    0.032 sec

-------------------
DFT GRID GENERATION
-------------------

General Integration Accuracy     IntAcc      ... 4.388
Radial Grid Type                 RadialGrid  ... OptM3 with GC (2021)
Angular Grid (max. ang.)         AngularGrid ... 4 (Lebedev-302)
Angular grid pruning method      GridPruning ... 4 (adaptive)
Weight generation scheme         WeightScheme... mBecke (2022)
Basis function cutoff            BFCut       ... 1.0000e-10
Integration weight cutoff        WCut        ... 1.0000e-14
Partially contracted basis set               ... off
Rotationally invariant grid construction     ... off
Angular grids for H and He will be reduced by one unit
Diffuse basis detected: some atoms will have their outermost
                        angular grid increased by 1.

Total number of grid points                  ...    75120
Total number of batches                      ...     1180
Average number of points per batch           ...       63
Average number of grid points per atom       ...     4419
Initializing property integral containers    ... done (  0.0 sec)

SHARK setup successfully completed in   1.0 seconds

Maximum memory used throughout the entire STARTUP-calculation: 33.5 MB
-------------------------------------------------------------------------------
                                 ORCA GUESS
                   Start orbitals & Density for SCF / CASSCF
-------------------------------------------------------------------------------

------------
SCF SETTINGS
------------
Hamiltonian:
 Density Functional     Method          .... DFT(GTOs)
  Functional kind                       .... Exchange
  Functional name                       .... Re-regularized SCAN exchange by Furness et al
  Functional family                     .... MGGA
  Functional refs                              
    [ 0] J. W. Furness, A. D. Kaplan, J. Ning, J. P. Perdew, and J. Sun.,  J. Phys. Chem. Lett. 11, 8208-8215 (2020), doi: 10.1021/acs.jpclett.0c02405
    [ 1] J. W. Furness, A. D. Kaplan, J. Ning, J. P. Perdew, and J. Sun.,  J. Phys. Chem. Lett. 11, 9248-9248 (2020), doi: 10.1021/acs.jpclett.0c03077
  Functional external parameters        .... 6
    Parameter  0 _c1        =  6.670000e-01 : c1 parameter        
    Parameter  1 _c2        =  8.000000e-01 : c2 parameter        
    Parameter  2 _d         =  1.240000e+00 : d parameter         
    Parameter  3 _k1        =  6.500000e-02 : k1 parameter        
    Parameter  4 _eta       =  1.000000e-03 : eta parameter       
    Parameter  5 _dp2       =  3.610000e-01 : dp2 parameter       
  Functional kind                       .... Correlation
  Functional name                       .... Re-regularized SCAN correlation by Furness et al
  Functional family                     .... MGGA
  Functional refs                              
    [ 0] J. W. Furness, A. D. Kaplan, J. Ning, J. P. Perdew, and J. Sun.,  J. Phys. Chem. Lett. 11, 8208-8215 (2020), doi: 10.1021/acs.jpclett.0c02405
    [ 1] J. W. Furness, A. D. Kaplan, J. Ning, J. P. Perdew, and J. Sun.,  J. Phys. Chem. Lett. 11, 9248-9248 (2020), doi: 10.1021/acs.jpclett.0c03077
  Functional external parameters        .... 1
    Parameter  0 _eta       =  1.000000e-03 : Regularization parameter
 Gradients option       PostSCFGGA      .... off
 RI-approximation to the Coulomb term is turned on
   Number of AuxJ basis functions       .... 453


General Settings:
 Integral files         IntName         .... sp_solv
 Hartree-Fock type      HFTyp           .... RHF
 Total Charge           Charge          ....    0
 Multiplicity           Mult            ....    1
 Number of Electrons    NEL             ....   56
 Basis Dimension        Dim             ....  193
 Nuclear Repulsion      ENuc            ....    313.6778591876 Eh

Convergence Acceleration:
 AO-DIIS                CNVDIIS         .... on
   Start iteration      DIISMaxIt       ....    12
   Startup error        DIISStart       ....  0.200000
   # of expansion vecs  DIISMaxEq       ....     5
   Bias factor          DIISBfac        ....   1.050
   Max. coefficient     DIISMaxC        ....  10.000
 MO-DIIS                CNVKDIIS        .... off
 Trust-Rad. Augm. Hess. CNVTRAH         .... auto
   Auto Start mean grad. ratio tolernc. ....  1.125000
   Auto Start start iteration           ....     1
   Auto Start num. interpolation iter.  ....    10
   Max. Number of Micro iterations      ....    24
   Max. Number of Macro iterations      .... Maxiter - #DIIS iter
   Number of Davidson start vectors     ....     2
   Converg. threshold    (grad. norm)   ....   3.330e-04
   Grad. Scal. Fac. for Micro threshold ....   0.100
   Minimum threshold for Micro iter.    ....   1.000e-02
   NR start threshold (gradient norm)   ....   1.000e-04
   Initial trust radius                 ....   0.400
   Minimum AH scaling param. (alpha)    ....   1.000
   Maximum AH scaling param. (alpha)    .... 1000.000
   Quad. conv. algorithm                .... NR
   White noise on init. David. guess    .... on
   Maximum white noise                  ....   0.010
   Pseudo random numbers                .... off
   Inactive MOs                         .... canonical
   Orbital update algorithm             .... Taylor
   Preconditioner                       .... Diag
   Full preconditioner red. dimension   ....   250
   COSX micro iterations for RIJONX calc.... off
 SOSCF                  CNVSOSCF        .... on
   Start iteration      SOSCFMaxIt      ....   150
   Startup grad/error   SOSCFStart      ....  0.003300
   Hessian update       SOSCFHessUp     .... L-BFGS
 Level Shifting         CNVShift        .... on
   Level shift para.    LevelShift      ....    0.2500
   Turn off err/grad.   ShiftErr        ....    0.0010
 Zerner damping         CNVZerner       .... off
 Static damping         CNVDamp         .... on
   Fraction old density DampFac         ....    0.7000
   Max. Damping (<1)    DampMax         ....    0.9800
   Min. Damping (>=0)   DampMin         ....    0.0000
   Turn off err/grad.   DampErr         ....    0.1000

SCF Procedure:
 Maximum # iterations   MaxIter         ....   125
 SCF integral mode      SCFMode         .... Direct
   Integral package                     .... SHARK and LIBINT hybrid scheme
 Reset frequency        DirectResetFreq ....    20
 Integral Threshold     Thresh          ....  1.000e-10 Eh
 Primitive CutOff       TCut            ....  1.000e-11 Eh

Convergence Tolerance:
 Convergence Check Mode ConvCheckMode   .... Total+1el-Energy
 Convergence forced     ConvForced      .... 0
 Energy Change          TolE            ....  1.000e-06 Eh
 1-El. energy change                    ....  1.000e-03 Eh
 Orbital Gradient       TolG            ....  3.330e-04
 Orbital Rotation angle TolX            ....  3.330e-04
 DIIS Error             TolErr          ....  1.000e-06

---------------------
INITIAL GUESS: MOREAD
---------------------
Guess MOs are being read from file: sp_solv.ges
Input Geometry matches current geometry (good)
Atom 0: N(Shells)= 9 and 6 - projection required
Input basis set needs projection
NBasis(read)= 118
NBasis(calc)= 193
Basis set overlap was calculated
Using GuessMode=FMatrix for the initial guess
C*T matrix was formed
Effective Fockian was calculated
Effective Fockian was diagonalized
Initial density was built
                      ------------------
                      INITIAL GUESS DONE (   0.0 sec)
                      ------------------
             **** ENERGY FILE WAS UPDATED (sp_solv.en.tmp) ****
Finished Guess after   0.3 sec
Maximum memory used throughout the entire GUESS-calculation: 12.8 MB

-------------------------------------------------------------------------------------------
                                      ORCA LEAN-SCF
                              memory conserving SCF solver
-------------------------------------------------------------------------------------------

--------------------
CPCM SOLVATION MODEL
--------------------
CPCM parameters:
  Epsilon                                         ...      78.3550
  Refrac                                          ...       1.3328
  Rsolv                                           ...       1.3000
  Surface type                                    ... GAUSSIAN VDW
  Discretization scheme                           ... Constant charge density
    Threshold for H atoms                         ...       5.0000 (charges/Ang^2)
    Threshold for non-H atoms                     ...       5.0000 (charges/Ang^2)
  Epsilon function type                           ...         CPCM
Solvent:                                          ... WATER
SMD-CDS solvent descriptors:
  Soln                                            ...       1.3328
  Soln25                                          ...       1.3323
  Sola                                            ...       0.0000
  Solb                                            ...       0.0000
  Solg                                            ...       0.0000
  Solc                                            ...       0.0000
  Solh                                            ...       0.0000
Radii:
  Scheme                                          ... Element-dependent radii
  Radius for C  used is    3.4960 Bohr (=   1.8500 Ang.)
  Radius for O  used is    2.8724 Bohr (=   1.5200 Ang.)
  Radius for H  used is    2.2677 Bohr (=   1.2000 Ang.)
Calculating surface                               ...        done! (  0.0s)
Cavity surface points                             ...         1287
Cavity Volume                                     ...     761.7198
Cavity Surface-area                               ...     517.5400
Calculating surface distance matrix               ...        done! (  0.0s)
Performing Cholesky decomposition & store         ...        done! (  0.1s)
Overall time for CPCM initialization              ...                 0.1s

----------------------------------------D-I-I-S--------------------------------------------
Iteration    Energy (Eh)           Delta-E    RMSDP     MaxDP     DIISErr   Damp  Time(sec)
-------------------------------------------------------------------------------------------
               ***  Starting incremental Fock matrix formation  ***
    1    -346.7773617624614531     0.00e+00  3.57e-03  1.21e-01  6.26e-01  0.700   2.4
    2    -346.8301702416887906    -5.28e-02  2.93e-03  8.97e-02  4.41e-01  0.700   2.2
    3    -346.8675218109909224    -3.74e-02  2.16e-03  6.34e-02  3.10e-01  0.700   2.4
    4    -346.8937752528967735    -2.63e-02  1.56e-03  4.47e-02  2.17e-01  0.700   2.2
                               ***Turning on AO-DIIS***
    5    -346.9122107986171955    -1.84e-02  1.13e-03  3.22e-02  1.52e-01  0.700   2.1
    6    -346.9251350870459305    -1.29e-02  8.07e-04  2.28e-02  1.06e-01  0.700   2.1
    7    -346.9342095692792896    -9.07e-03  5.70e-04  1.61e-02  7.42e-02  0.700   2.1
    8    -346.9405695545728463    -6.36e-03  1.34e-03  3.75e-02  5.21e-02  0.000   2.0
                              *** Initializing SOSCF ***
---------------------------------------S-O-S-C-F--------------------------------------
Iteration    Energy (Eh)           Delta-E    RMSDP     MaxDP     MaxGrad    Time(sec)
--------------------------------------------------------------------------------------
    9    -346.9554397796960643    -1.49e-02  1.32e-05  4.63e-04  1.97e-04     2.1
               *** Restarting incremental Fock matrix formation ***
   10    -346.9554399293404572    -1.50e-07  7.40e-06  1.91e-04  4.93e-05     2.3
                  *** Gradient check signals convergence ***

               *****************************************************
               *                     SUCCESS                       *
               *           SCF CONVERGED AFTER  10 CYCLES          *
               *****************************************************


SMD CDS free energy correction energy :                 4.86097     Kcal/mol
Total Energy after SMD CDS correction =              -346.947693478 Eh
             **** ENERGY FILE WAS UPDATED (sp_solv.en.tmp) ****

----------------
TOTAL SCF ENERGY
----------------

Total Energy       :       -346.94769347844539 Eh           -9440.92671 eV

Components:
Nuclear Repulsion  :        313.67785918764008 Eh            8535.60849 eV
Electronic Energy  :       -660.61781716027315 Eh          -17976.32470 eV
One Electron Energy:      -1092.86506458520194 Eh          -29738.37028 eV
Two Electron Energy:        432.24724742492879 Eh           11762.04557 eV
CPCM Dielectric    :         -0.01548195670742 Eh              -0.42129 eV
SMD CDS (Gcds)     :          0.00774645089509 Eh               0.21079 eV

Virial components:
Potential Energy   :       -692.47391628104810 Eh          -18843.17323 eV
Kinetic Energy     :        345.52622280260272 Eh            9402.24652 eV
Virial Ratio       :          2.00411392994810

DFT components:
N(Alpha)           :       27.999996874744 electrons
N(Beta)            :       27.999996874744 electrons
N(Total)           :       55.999993749489 electrons
E(X)               :      -46.161837829145 Eh       
E(C)               :       -1.788067793089 Eh       
E(XC)              :      -47.949905622234 Eh       

CPCM Solvation Model Properties:
Surface-charge          :         -0.04418356787647
Corrected charge        :          0.00000000000000
Outlying charge corr.   :          0.00015420017940 Eh               0.00420 eV
Free-energy (cav+disp)  :          0.00774645089509 Eh               0.21079 eV

---------------
SCF CONVERGENCE
---------------

  Last Energy change         ...    1.4964e-07  Tolerance :   1.0000e-06
  Last MAX-Density change    ...    1.9106e-04  Tolerance :   1.0000e-05
  Last RMS-Density change    ...    7.4031e-06  Tolerance :   1.0000e-06
  Last DIIS Error            ...    1.9687e-04  Tolerance :   1.0000e-06
  Last Orbital Gradient      ...    4.9305e-05  Tolerance :   3.3300e-04
  Last Orbital Rotation      ...    1.1129e-04  Tolerance :   3.3300e-04


----------------
ORBITAL ENERGIES
----------------

  NO   OCC          E(Eh)            E(eV) 
   0   2.0000     -19.001516      -517.0575 
   1   2.0000     -18.943218      -515.4712 
   2   2.0000     -10.162378      -276.5324 
   3   2.0000     -10.082278      -274.3527 
   4   2.0000     -10.037858      -273.1440 
   5   2.0000     -10.018438      -272.6155 
   6   2.0000     -10.017117      -272.5796 
   7   2.0000      -1.077603       -29.3231 
   8   2.0000      -0.988707       -26.9041 
   9   2.0000      -0.759623       -20.6704 
  10   2.0000      -0.725137       -19.7320 
  11   2.0000      -0.637143       -17.3375 
  12   2.0000      -0.582591       -15.8531 
  13   2.0000      -0.527272       -14.3478 
  14   2.0000      -0.472799       -12.8655 
  15   2.0000      -0.463326       -12.6077 
  16   2.0000      -0.439792       -11.9673 
  17   2.0000      -0.420418       -11.4402 
  18   2.0000      -0.395299       -10.7566 
  19   2.0000      -0.368327       -10.0227 
  20   2.0000      -0.361337        -9.8325 
  21   2.0000      -0.348785        -9.4909 
  22   2.0000      -0.333196        -9.0667 
  23   2.0000      -0.324420        -8.8279 
  24   2.0000      -0.315070        -8.5735 
  25   2.0000      -0.305976        -8.3260 
  26   2.0000      -0.276318        -7.5190 
  27   2.0000      -0.252360        -6.8671 
  28   0.0000      -0.020233        -0.5506 
  29   0.0000       0.081088         2.2065 
  30   0.0000       0.102207         2.7812 
  31   0.0000       0.120037         3.2664 
  32   0.0000       0.136534         3.7153 
  33   0.0000       0.138959         3.7813 
  34   0.0000       0.153985         4.1902 
  35   0.0000       0.169838         4.6215 
  36   0.0000       0.176684         4.8078 
  37   0.0000       0.180587         4.9140 
  38   0.0000       0.182020         4.9530 
*Only the first 10 virtual orbitals were printed.

                    ********************************
                    * MULLIKEN POPULATION ANALYSIS *
                    ********************************

-----------------------
MULLIKEN ATOMIC CHARGES
-----------------------
   0 C :   -0.507805
   1 C :   -0.278963
   2 C :    0.421768
   3 O :   -0.522699
   4 O :   -0.189377
   5 C :   -0.149213
   6 C :   -0.486884
   7 H :    0.161752
   8 H :    0.167208
   9 H :    0.164600
  10 H :    0.196255
  11 H :    0.179038
  12 H :    0.178637
  13 H :    0.168643
  14 H :    0.164192
  15 H :    0.167973
  16 H :    0.164874
Sum of atomic charges:   -0.0000000

--------------------------------
MULLIKEN REDUCED ORBITAL CHARGES
--------------------------------
  0 C s       :     3.341094  s :     3.341094
      pz      :     1.074619  p :     3.140314
      px      :     0.980322
      py      :     1.085373
      dz2     :     0.007637  d :     0.026396
      dxz     :     0.004973
      dyz     :     0.001845
      dx2y2   :     0.007074
      dxy     :     0.004867

  1 C s       :     3.192103  s :     3.192103
      pz      :     1.077137  p :     3.051674
      px      :     0.929894
      py      :     1.044643
      dz2     :     0.008955  d :     0.035186
      dxz     :     0.006218
      dyz     :     0.002640
      dx2y2   :     0.008100
      dxy     :     0.009274

  2 C s       :     3.132285  s :     3.132285
      pz      :     0.728299  p :     2.320914
      px      :     0.830599
      py      :     0.762016
      dz2     :     0.011161  d :     0.125033
      dxz     :     0.015052
      dyz     :     0.021990
      dx2y2   :     0.028998
      dxy     :     0.047832

  3 O s       :     3.836844  s :     3.836844
      pz      :     1.496537  p :     4.662652
      px      :     1.821276
      py      :     1.344839
      dz2     :     0.004605  d :     0.023203
      dxz     :     0.000965
      dyz     :     0.006070
      dx2y2   :     0.008673
      dxy     :     0.002891

  4 O s       :     3.702202  s :     3.702202
      pz      :     1.711121  p :     4.450136
      px      :     1.099746
      py      :     1.639269
      dz2     :     0.007739  d :     0.037040
      dxz     :     0.009307
      dyz     :     0.004077
      dx2y2   :     0.004367
      dxy     :     0.011550

  5 C s       :     3.285760  s :     3.285760
      pz      :     1.024713  p :     2.810575
      px      :     0.746160
      py      :     1.039702
      dz2     :     0.012158  d :     0.052878
      dxz     :     0.012218
      dyz     :     0.004273
      dx2y2   :     0.013422
      dxy     :     0.010807

  6 C s       :     3.333923  s :     3.333923
      pz      :     1.026885  p :     3.127336
      px      :     1.011935
      py      :     1.088515
      dz2     :     0.006889  d :     0.025624
      dxz     :     0.005824
      dyz     :     0.002773
      dx2y2   :     0.006410
      dxy     :     0.003729

  7 H s       :     0.819817  s :     0.819817
      pz      :     0.003768  p :     0.018431
      px      :     0.003630
      py      :     0.011033

  8 H s       :     0.814390  s :     0.814390
      pz      :     0.005034  p :     0.018402
      px      :     0.008055
      py      :     0.005313

  9 H s       :     0.817095  s :     0.817095
      pz      :     0.010877  p :     0.018305
      px      :     0.003512
      py      :     0.003917

 10 H s       :     0.785485  s :     0.785485
      pz      :     0.011184  p :     0.018260
      px      :     0.003435
      py      :     0.003641

 11 H s       :     0.802903  s :     0.802903
      pz      :     0.003694  p :     0.018059
      px      :     0.003357
      py      :     0.011007

 12 H s       :     0.803158  s :     0.803158
      pz      :     0.003268  p :     0.018205
      px      :     0.002893
      py      :     0.012043

 13 H s       :     0.813876  s :     0.813876
      pz      :     0.010791  p :     0.017481
      px      :     0.002826
      py      :     0.003865

 14 H s       :     0.817524  s :     0.817524
      pz      :     0.010244  p :     0.018284
      px      :     0.003730
      py      :     0.004311

 15 H s       :     0.813524  s :     0.813524
      pz      :     0.004167  p :     0.018503
      px      :     0.009524
      py      :     0.004812

 16 H s       :     0.816797  s :     0.816797
      pz      :     0.003565  p :     0.018329
      px      :     0.003598
      py      :     0.011166


------------------------
MULLIKEN OVERLAP CHARGES
------------------------
B(  0-C ,  1-C ) :   0.4408 B(  0-C ,  2-C ) :  -0.1507 B(  0-C ,  3-O ) :   0.0596 
B(  0-C ,  7-H ) :   0.8296 B(  0-C ,  8-H ) :   0.8167 B(  0-C ,  9-H ) :   0.8463 
B(  0-C , 10-H ) :  -0.0540 B(  0-C , 11-H ) :  -0.0549 B(  1-C ,  2-C ) :   0.5640 
B(  1-C ,  3-O ) :  -0.1920 B(  1-C ,  4-O ) :  -0.1101 B(  1-C ,  7-H ) :  -0.0545 
B(  1-C ,  8-H ) :  -0.0902 B(  1-C ,  9-H ) :  -0.0884 B(  1-C , 10-H ) :   0.7614 
B(  1-C , 11-H ) :   0.8448 B(  2-C ,  3-O ) :   0.9746 B(  2-C ,  4-O ) :   0.4950 
B(  2-C ,  5-C ) :  -0.2124 B(  2-C , 11-H ) :  -0.0985 B(  2-C , 12-H ) :  -0.0506 
B(  3-O ,  4-O ) :  -0.2110 B(  4-O ,  5-C ) :   0.2442 B(  4-O ,  6-C ) :  -0.0681 
B(  4-O , 12-H ) :  -0.0686 B(  4-O , 13-H ) :  -0.0748 B(  5-C ,  6-C ) :   0.4784 
B(  5-C , 12-H ) :   0.8619 B(  5-C , 13-H ) :   0.7643 B(  5-C , 14-H ) :  -0.0836 
B(  5-C , 15-H ) :  -0.0726 B(  6-C , 12-H ) :  -0.0588 B(  6-C , 14-H ) :   0.8382 
B(  6-C , 15-H ) :   0.8168 B(  6-C , 16-H ) :   0.8183 B( 12-H , 13-H ) :  -0.0525 



                     *******************************
                     * LOEWDIN POPULATION ANALYSIS *
                     *******************************

----------------------
LOEWDIN ATOMIC CHARGES
----------------------
   0 C :   -0.407220
   1 C :   -0.234901
   2 C :    0.374703
   3 O :   -0.502666
   4 O :   -0.601265
   5 C :    0.035724
   6 C :   -0.390684
   7 H :    0.162307
   8 H :    0.158913
   9 H :    0.159633
  10 H :    0.192646
  11 H :    0.185104
  12 H :    0.192537
  13 H :    0.184618
  14 H :    0.161181
  15 H :    0.167628
  16 H :    0.161741

-------------------------------
LOEWDIN REDUCED ORBITAL CHARGES
-------------------------------
  0 C s       :     2.969209  s :     2.969209
      pz      :     1.148762  p :     3.376018
      px      :     1.074967
      py      :     1.152289
      dz2     :     0.018418  d :     0.061992
      dxz     :     0.011360
      dyz     :     0.004327
      dx2y2   :     0.016726
      dxy     :     0.011161

  1 C s       :     2.922827  s :     2.922827
      pz      :     1.119622  p :     3.238315
      px      :     1.020708
      py      :     1.097985
      dz2     :     0.019890  d :     0.073759
      dxz     :     0.011973
      dyz     :     0.004946
      dx2y2   :     0.018672
      dxy     :     0.018278

  2 C s       :     2.738180  s :     2.738180
      pz      :     0.734050  p :     2.615356
      px      :     0.918515
      py      :     0.962791
      dz2     :     0.024337  d :     0.271761
      dxz     :     0.028816
      dyz     :     0.044948
      dx2y2   :     0.065306
      dxy     :     0.108354

  3 O s       :     3.544530  s :     3.544530
      pz      :     1.492914  p :     4.732686
      px      :     1.749523
      py      :     1.490249
      dz2     :     0.029549  d :     0.225451
      dxz     :     0.012114
      dyz     :     0.049658
      dx2y2   :     0.068450
      dxy     :     0.065679

  4 O s       :     3.463833  s :     3.463833
      pz      :     1.687725  p :     4.661653
      px      :     1.325293
      py      :     1.648635
      dz2     :     0.068425  d :     0.475778
      dxz     :     0.103014
      dyz     :     0.034396
      dx2y2   :     0.144556
      dxy     :     0.125387

  5 C s       :     2.869628  s :     2.869628
      pz      :     1.060462  p :     2.976074
      px      :     0.858616
      py      :     1.056997
      dz2     :     0.027026  d :     0.118574
      dxz     :     0.028256
      dyz     :     0.007824
      dx2y2   :     0.032002
      dxy     :     0.023465

  6 C s       :     2.973832  s :     2.973832
      pz      :     1.119257  p :     3.356712
      px      :     1.085952
      py      :     1.151503
      dz2     :     0.016576  d :     0.060140
      dxz     :     0.013184
      dyz     :     0.006378
      dx2y2   :     0.015488
      dxy     :     0.008514

  7 H s       :     0.793399  s :     0.793399
      pz      :     0.008484  p :     0.044293
      px      :     0.007880
      py      :     0.027930

  8 H s       :     0.796947  s :     0.796947
      pz      :     0.011927  p :     0.044140
      px      :     0.019414
      py      :     0.012799

  9 H s       :     0.796582  s :     0.796582
      pz      :     0.027278  p :     0.043785
      px      :     0.007709
      py      :     0.008798

 10 H s       :     0.762396  s :     0.762396
      pz      :     0.028313  p :     0.044957
      px      :     0.008082
      py      :     0.008562

 11 H s       :     0.770451  s :     0.770451
      pz      :     0.008946  p :     0.044445
      px      :     0.007875
      py      :     0.027624

 12 H s       :     0.763276  s :     0.763276
      pz      :     0.007552  p :     0.044187
      px      :     0.007401
      py      :     0.029234

 13 H s       :     0.774436  s :     0.774436
      pz      :     0.025431  p :     0.040946
      px      :     0.006039
      py      :     0.009476

 14 H s       :     0.795011  s :     0.795011
      pz      :     0.025381  p :     0.043808
      px      :     0.008448
      py      :     0.009979

 15 H s       :     0.787945  s :     0.787945
      pz      :     0.009715  p :     0.044428
      px      :     0.023445
      py      :     0.011267

 16 H s       :     0.794414  s :     0.794414
      pz      :     0.007937  p :     0.043844
      px      :     0.007788
      py      :     0.028119


---------------------------------
LOEWDIN BOND ORDERS (THRESH 0.050000)
---------------------------------
B(  0-C ,  1-C ) :   1.1256 B(  0-C ,  2-C ) :   0.0723 B(  0-C ,  7-H ) :   0.9193 
B(  0-C ,  8-H ) :   0.9249 B(  0-C ,  9-H ) :   0.9267 B(  1-C ,  2-C ) :   0.9307 
B(  1-C ,  3-O ) :   0.1798 B(  1-C ,  4-O ) :   0.1899 B(  1-C , 10-H ) :   0.8572 
B(  1-C , 11-H ) :   0.8641 B(  2-C ,  3-O ) :   2.1370 B(  2-C ,  4-O ) :   1.4687 
B(  2-C ,  5-C ) :   0.0862 B(  3-O ,  4-O ) :   0.4538 B(  3-O ,  5-C ) :   0.0732 
B(  4-O ,  5-C ) :   1.2895 B(  4-O ,  6-C ) :   0.1685 B(  4-O , 12-H ) :   0.0899 
B(  4-O , 13-H ) :   0.0954 B(  5-C ,  6-C ) :   1.0896 B(  5-C , 12-H ) :   0.8108 
B(  5-C , 13-H ) :   0.8285 B(  6-C , 14-H ) :   0.9239 B(  6-C , 15-H ) :   0.9156 
B(  6-C , 16-H ) :   0.9210 

------------------------------------------
LOEWDIN REDUCED ORBITAL POPULATIONS PER MO
-------------------------------------------
THRESHOLD FOR PRINTING IS 0.1%%
                      0         1         2         3         4         5   
                 -19.00152 -18.94322 -10.16238 -10.08228 -10.03786 -10.01844
                   2.00000   2.00000   2.00000   2.00000   2.00000   2.00000
                  --------  --------  --------  --------  --------  --------
 1 C  s               0.0       0.0       0.0       0.0      99.7       0.0
 2 C  s               0.0       0.0      98.9       0.0       0.0       0.0
 3 O  s               0.0      99.9       0.0       0.0       0.0       0.0
 3 O  py              0.0       0.0       0.2       0.0       0.0       0.0
 3 O  dx2y2           0.0       0.0       0.2       0.0       0.0       0.0
 4 O  s              99.9       0.0       0.0       0.0       0.0       0.0
 4 O  dxy             0.0       0.0       0.2       0.1       0.0       0.0
 5 C  s               0.0       0.0       0.0      99.4       0.0       0.0
 6 C  s               0.0       0.0       0.0       0.0       0.0      99.7

                      6         7         8         9        10        11   
                 -10.01712  -1.07760  -0.98871  -0.75962  -0.72514  -0.63714
                   2.00000   2.00000   2.00000   2.00000   2.00000   2.00000
                  --------  --------  --------  --------  --------  --------
 0 C  s              99.7       0.1       0.0       9.5      12.4      14.6
 0 C  pz              0.0       0.0       0.0       0.3       0.2       0.1
 0 C  px              0.0       0.2       0.1       1.7       0.9       0.8
 0 C  py              0.0       0.0       0.0       0.2       0.1       0.0
 1 C  s               0.0       1.0       0.1      20.0      10.9       0.8
 1 C  pz              0.0       0.2       0.1       0.3       0.1       0.3
 1 C  px              0.1       1.4       0.0       0.1       2.1       8.9
 1 C  py              0.0       0.4       0.4       0.2       0.2       0.1
 1 C  dxz             0.0       0.0       0.0       0.0       0.0       0.1
 1 C  dxy             0.0       0.0       0.0       0.0       0.0       0.1
 2 C  s               0.0      17.1       3.0       4.4       0.4       3.9
 2 C  pz              0.0       0.3       1.2       1.3       0.2       0.9
 2 C  px              0.0       4.3       4.1       3.4       4.0       0.2
 2 C  py              0.0       0.2      18.4       6.6       0.1       2.8
 2 C  dz2             0.0       0.5       0.0       0.0       0.0       0.0
 2 C  dyz             0.0       0.1       0.4       0.0       0.0       0.0
 2 C  dx2y2           0.0       0.0       1.4       0.1       0.0       0.0
 2 C  dxy             0.0       0.5       0.2       0.0       0.2       0.0
 3 O  s               0.0      14.9      40.3       2.0       0.0       0.7
 3 O  pz              0.0       0.3       0.3       0.1       0.0       0.2
 3 O  px              0.0       0.1       0.0       0.1       0.2       0.0
 3 O  py              0.0       2.9       2.8       0.6       0.0       0.6
 3 O  dz2             0.0       0.3       0.0       0.1       0.0       0.0
 3 O  dyz             0.0       0.2       0.0       0.2       0.0       0.2
 3 O  dx2y2           0.0       0.5       0.1       0.4       0.1       0.5
 3 O  dxy             0.0       0.4       0.2       0.2       0.2       0.0
 4 O  s               0.0      39.1      19.2       0.0       1.2       0.9
 4 O  pz              0.0       0.1       0.0       0.4       0.0       1.0
 4 O  px              0.0       0.6       0.6      11.4       5.3      11.3
 4 O  py              0.0       2.2       0.3       0.1       0.1       0.0
 4 O  dz2             0.0       0.4       0.1       0.0       0.3       0.2
 4 O  dxz             0.0       0.0       0.1       0.0       0.1       0.1
 4 O  dx2y2           0.0       0.1       0.2       0.1       1.1       0.8
 4 O  dxy             0.0       0.3       0.9       0.4       0.6       0.2
 5 C  s               0.0       3.9       2.0       9.9      12.8       0.7
 5 C  pz              0.0       0.3       0.2       0.3       0.6       1.1
 5 C  px              0.0       4.3       1.2       0.4       2.7       6.1
 5 C  py              0.0       0.5       0.7       0.2       0.1       0.1
 5 C  dxz             0.0       0.1       0.0       0.0       0.1       0.2
 5 C  dx2y2           0.0       0.1       0.1       0.0       0.0       0.0
 5 C  dxy             0.0       0.1       0.1       0.0       0.0       0.2
 6 C  s               0.0       0.3       0.2       6.4      17.2      14.8
 6 C  pz              0.0       0.1       0.1       0.4       0.6       0.2
 6 C  px              0.0       0.5       0.3       0.7       0.6       0.8
 6 C  py              0.0       0.0       0.0       0.1       0.1       0.0
 7 H  s               0.0       0.0       0.0       1.3       2.0       3.6
 7 H  py              0.0       0.0       0.0       0.1       0.2       0.3
 8 H  s               0.0       0.0       0.0       1.3       2.0       3.9
 8 H  px              0.0       0.0       0.0       0.1       0.1       0.2
 9 H  s               0.0       0.0       0.0       1.3       1.9       3.6
 9 H  pz              0.0       0.0       0.0       0.1       0.2       0.3
10 H  s               0.0       0.0       0.0       2.9       1.9       0.3
10 H  pz              0.0       0.0       0.0       0.3       0.2       0.0
11 H  s               0.0       0.1       0.0       3.2       1.5       0.4
11 H  py              0.0       0.0       0.0       0.3       0.1       0.0
12 H  s               0.0       0.3       0.1       1.4       1.9       0.1
12 H  py              0.0       0.0       0.0       0.1       0.2       0.0
13 H  s               0.0       0.2       0.1       1.5       2.2       0.2
13 H  pz              0.0       0.0       0.0       0.1       0.2       0.0
14 H  s               0.0       0.0       0.0       0.9       2.7       3.7
14 H  pz              0.0       0.0       0.0       0.1       0.2       0.3
15 H  s               0.0       0.0       0.0       0.9       2.9       4.3
15 H  px              0.0       0.0       0.0       0.1       0.2       0.3
16 H  s               0.0       0.0       0.0       0.9       2.8       3.5
16 H  py              0.0       0.0       0.0       0.1       0.2       0.3

                     12        13        14        15        16        17   
                  -0.58259  -0.52727  -0.47280  -0.46333  -0.43979  -0.42042
                   2.00000   2.00000   2.00000   2.00000   2.00000   2.00000
                  --------  --------  --------  --------  --------  --------
 0 C  s              10.3       0.7       0.0       0.0       0.2       0.0
 0 C  pz              0.8       0.4       2.8       0.5       0.3      10.2
 0 C  px              3.8       0.8       0.3       0.0       0.8       2.2
 0 C  py              0.4       0.1       3.0       1.5       4.9       1.3
 1 C  s               7.7       1.4       1.9       0.1       0.8       0.0
 1 C  pz              1.2       0.9       8.1       2.2       0.2      17.0
 1 C  px              2.7       0.1       2.6       0.0       3.5       0.8
 1 C  py              0.3       0.4       8.4       7.6       4.4       2.4
 1 C  dyz             0.0       0.0       0.1       0.0       0.0       0.0
 1 C  dxy             0.0       0.0       0.1       0.0       0.0       0.0
 2 C  s               0.2       2.7       2.6       1.2       0.4       0.0
 2 C  pz              0.5       0.3       1.2       7.6       9.1       1.5
 2 C  px              5.2       2.7      10.3       0.2       0.9       1.6
 2 C  py              0.1       0.6       0.6       4.3       3.4       1.0
 2 C  dx2y2           0.0       0.0       0.0       0.1       0.0       0.0
 2 C  dxy             0.3       0.0       0.0       0.1       0.1       0.1
 3 O  s               0.0       2.7       3.6       6.0       5.4       0.1
 3 O  pz              0.1       0.0       0.2      10.3       0.3       2.2
 3 O  px              0.2       1.9       6.8       0.0       2.6       0.5
 3 O  py              0.0       3.0      11.1       8.9      22.4       0.2
 3 O  dz2             0.0       0.2       0.1       0.0       0.1       0.1
 3 O  dyz             0.0       0.0       0.0       0.7       0.3       0.1
 3 O  dx2y2           0.0       0.0       0.4       0.1       0.2       0.0
 3 O  dxy             0.1       0.2       0.6       0.0       0.2       0.1
 4 O  s               0.6       5.3       0.2       0.3       0.8       0.0
 4 O  pz              0.7       1.1       2.3       7.9      12.8       1.1
 4 O  px              6.3      13.4       0.7       4.4       1.3       0.8
 4 O  py              0.1       9.5       5.0       8.5       5.0       0.1
 4 O  dz2             0.1       0.1       0.0       0.1       0.0       0.3
 4 O  dxz             0.9       0.2       0.0       0.0       0.4       0.9
 4 O  dyz             0.0       0.1       0.0       0.3       0.2       0.0
 4 O  dx2y2           0.3       0.0       1.1       0.1       0.2       0.0
 4 O  dxy             0.5       0.3       0.5       0.1       0.2       0.8
 5 C  s               6.4       5.8       0.1       0.1       0.7       0.0
 5 C  pz              2.5       5.4       1.7       9.1       0.1       9.0
 5 C  px              1.0       2.3       0.2       1.6       3.9       0.8
 5 C  py              0.3      12.1       6.2       1.4       0.6       5.4
 5 C  dyz             0.0       0.1       0.0       0.0       0.0       0.0
 5 C  dxy             0.0       0.3       0.0       0.0       0.0       0.0
 6 C  s               7.8       0.6       0.0       0.0       0.3       0.0
 6 C  pz              1.8       2.3       0.8       1.7       1.8       3.8
 6 C  px              2.0       0.0       0.0       1.5       1.7       2.9
 6 C  py              0.3       2.6       1.1       0.5       1.1       4.6
 7 H  s               3.5       0.3       0.6       0.5       2.3       1.1
 7 H  py              0.3       0.0       0.0       0.0       0.1       0.1
 8 H  s               3.9       0.3       0.8       0.0       0.0       1.5
 8 H  px              0.1       0.0       0.0       0.0       0.0       0.0
 9 H  s               3.8       0.5       0.5       0.2       0.1       3.3
 9 H  pz              0.3       0.0       0.0       0.0       0.0       0.1
10 H  s               3.4       1.1       4.6       0.6       0.0       6.4
10 H  pz              0.3       0.1       0.2       0.0       0.0       0.2
11 H  s               2.6       0.7       3.4       3.5       2.2       2.2
11 H  py              0.2       0.0       0.1       0.1       0.1       0.1
12 H  s               2.2       8.6       2.0       0.2       0.8       2.3
12 H  py              0.2       0.5       0.0       0.0       0.0       0.1
13 H  s               3.1       4.3       1.5       3.8       0.2       4.7
13 H  pz              0.2       0.2       0.1       0.1       0.0       0.1
13 H  py              0.0       0.2       0.0       0.0       0.0       0.0
14 H  s               3.0       0.6       0.5       0.6       0.5       2.3
14 H  pz              0.2       0.0       0.0       0.0       0.0       0.1
15 H  s               2.9       0.0       0.1       0.5       0.2       0.7
15 H  px              0.1       0.0       0.0       0.0       0.0       0.0
16 H  s               2.8       1.3       0.2       0.3       1.0       2.0
16 H  py              0.2       0.1       0.0       0.0       0.0       0.1

                     18        19        20        21        22        23   
                  -0.39530  -0.36833  -0.36134  -0.34878  -0.33320  -0.32442
                   2.00000   2.00000   2.00000   2.00000   2.00000   2.00000
                  --------  --------  --------  --------  --------  --------
 0 C  s               0.1       0.0       0.0       0.2       0.3       0.1
 0 C  pz              2.7       7.8       4.5       2.3       9.6       1.7
 0 C  px              4.3       3.2       3.0      15.9       2.5      12.3
 0 C  py             10.8       0.7       0.7       0.6      21.5       1.5
 0 C  dxz             0.1       0.0       0.0       0.1       0.0       0.2
 0 C  dx2y2           0.0       0.0       0.0       0.0       0.5       0.0
 0 C  dxy             0.0       0.0       0.0       0.1       0.0       0.2
 1 C  s               0.2       0.2       0.1       0.3       0.2       0.0
 1 C  pz              0.5       1.0       0.8       1.5       7.1       0.1
 1 C  px              0.4       0.4       0.3      10.3       6.8       6.6
 1 C  py              9.3       0.3       0.0       0.8       7.1       0.1
 1 C  dz2             0.0       0.0       0.0       0.0       0.1       0.0
 1 C  dxz             0.0       0.0       0.1       0.0       0.0       0.2
 1 C  dx2y2           0.0       0.0       0.0       0.0       0.4       0.0
 1 C  dxy             0.0       0.0       0.0       0.2       0.0       0.2
 2 C  s               0.3       0.0       0.2       0.2       0.1       0.5
 2 C  pz              2.5       2.7       2.8       2.2       1.1       0.3
 2 C  px              0.8       0.5       0.0       1.7       0.6       3.6
 2 C  py              2.4       1.2       1.2       0.0       0.5       2.2
 2 C  dxz             0.1       0.0       0.0       0.1       0.0       0.0
 2 C  dyz             0.0       0.1       0.1       0.0       0.2       0.1
 2 C  dx2y2           0.3       0.2       0.0       0.2       0.1       0.2
 2 C  dxy             0.0       0.2       0.0       0.0       0.1       0.0
 3 O  s               0.5       0.4       0.0       0.0       0.1       0.2
 3 O  pz              6.7       0.9       7.7       4.8       3.0       6.2
 3 O  px              0.9       1.6       0.0       0.3       0.9       3.3
 3 O  py              2.8       7.4       0.5       0.2       2.7       0.3
 3 O  dz2             0.3       0.0       0.0       0.1       0.0       0.0
 3 O  dxz             0.1       0.0       0.0       0.0       0.0       0.0
 3 O  dyz             0.1       0.1       0.1       0.0       0.1       0.0
 4 O  s               0.1       1.9       0.8       0.0       0.1       0.3
 4 O  pz             10.3       0.0       0.2       3.0       0.1       0.0
 4 O  px              0.0       0.1       1.9       0.6       0.5       2.7
 4 O  py              0.9      13.9       0.1       1.6       0.1       5.8
 4 O  dz2             0.2       0.0       0.1       0.1       0.0       0.2
 4 O  dxz             0.1       0.3       0.5       0.7       0.0       0.0
 4 O  dyz             0.1       0.0       0.1       0.0       0.1       0.0
 4 O  dx2y2           0.2       0.0       0.8       0.0       0.0       0.2
 4 O  dxy             0.2       0.1       0.0       0.1       0.0       0.1
 5 C  s               0.2       0.0       0.3       0.1       0.0       0.1
 5 C  pz              0.3       1.5       1.0       6.6       1.5       3.5
 5 C  px              4.9       3.2       1.3       4.6       0.1       2.9
 5 C  py              3.4       0.3       0.2       0.5       0.3       1.3
 5 C  dz2             0.1       0.0       0.1       0.0       0.0       0.3
 5 C  dxz             0.0       0.1       0.1       0.0       0.0       0.0
 5 C  dxy             0.1       0.1       0.1       0.1       0.0       0.0
 6 C  s               0.2       0.0       0.0       0.2       0.0       0.0
 6 C  pz              6.5       0.5       4.3      19.0       2.2       6.3
 6 C  px              3.9       0.0      28.8       1.2       0.0       4.2
 6 C  py              2.0      25.1       5.4       0.3       0.4       3.3
 6 C  dz2             0.0       0.0       0.1       0.1       0.0       0.4
 6 C  dxz             0.1       0.0       0.1       0.1       0.0       0.0
 6 C  dx2y2           0.0       0.2       0.1       0.0       0.0       0.0
 6 C  dxy             0.0       0.0       0.2       0.0       0.0       0.0
 7 H  s               3.5       0.0       0.8       0.1       9.9       0.4
 7 H  pz              0.0       0.1       0.0       0.0       0.2       0.0
 7 H  px              0.1       0.0       0.0       0.1       0.0       0.1
 7 H  py              0.1       0.0       0.0       0.0       0.1       0.0
 8 H  s               2.8       4.3       1.8       3.9       3.8       8.8
 8 H  pz              0.1       0.0       0.0       0.1       0.0       0.0
 8 H  px              0.0       0.1       0.0       0.0       0.3       0.0
 9 H  s               2.4       2.9       2.2       1.6       2.8       0.8
 9 H  px              0.0       0.0       0.0       0.1       0.0       0.1
 9 H  py              0.0       0.0       0.0       0.0       0.3       0.0
10 H  s               0.9       0.1       0.2       0.3       3.7       0.2
10 H  px              0.0       0.0       0.0       0.1       0.1       0.1
10 H  py              0.0       0.0       0.0       0.0       0.1       0.0
11 H  s               3.2       0.0       0.0       0.4       4.3       0.0
11 H  pz              0.0       0.0       0.0       0.0       0.1       0.0
12 H  s               1.0       0.0       0.0       0.4       0.2       0.8
13 H  s               0.4       0.5       0.0       1.9       0.7       4.4
13 H  px              0.1       0.0       0.0       0.1       0.0       0.0
14 H  s               3.1       0.2       2.5       8.6       0.8       7.1
14 H  px              0.1       0.0       0.1       0.1       0.0       0.0
14 H  py              0.0       0.1       0.1       0.0       0.0       0.0
15 H  s               1.4       2.2      20.1       0.0       0.4       2.0
15 H  pz              0.1       0.0       0.0       0.1       0.0       0.0
15 H  px              0.0       0.1       0.2       0.0       0.0       0.0
16 H  s               0.3      12.1       1.9       0.1       0.2       2.3
16 H  pz              0.0       0.0       0.0       0.2       0.0       0.0
16 H  px              0.0       0.0       0.2       0.0       0.0       0.0
16 H  py              0.0       0.2       0.0       0.0       0.0       0.0

                     24        25        26        27        28        29   
                  -0.31507  -0.30598  -0.27632  -0.25236  -0.02023   0.08109
                   2.00000   2.00000   2.00000   2.00000   0.00000   0.00000
                  --------  --------  --------  --------  --------  --------
 0 C  s               0.0       0.0       0.0       0.1       0.6       4.7
 0 C  pz             10.4       2.3       0.2       0.4       0.1       0.4
 0 C  px              0.0       0.7       0.0       0.2       0.5       2.8
 0 C  py              9.4       0.8       0.0       0.0       0.2       0.3
 0 C  dz2             0.5       0.1       0.0       0.0       0.0       0.0
 0 C  dxz             0.0       0.0       0.0       0.0       0.0       0.2
 0 C  dx2y2           0.1       0.0       0.0       0.0       0.0       0.2
 1 C  s               0.0       0.0       0.0       0.5       0.2      13.2
 1 C  pz              8.7       3.5       0.1       2.2       0.0       0.2
 1 C  px              0.0       1.0       0.0       2.9       0.1       1.5
 1 C  py              7.4       0.9       0.5       3.7       0.0       0.1
 1 C  dz2             0.5       0.2       0.0       0.0       1.2       0.0
 1 C  dxz             0.0       0.0       0.0       0.0       0.6       0.0
 1 C  dx2y2           0.1       0.0       0.0       0.1       0.0       0.0
 1 C  dxy             0.1       0.0       0.0       0.0       0.0       0.0
 2 C  s               0.1       0.3       0.0       0.4       0.1      14.9
 2 C  pz              0.1       0.7       0.0       0.2      36.1       0.2
 2 C  px              0.1       0.3       0.0       1.3       1.4       0.8
 2 C  py              0.7       1.0       0.0       0.6       4.4       1.2
 2 C  dz2             0.1       0.1       0.1       0.1       0.2       1.3
 2 C  dxz             0.1       0.0       0.6       0.2       0.2       0.2
 2 C  dyz             0.0       0.2       0.8       0.2       0.4       0.7
 2 C  dx2y2           0.2       0.1       0.2       0.0       0.0       0.0
 2 C  dxy             0.0       0.1       0.0       3.5       0.1       0.0
 3 O  s               0.1       0.3       0.0       0.0       0.0       3.4
 3 O  pz              6.4       3.2      17.6       4.0      18.6       0.1
 3 O  px              0.1       0.0       3.7      64.1       0.8       0.3
 3 O  py              0.3       5.1       2.3       0.0       2.4       0.5
 3 O  dz2             0.0       0.0       0.0       0.0       1.8       1.6
 3 O  dxz             0.0       0.0       0.1       0.0       0.0       0.3
 3 O  dyz             0.0       0.0       0.1       0.1       4.6       0.6
 3 O  dx2y2           0.3       0.3       0.0       0.1       0.9       0.1
 3 O  dxy             0.0       0.2       0.0       0.7       0.3       0.0
 4 O  s               0.2       1.9       0.0       0.4       0.0       5.8
 4 O  pz              1.4       5.2      35.6       1.2       9.2       0.0
 4 O  px              0.1       0.2       0.9       3.1       0.3       0.2
 4 O  py              2.6      16.8       6.6       3.1       0.9       1.0
 4 O  dz2             0.1       0.0       0.7       0.1       0.0       1.8
 4 O  dxz             0.0       0.1       0.4       0.0       4.6       0.4
 4 O  dyz             0.0       0.4       0.2       0.1       0.6       1.2
 4 O  dx2y2           0.4       1.5       0.0       0.0       0.5       1.2
 4 O  dxy             0.3       0.0       0.0       0.4       0.2       0.3
 5 C  s               0.1       0.4       0.0       0.2       0.0       3.7
 5 C  pz              0.5       0.5       7.5       0.0       0.0       1.2
 5 C  px              0.6       0.2       0.2       0.5       0.0       9.1
 5 C  py              3.2      13.7       1.2       1.1       0.0       2.3
 5 C  dz2             0.0       0.1       0.5       0.0       0.1       0.1
 5 C  dxz             0.0       0.0       0.6       0.0       0.2       0.1
 5 C  dyz             0.0       0.0       0.0       0.0       0.0       0.1
 5 C  dx2y2           0.2       0.8       0.0       0.0       0.0       0.5
 5 C  dxy             0.0       0.0       0.0       0.0       0.0       0.4
 6 C  s               0.1       0.3       0.3       0.0       0.1       2.3
 6 C  pz              0.2       0.2       3.0       0.0       0.1       0.4
 6 C  px              1.4       1.6       1.7       0.3       0.1       1.2
 6 C  py              2.6       7.7       0.1       0.3       0.1       0.1
 6 C  dz2             0.0       0.1       0.1       0.0       0.0       0.2
 6 C  dxz             0.0       0.0       0.0       0.0       0.0       0.1
 6 C  dyz             0.0       0.0       0.0       0.0       0.0       0.1
 6 C  dx2y2           0.0       0.2       0.0       0.0       0.0       0.1
 6 C  dxy             0.0       0.0       0.0       0.0       0.0       0.1
 7 H  s               8.5       1.1       0.1       0.0       0.0       1.0
 7 H  py              0.1       0.0       0.0       0.0       0.0       0.3
 8 H  s               0.0       0.5       0.0       0.3       0.1       0.6
 8 H  pz              0.1       0.0       0.0       0.0       0.0       0.2
 8 H  py              0.1       0.0       0.0       0.0       0.0       0.2
 9 H  s               9.3       2.2       0.2       0.2       0.1       0.8
 9 H  pz              0.1       0.0       0.0       0.0       0.0       0.2
 9 H  px              0.0       0.0       0.0       0.0       0.0       0.2
10 H  s               8.2       2.7       0.2       0.5       3.9       1.9
10 H  pz              0.1       0.0       0.0       0.0       0.1       0.8
10 H  px              0.0       0.0       0.0       0.0       0.1       0.0
11 H  s               8.2       1.6       0.2       0.9       1.3       1.2
11 H  py              0.1       0.0       0.0       0.0       0.0       0.7
12 H  s               2.7      11.0       1.8       0.2       0.0       1.1
12 H  pz              0.0       0.0       0.1       0.0       0.0       0.1
12 H  px              0.0       0.0       0.0       0.1       0.0       0.5
12 H  py              0.0       0.1       0.0       0.1       0.0       0.3
13 H  s               0.0       0.4       8.4       0.1       0.8       1.1
13 H  pz              0.0       0.0       0.0       0.0       0.0       0.3
13 H  px              0.0       0.0       0.0       0.0       0.0       0.2
13 H  py              0.0       0.1       0.0       0.0       0.0       0.4
14 H  s               0.1       0.8       1.6       0.0       0.0       0.3
14 H  px              0.0       0.0       0.0       0.0       0.0       0.1
15 H  s               0.0       0.1       0.3       0.4       0.1       1.9
15 H  px              0.0       0.0       0.0       0.0       0.0       0.2
16 H  s               1.8       5.5       0.5       0.4       0.0       0.2

                     30        31        32        33        34        35   
                   0.10221   0.12004   0.13653   0.13896   0.15399   0.16984
                   0.00000   0.00000   0.00000   0.00000   0.00000   0.00000
                  --------  --------  --------  --------  --------  --------
 0 C  s               7.1      15.0       4.4       4.3       1.5       0.6
 0 C  pz              0.3       0.1       0.4       4.0       0.7       0.3
 0 C  px              1.7       2.4       1.0       9.2       3.7      10.2
 0 C  py              0.0       0.1       0.2       3.3       3.1       4.7
 0 C  dz2             0.1       0.0       0.0       0.0       0.2       0.4
 0 C  dxz             0.0       0.0       0.0       0.8       0.1       0.2
 0 C  dx2y2           0.1       0.0       0.1       0.0       0.5       0.3
 0 C  dxy             0.0       0.0       0.0       0.7       0.1       0.5
 1 C  s               0.7       1.7       2.2       9.7       0.2       2.0
 1 C  pz              0.9       0.1       0.9       4.4       1.6       7.3
 1 C  px              0.8       3.8       1.1      10.3       0.1       3.9
 1 C  py              0.6       0.6       0.2       3.8       7.4      12.1
 1 C  dz2             0.1       0.0       0.1       0.1       0.1       0.8
 1 C  dxz             0.0       0.1       0.0       0.5       0.0       0.1
 1 C  dyz             0.1       0.0       0.0       0.0       0.1       0.8
 1 C  dx2y2           0.8       0.4       0.0       0.1       0.6       0.0
 1 C  dxy             0.1       0.1       0.1       0.6       0.4       0.1
 2 C  s               1.0       0.2       0.2       0.9       1.8       2.2
 2 C  pz              0.0       2.6       2.5       2.0       1.7       9.5
 2 C  px              0.9       3.3       0.8       0.3       0.2       0.8
 2 C  py              2.9       0.7       0.2       2.3       7.1       0.4
 2 C  dz2             0.0       0.0       0.0       0.0       0.3       0.0
 2 C  dxz             0.0       0.0       0.0       0.0       0.1       0.0
 2 C  dyz             0.2       0.0       0.0       0.0       0.0       0.0
 2 C  dx2y2           1.3       0.1       0.0       0.1       0.0       0.0
 3 O  s               0.7       0.3       0.1       0.1       1.4       0.2
 3 O  pz              0.3       0.1       1.0       0.0       0.0       1.1
 3 O  px              0.5       1.0       0.8       0.3       0.1       0.7
 3 O  py              0.5       0.0       0.0       0.2       1.2       0.2
 3 O  dz2             0.3       0.1       0.1       0.0       0.0       0.2
 3 O  dxz             0.0       0.4       0.9       0.2       0.3       0.0
 3 O  dyz             0.1       0.0       0.0       0.1       0.3       0.2
 3 O  dxy             0.3       0.0       0.0       0.0       0.0       0.9
 4 O  s               5.7       0.6       0.1       0.2       0.1       0.4
 4 O  pz              1.2       1.0       0.1       1.0       0.3       0.0
[...]
 3 O  py              0.0       0.1       0.5       0.8       0.4      19.6
 3 O  dz2             0.0       0.1       1.4       0.2       0.2       4.0
 3 O  dxz             0.0       0.0       1.2       0.0       0.4       0.1
 3 O  dyz             0.0       0.1       0.6       0.3       0.3       8.9
 3 O  dx2y2           0.1       0.0       1.7       1.4       0.0      20.6
 3 O  dxy             0.9       0.3      19.1       0.3       1.4       0.3
 4 O  s               0.0       0.0       3.7      25.0       6.1       0.9
 4 O  pz              0.1       0.0       0.5       1.4       0.2       0.1
 4 O  px              0.1       0.0       0.3       6.6      28.4       0.6
 4 O  py              0.1       0.1       6.8       6.4       2.1       0.2
 4 O  dz2             0.0       0.1       0.8       8.9       3.5       0.5
 4 O  dxz             0.2       0.2       0.4       3.3       0.6       0.4
 4 O  dyz             0.1       0.1       1.4       1.1       0.1       0.1
 4 O  dx2y2           0.3       1.0       7.6      10.5       1.6       0.6
 4 O  dxy             0.0       0.0       0.7       1.7      24.2       0.7
 5 C  s               0.1       0.0       0.0       1.4       0.4       0.1
 5 C  pz              0.2       1.3       0.0       1.2       0.1       0.0
 5 C  px              0.2       1.3       0.1       5.8       1.2       0.3
 5 C  py              1.4       7.1       0.1       1.0       0.7       0.1
 5 C  dz2             1.4      11.4       0.1       2.9       0.1       0.0
 5 C  dxz             0.0       0.1       0.0       1.3       0.4       0.1
 5 C  dyz             0.1       0.5       0.2       1.1       0.1       0.0
 5 C  dx2y2           0.9       5.9       1.5       3.1       1.3       0.2
 5 C  dxy             0.1       0.2       0.8       4.8       1.1       0.4
 6 C  s               0.0       0.1       0.1       0.0       0.0       0.0
 6 C  pz              0.0       0.1       0.1       0.1       0.0       0.0
 6 C  px              0.0       0.0       0.3       0.1       0.0       0.0
 6 C  py              0.4       1.8       0.3       0.0       0.0       0.0
 6 C  dz2             0.5       1.6       1.7       0.2       0.0       0.0
 6 C  dxz             0.0       0.1       0.0       0.1       0.0       0.0
 6 C  dx2y2           0.8       4.4       0.2       0.1       0.0       0.0
 6 C  dxy             0.0       0.0       0.1       0.2       0.0       0.0
 7 H  s               4.0       0.4       0.1       0.0       0.0       0.0
 7 H  pz              0.4       0.0       0.0       0.0       0.0       0.0
 7 H  px              0.4       0.1       0.0       0.0       0.0       0.0
 7 H  py              9.4       1.0       0.2       0.0       0.0       0.0
 8 H  s               1.0       0.3       0.2       0.0       0.0       0.0
 8 H  pz              0.2       0.1       0.1       0.0       0.0       0.0
 8 H  px              1.4       0.4       0.5       0.0       0.0       0.0
 8 H  py              0.5       0.2       0.2       0.0       0.0       0.0
 9 H  s               0.2       0.0       0.1       0.0       0.0       0.0
 9 H  pz              0.7       0.1       0.2       0.0       0.0       0.0
10 H  s               3.1       0.6       0.1       0.0       0.0       0.0
10 H  pz              7.1       1.2       0.3       0.0       0.0       0.0
10 H  px              0.1       0.0       0.0       0.0       0.0       0.0
11 H  s               5.0       1.2       0.4       0.0       0.1       0.0
11 H  pz              0.1       0.0       0.1       0.0       0.1       0.0
11 H  px              0.3       0.2       0.1       0.0       0.0       0.0
11 H  py             11.9       2.7       0.9       0.0       0.0       0.0
12 H  s               1.1       6.6       0.1       0.2       0.2       0.0
12 H  pz              0.0       0.1       0.1       0.0       0.0       0.0
12 H  px              0.0       0.1       1.4       0.3       0.1       0.0
12 H  py              2.7      16.4       0.2       0.2       0.3       0.0
13 H  s               0.5       3.7       0.0       0.7       0.0       0.0
13 H  pz              1.2       8.1       0.2       1.0       0.0       0.0
13 H  px              0.0       0.0       0.0       0.2       0.0       0.0
13 H  py              0.0       0.3       0.0       0.5       0.0       0.0
14 H  s               0.1       0.2       0.4       0.0       0.0       0.0
14 H  pz              0.2       0.6       0.7       0.0       0.0       0.0
14 H  py              0.0       0.0       0.1       0.0       0.0       0.0
15 H  s               0.1       0.3       0.1       0.1       0.0       0.0
15 H  px              0.1       0.4       0.1       0.2       0.0       0.0
15 H  py              0.0       0.2       0.1       0.0       0.0       0.0
16 H  s               0.4       1.9       0.4       0.0       0.0       0.0
16 H  px              0.0       0.3       0.0       0.0       0.0       0.0
16 H  py              1.0       5.1       0.8       0.0       0.0       0.0

                    186       187       188       189       190       191   
                  21.90654  21.92400  21.99161  22.04017  22.23937  43.63817
                   0.00000   0.00000   0.00000   0.00000   0.00000   0.00000
                  --------  --------  --------  --------  --------  --------
 0 C  s               0.6      76.4      18.9       3.7       0.0       0.0
 1 C  s               4.8      21.5      46.1      25.6       1.6       0.0
 2 C  s               0.0       0.5       0.2       1.7      96.6       0.0
 3 O  s               0.0       0.0       0.0       0.0       0.2      85.6
 3 O  py              0.0       0.0       0.0       0.0       0.1       0.0
 4 O  s               0.0       0.0       0.0       0.1       0.1      14.3
 4 O  px              0.0       0.0       0.0       0.0       0.1       0.0
 5 C  s              11.0       0.7      21.2      65.9       0.8       0.0
 6 C  s              83.2       0.4      13.5       2.6       0.0       0.0

                    192   
                  43.73489
                   0.00000
                  --------
 3 O  s              14.3
 4 O  s              85.6


                      *****************************
                      * MAYER POPULATION ANALYSIS *
                      *****************************

  NA   - Mulliken gross atomic population
  ZA   - Total nuclear charge
  QA   - Mulliken gross atomic charge
  VA   - Mayer's total valence
  BVA  - Mayer's bonded valence
  FA   - Mayer's free valence

  ATOM       NA         ZA         QA         VA         BVA        FA
  0 C      6.5078     6.0000    -0.5078     3.8250     3.8250     0.0000
  1 C      6.2790     6.0000    -0.2790     3.7128     3.7128    -0.0000
  2 C      5.5782     6.0000     0.4218     3.8237     3.8237    -0.0000
  3 O      8.5227     8.0000    -0.5227     1.8873     1.8873     0.0000
  4 O      8.1894     8.0000    -0.1894     1.9426     1.9426    -0.0000
  5 C      6.1492     6.0000    -0.1492     3.6047     3.6047    -0.0000
  6 C      6.4869     6.0000    -0.4869     3.8483     3.8483     0.0000
  7 H      0.8382     1.0000     0.1618     0.9592     0.9592     0.0000
  8 H      0.8328     1.0000     0.1672     0.9568     0.9568     0.0000
  9 H      0.8354     1.0000     0.1646     0.9583     0.9583     0.0000
 10 H      0.8037     1.0000     0.1963     0.9468     0.9468    -0.0000
 11 H      0.8210     1.0000     0.1790     0.9559     0.9559     0.0000
 12 H      0.8214     1.0000     0.1786     0.9532     0.9532    -0.0000
 13 H      0.8314     1.0000     0.1686     0.9463     0.9463     0.0000
 14 H      0.8358     1.0000     0.1642     0.9568     0.9568     0.0000
 15 H      0.8320     1.0000     0.1680     0.9588     0.9588     0.0000
 16 H      0.8351     1.0000     0.1649     0.9568     0.9568     0.0000

  Mayer bond orders larger than 0.100000
B(  0-C ,  1-C ) :   0.8956 B(  0-C ,  7-H ) :   0.9714 B(  0-C ,  8-H ) :   0.9677 
B(  0-C ,  9-H ) :   0.9780 B(  1-C ,  2-C ) :   0.9912 B(  1-C , 10-H ) :   0.9168 
B(  1-C , 11-H ) :   0.9599 B(  2-C ,  3-O ) :   1.7651 B(  2-C ,  4-O ) :   1.1125 
B(  4-O ,  5-C ) :   0.7660 B(  5-C ,  6-C ) :   0.9453 B(  5-C , 12-H ) :   0.9622 
B(  5-C , 13-H ) :   0.9400 B(  6-C , 14-H ) :   0.9713 B(  6-C , 15-H ) :   0.9612 
B(  6-C , 16-H ) :   0.9674 

-------
TIMINGS
-------

Total SCF time: 0 days 0 hours 0 min 22 sec 

Total time                  ....      22.394 sec
Sum of individual times     ....      21.854 sec  ( 97.6%)

SCF preparation             ....       0.305 sec  (  1.4%)
Fock matrix formation       ....      20.561 sec  ( 91.8%)
  Startup                   ....       0.076 sec  (  0.4% of F)
  Split-RI-J                ....       3.058 sec  ( 14.9% of F)
  XC integration            ....      13.233 sec  ( 64.4% of F)
    XC Preparation          ....       0.000 sec  (  0.0% of XC)
    Basis function eval.    ....       2.465 sec  ( 18.6% of XC)
    Density eval.           ....       3.693 sec  ( 27.9% of XC)
    XC-Functional eval.     ....       1.832 sec  ( 13.8% of XC)
    XC-Potential eval.      ....       4.277 sec  ( 32.3% of XC)
  CPCM terms                ....       3.598 sec  ( 17.5% of F)
Diagonalization             ....       0.000 sec  (  0.0%)
Density matrix formation    ....       0.287 sec  (  1.3%)
Total Energy calculation    ....       0.065 sec  (  0.3%)
Population analysis         ....       0.101 sec  (  0.5%)
Orbital Transformation      ....       0.058 sec  (  0.3%)
Orbital Orthonormalization  ....       0.000 sec  (  0.0%)
DIIS solution               ....       0.426 sec  (  1.9%)
  MO trafo                  ....       0.000 sec  (  0.0 % of DIIS)
  Orb grad                  ....       0.000 sec  (  0.0 % of DIIS)
  Energy W gradient         ....       0.000 sec  (  0.0 % of DIIS)
  DIIS error                ....       0.009 sec  (  2.1 % of DIIS)
  DIIS work                 ....       0.364 sec  ( 85.4 % of DIIS)
  Form Q                    ....       0.000 sec  (  0.0 % of DIIS)
  Form QpQm                 ....       0.000 sec  (  0.0 % of DIIS)
  Exp/Cayley                ....       0.000 sec  (  0.0 % of DIIS)
  Orb update                ....       0.000 sec  (  0.0 % of DIIS)
  Wake-sleep                ....       0.026 sec  (  6.1 % of DIIS)
SOSCF solution              ....       0.051 sec  (  0.2%)
  MO trafo                  ....       0.042 sec  ( 81.2 % of SOSCF)
  Orb grad                  ....       0.001 sec  (  1.1 % of SOSCF)
  Rot update                ....       0.000 sec  (  0.1 % of SOSCF)
  Step                      ....       0.009 sec  ( 17.5 % of SOSCF)
Finished LeanSCF after  22.5 sec

Maximum memory used throughout the entire LEANSCF-calculation: 23.7 MB


-------------------------------------------------------------------------------
                          DFT DISPERSION CORRECTION                            
                                                                               
                                DFTD4 V3.4.0                                   
-------------------------------------------------------------------------------
The R2SCAN3C composite method is recognized
Using three-body term ABC
Active option DFTDOPT                   ...         5   

-------------------------   ----------------
Dispersion correction           -0.003839712
-------------------------   ----------------

------------------   -----------------
gCP correction             0.010495886
------------------   -----------------

-------------------------   --------------------
FINAL SINGLE POINT ENERGY      -346.941037303849
-------------------------   --------------------


------------------------------------------------------------------------------
                              ORCA PROPERTY CALCULATIONS
------------------------------------------------------------------------------

GBWName                                 ... sp_solv.gbw
Number of atoms                         ...     17
Number of basis functions               ...    193
Max core memory                         ...   1024 MB

Electric properties:
Dipole moment                           ... YES
Quadrupole moment                       ...  NO
Static polarizability (Dipole/Dipole)   ...  NO
Static polarizability (Dipole/Quad.)    ...  NO
Static polarizability (Quad./Quad.)     ...  NO
Static polarizability (Velocity)        ...  NO

Atomic electric properties:
Dipole moment                           ...  NO
Quadrupole moment                       ...  NO
Static polarizability                   ...  NO

Choice of electric origin               ... Center of mass
Position of electric origin             ...     0.000000     0.000011     0.000006

General magnetic properties:
Magnetizability                         ...  NO

EPR properties:
g-Tensor (aka g-matrix)                 ...  NO
Zero-Field splitting spin-orbit         ...  NO
Zero-field splitting spin-spin          ...  NO
Hyperfine couplings                     ...  NO (   0 nuclei)
Quadrupole couplings                    ...  NO (   0 nuclei)
Contact density                         ...  NO (   0 nuclei)

NMR properties:
Chemical shifts                         ...  NO (   0 nuclei)
Spin-rotation constants                 ...  NO (   0 nuclei)
Spin-spin couplings                     ...  NO (   0 nuclei,    0 pairs)

Choice of magnetic origin               ... GIAO
Position of magnetic origin             ...     0.000000     0.000000     0.000000

Properties with geometric perturbations:
SCF Hessian                             ...  NO
IR spectrum                             ...  NO
VCD spectrum                            ...  NO
X-ray spectroscopy properties:
SCF XES/XAS/RIXS spectra                ...  NO


-------------
DIPOLE MOMENT
-------------

Method             : SCF
Type of density    : Electron Density
Multiplicity       :   1
Irrep              :   0
Energy             :  -346.9476934784453874 Eh
Relativity type    : 
Basis              : AO
                                X                 Y                 Z
Electronic contribution:     -0.083064483      -1.501128557      -1.071986032
Nuclear contribution   :      0.595699833       2.492813407       1.425752982
                        -----------------------------------------
Total Dipole Moment    :      0.512635350       0.991684850       0.353766951
                        -----------------------------------------
Magnitude (a.u.)       :      1.171061442
Magnitude (Debye)      :      2.976601631



--------------------
Rotational spectrum 
--------------------
 
Rotational constants in cm-1:             0.249802             0.042993             0.038727 
Rotational constants in MHz :          7488.888843          1288.907227          1161.018097 

Dipole components along the rotational axes: 
x,y,z [a.u.] :     0.550866     1.026988    -0.115009 
x,y,z [Debye]:     1.400190     2.610396    -0.292329 

 

Dipole moment calculation done in   0.0 sec 

Maximum memory used throughout the entire PROP-calculation: 11.3 MB

--------------------------------
SUGGESTED CITATIONS FOR THIS RUN
--------------------------------

Below you find a list of papers that are relevant to this ORCA run
We neither can nor want to force you to cite these papers, but we appreciate if you do
You receive ORCA, which is the product of decades of hard work by many enthusiastic individuals, for free
The only thing we kindly ask in return is that you cite our papers,
We deeply appreciate it, if you show your appreciation for ORCA by not just citing the generic ORCA reference.

Please note that relegating all ORCA citations to the supporting information does *not* help us.
SI sections are not indexed - citations you put there will not count into any citation statistics
But we need these citations in order to attract the funding resources that allow us to do what we are doing

Therefore, if you are a happy ORCA user, please consider citing a few of the papers listed below in the main body of your paper

In addition to the list printed below, the program has created the file sp_solv.bibtex that contains the list in bibtex format
You can import this file easily into all common literature databanks and citation aid programs


List of essential papers. We consider these as the minimum necessary citations

  1. Neese,F.
     Software update: the ORCA program system, version 5.0
     WIRES Comput. Molec. Sci., 2022 12(1)e1606
     doi.org/10.1002/wcms.1606
  2. Grimme,S.; Hansen,A.; Ehlert,S.; Mewes,J.
     r2SCAN-3c: A 'Swiss army knife' composite electronic-structure method
     J. Chem. Phys., 2021 154 064103
     doi.org/10.1063/5.0040021

List of papers to cite with high priority. The work reported in these papers was absolutely
necessary for this run to complete.
Our perspective: the developers of density functionals and basis sets usually get cited in chemistry papers
Good! But without the algorithms to do something with them, the functionals or basis sets would not do anything.
Hence, in our opinion, the algorithm design and method developments papers are equally worthy of getting cited

  1. Neese,F.
     An improvement of the resolution of the identity approximation for the formation of the Coulomb matrix
     J. Comp. Chem., 2003 24(14)1740-1747
     doi.org/10.1002/jcc.10318
  2. Garcia-Rates,M.; Neese,F.
     Effect of the Solute Cavity on the Solvation Energy and its Derivatives within the Framework of the Gaussian Charge Scheme
     J. Comput. Chem., 2020 41 922-939
     doi.org/10.1002/jcc.26139
  3. Neese,F.
     The SHARK Integral Generation and Digestion System
     J. Comp. Chem., 2022  1-16
     doi.org/10.1002/jcc.26942
  4. Lehtola,S.; Steigemann,C.; Oliveira,M.; Marques,M.
     Recent developments in Libxc - A comprehensive library of functionals for density functional theory
     Software X, 2018 7 
     doi.org/10.1016/j.softx.2017.11.002
  5. Caldeweyher,E.; Bannwarth,C.; Grimme,S.
     Extension of the D3 dispersion coefficient model
     J. Chem. Phys., 2017 147 034112-XXXX
     doi.org/10.1063/1.4993215
  6. Caldeweyher,E.; Ehlert,S.; Hansen,A.; Neugebauer,H.; Spicher,S.; Bannwarth,C.; Grimme,S.
     A generally applicable atomic-charge dependent London dispersion correction
     J. Chem. Phys., 2019 150 154122-XXXX
     doi.org/10.1063/1.5090222
  7. Caldeweyher,E.; Mewes,J.; Ehlert,S.; Grimme,S.
     Extension and evaluation of the D4 London-dispersion model for periodic systems
     Phys. Chem. Chem. Phys., 2020 22(16)8499-8512
     doi.org/10.1039/D0CP00502A

List of suggested additional citations. These are papers that are important in the 'surrounding' of 
of this run, or papers that preceded the highly important papers. If you like your results we are grateful for a citation.

  1. Neese,F.
     The ORCA program system
     WIRES Comput. Molec. Sci., 2012 2(1)73-78
     doi.org/10.1002/wcms.81
  2. Neese,F.
     Software update: the ORCA program system, version 4.0
     WIRES Comput. Molec. Sci., 2018 8(1)1-6
     doi.org/10.1002/wcms.1327
  3. Neese,F.; Wennmohs,F.; Becker,U.; Riplinger,C.
     The ORCA quantum chemistry program package
     J. Chem. Phys., 2020 152 Art. No. L224108
     doi.org/10.1063/5.0004608

List of optional additional citations

  1. Neese,F.
     Approximate second-order SCF convergence for spin unrestricted wavefunctions
     Chem. Phys. Lett., 2000 325(1-3)93-98
     doi.org/10.1016/s0009-2614(00)00662-x

Timings for individual modules:

Sum of individual times          ...       24.071 sec (=   0.401 min)
Startup calculation              ...        1.072 sec (=   0.018 min)   4.5 %
SCF iterations                   ...       22.894 sec (=   0.382 min)  95.1 %
Property calculations            ...        0.106 sec (=   0.002 min)   0.4 %
                             ****ORCA TERMINATED NORMALLY****
TOTAL RUN TIME: 0 days 0 hours 0 minutes 24 seconds 889 msec
