      -----------------------------------------------------------      
     |                   =====================                   |     
     |                           x T B                           |     
     |                   =====================                   |     
     |                         S. Grimme                         |     
     |          Mulliken Center for Theoretical Chemistry        |     
     |                    University of Bonn                     |     
      -----------------------------------------------------------      

   * xtb version 6.7.1 (edcfbbe) compiled by 'albert@albert-system' on 2024-07-22

   xtb is free software: you can redistribute it and/or modify it under
   the terms of the GNU Lesser General Public License as published by
   the Free Software Foundation, either version 3 of the License, or
   (at your option) any later version.
   
   xtb is distributed in the hope that it will be useful,
   but WITHOUT ANY WARRANTY; without even the implied warranty of
   MERCHANTABILITY or FITNESS FOR A PARTICULAR PURPOSE.  See the
   GNU Lesser General Public License for more details.
   
   Cite this work as:
   * C. Bannwarth, E. Caldeweyher, S. Ehlert, A. Hansen, P. Pracht,
     J. Seibert, S. Spicher, S. Grimme, WIREs Comput. Mol. Sci., 2020, 11,
     e01493. DOI: 10.1002/wcms.1493
   
   for GFN2-xTB:
   * C. Bannwarth, S. Ehlert and S. Grimme., J. Chem. Theory Comput., 2019,
     15, 1652-1671. DOI: 10.1021/acs.jctc.8b01176
   for GFN1-xTB:
   * S. Grimme, C. Bannwarth, P. Shushkov, J. Chem. Theory Comput., 2017,
     13, 1989-2009. DOI: 10.1021/acs.jctc.7b00118
   for GFN0-xTB:
   * P. Pracht, E. Caldeweyher, S. Ehlert, S. Grimme, ChemRxiv, 2019, preprint.
     DOI: 10.26434/chemrxiv.8326202.v1
   for GFN-FF:
   * S. Spicher and S. Grimme, Angew. Chem. Int. Ed., 2020, 59, 15665-15673.
     DOI: 10.1002/anie.202004239
   
   for ALPB and GBSA implicit solvation:
   * S. Ehlert, M. Stahn, S. Spicher, S. Grimme, J. Chem. Theory Comput.,
     2021, 17, 4250-4261. DOI: 10.1021/acs.jctc.1c00471
   
   for ddCOSMO and CPCM-X implicit solvation:
   * M. Stahn, S. Ehlert, S. Grimme, J. Phys. Chem. A,
     2023, XX, XXXX-XXXX. DOI: 10.1021/acs.jpca.3c04382
   
   for DFT-D4:
   * E. Caldeweyher, C. Bannwarth and S. Grimme, J. Chem. Phys., 2017,
     147, 034112. DOI: 10.1063/1.4993215
   * E. Caldeweyher, S. Ehlert, A. Hansen, H. Neugebauer, S. Spicher,
     C. Bannwarth and S. Grimme, J. Chem. Phys., 2019, 150, 154122.
     DOI: 10.1063/1.5090222
   * E. Caldeweyher, J.-M. Mewes, S. Ehlert and S. Grimme, Phys. Chem. Chem. Phys.
     2020, 22, 8499-8512. DOI: 10.1039/D0CP00502A
   
   for sTDA-xTB:
   * S. Grimme and C. Bannwarth, J. Chem. Phys., 2016, 145, 054103.
     DOI: 10.1063/1.4959605
   
   in the mass-spec context:
   * V. Asgeirsson, C. Bauer and S. Grimme, Chem. Sci., 2017, 8, 4879.
     DOI: 10.1039/c7sc00601b
   * J. Koopman and S. Grimme, ACS Omega 2019, 4, 12, 15120-15133.
     DOI: 10.1021/acsomega.9b02011
   
   for metadynamics refer to:
   * S. Grimme, J. Chem. Theory Comput., 2019, 155, 2847-2862
     DOI: 10.1021/acs.jctc.9b00143
   
   for SPH calculations refer to:
   * S. Spicher and S. Grimme, J. Chem. Theory Comput., 2021, 17, 1701-1714
     DOI: 10.1021/acs.jctc.0c01306
   
   for ONIOM refer to:
   * C. Plett, A. Katbashev, S. Ehlert, S. Grimme, M. Bursch,
     Phys. Chem. Chem. Phys., 2023, 25, 17860-17868. DOI: 10.1039/D3CP02178E
   
   for DIPRO refer to:
   * J. Kohn, N. Gildemeister, S. Grimme, D. Fazzi, A. Hansen,
     J. Chem. Phys., 2023, just accepted.
   
   for PTB refer to:
   * S. Grimme, M. Mueller, A. Hansen, J. Chem. Phys., 2023, 158, 124111.
     DOI: 10.1063/5.0137838
   
   with help from (in alphabetical order)
   P. Atkinson, C. Bannwarth, F. Bohle, G. Brandenburg, E. Caldeweyher
   M. Checinski, S. Dohm, S. Ehlert, S. Ehrlich, I. Gerasimov, C. Hölzer
   A. Katbashev, J. Kohn, J. Koopman, C. Lavigne, S. Lehtola, F. März, M. Müller,
   F. Musil, H. Neugebauer, J. Pisarek, C. Plett, P. Pracht, F. Pultar,
   J. Seibert, P. Shushkov, S. Spicher, M. Stahn, M. Steiner, T. Strunk,
   J. Stückrath, T. Rose, and J. Unsleber
   
 * started run on 2025/04/11 at 13:07:51.324     
   ID    Z sym.   atoms
    1    6 C      1, 3-8, 11
    2    8 O      2, 9, 10
    3   17 Cl     12, 13
    4    1 H      14-21

           -------------------------------------------------
          |                Calculation Setup                |
           -------------------------------------------------

          program call               : /srv/scratch/z5358697/.xtb/bin/xtb xtb_rrho.coord --gfn2 --ohess vtight --chrg 0 --enso --norestart -I rrho-xcontrol-inp --parallel 1 --alpb water
          hostname                   : k064
          coordinate file            : xtb_rrho.coord
          omp threads                :                     1


           -------------------------------------------------
          |                 G F N 2 - x T B                 |
           -------------------------------------------------

        Reference                      10.1021/acs.jctc.8b01176
      * Hamiltonian:
        H0-scaling (s, p, d)           1.850000    2.230000    2.230000
        zeta-weighting                 0.500000
      * Dispersion:
        s8                             2.700000
        a1                             0.520000
        a2                             5.000000
        s9                             5.000000
      * Repulsion:
        kExp                           1.500000    1.000000
        rExp                           1.000000
      * Coulomb:
        alpha                          2.000000
        third order                    shell-resolved
        anisotropic                    true
        a3                             3.000000
        a5                             4.000000
        cn-shift                       1.200000
        cn-exp                         4.000000
        max-rad                        5.000000

      * Solvation model:               ALPB
        Solvent                        water
        Parameter file                 internal GFN2-xTB/ALPB
        Dielectric constant                8.0200E+01
        Reference state                gsolv [1 M gas/solution]
        Free energy shift                  1.0808E-03 Eh       6.7819E-01 kcal/mol
        Temperature                        2.9815E+02 K
        Density                            1.0000E+00 kg/L
        Solvent mass                       1.8000E+01 g/mol
        Interaction kernel             P16
        Born radius scaling (c1)           1.4744E+00
        Born radii integrator          GBOBC
        Born offset                        0.0000E+00 a0       0.0000E+00 AA
        H-bond correction              true
        Ion screening                  false
        Surface tension                    1.0000E-05 Eh       1.5569E+01 dyn/cm
        Grid points                               974 per atom

          ...................................................
          :                      SETUP                      :
          :.................................................:
          :  # basis functions                  72          :
          :  # atomic orbitals                  70          :
          :  # shells                           36          :
          :  # electrons                        72          :
          :  max. iterations                   250          :
          :  Hamiltonian                  GFN2-xTB          :
          :  restarted?                      false          :
          :  GBSA solvation                   true          :
          :  PC potential                    false          :
          :  electronic temp.          300.0000000     K    :
          :  accuracy                    1.0000000          :
          :  -> integral cutoff          0.2500000E+02      :
          :  -> integral neglect         0.1000000E-07      :
          :  -> SCF convergence          0.1000000E-05 Eh   :
          :  -> wf. convergence          0.1000000E-03 e    :
          :  Broyden damping             0.4000000          :
          :  net charge                          0          :
          :  unpaired electrons                  0          :
          ...................................................

 iter      E             dE          RMSdq      gap      omega  full diag
   1    -42.8397658 -0.428398E+02  0.504E+00    4.24       0.0  T
   2    -42.8804409 -0.406751E-01  0.267E+00    3.91       1.0  T
   3    -42.8760677  0.437316E-02  0.105E+00    4.04       1.0  T
   4    -42.8832675 -0.719977E-02  0.377E-01    3.97       1.0  T
   5    -42.8842951 -0.102761E-02  0.110E-01    3.99       1.0  T
   6    -42.8843073 -0.121655E-04  0.599E-02    4.00       1.0  T
   7    -42.8843303 -0.230496E-04  0.341E-02    3.99       1.0  T
   8    -42.8843369 -0.651048E-05  0.206E-02    3.99       1.1  T
   9    -42.8843393 -0.245869E-05  0.119E-02    3.99       1.8  T
  10    -42.8843407 -0.139486E-05  0.443E-03    3.99       4.9  T
  11    -42.8843408 -0.940441E-07  0.237E-03    3.99       9.2  T
  12    -42.8843408 -0.178857E-07  0.116E-03    3.99      18.8  T
  13    -42.8843408 -0.975865E-08  0.746E-04    3.99      29.3  T
  14    -42.8843408 -0.338363E-08  0.454E-04    3.99      48.0  T

   *** convergence criteria satisfied after 14 iterations ***

         #    Occupation            Energy/Eh            Energy/eV
      -------------------------------------------------------------
         1        2.0000           -1.0700795             -29.1183
       ...           ...                  ...                  ...
        30        2.0000           -0.4415495             -12.0152
        31        2.0000           -0.4352142             -11.8428
        32        2.0000           -0.4336507             -11.8002
        33        2.0000           -0.4260841             -11.5943
        34        2.0000           -0.4168784             -11.3438
        35        2.0000           -0.4075316             -11.0895
        36        2.0000           -0.4066985             -11.0668 (HOMO)
        37                         -0.2599570              -7.0738 (LUMO)
        38                         -0.2516138              -6.8468
        39                         -0.1769288              -4.8145
        40                         -0.1477302              -4.0199
        41                         -0.1384007              -3.7661
       ...                                ...                  ...
        70                          0.5876157              15.9898
      -------------------------------------------------------------
                  HL-Gap            0.1467414 Eh            3.9930 eV
             Fermi-level           -0.3333277 Eh           -9.0703 eV

 SCC (total)                   0 d,  0 h,  0 min,  0.033 sec
 SCC setup                      ...        0 min,  0.003 sec (  9.913%)
 Dispersion                     ...        0 min,  0.000 sec (  0.891%)
 classical contributions        ...        0 min,  0.000 sec (  0.178%)
 integral evaluation            ...        0 min,  0.007 sec ( 21.303%)
 iterations                     ...        0 min,  0.013 sec ( 41.291%)
 molecular gradient             ...        0 min,  0.008 sec ( 25.945%)
 printout                       ...        0 min,  0.000 sec (  0.415%)

         :::::::::::::::::::::::::::::::::::::::::::::::::::::
         ::                     SUMMARY                     ::
         :::::::::::::::::::::::::::::::::::::::::::::::::::::
         :: total energy             -42.506199181367 Eh    ::
         :: total w/o Gsasa/hb       -42.502530669214 Eh    ::
         :: gradient norm              0.033079133308 Eh/a0 ::
         :: HOMO-LUMO gap              3.993037851488 eV    ::
         ::.................................................::
         :: SCC energy               -42.884235564412 Eh    ::
         :: -> isotropic ES            0.067924214274 Eh    ::
         :: -> anisotropic ES          0.003260063703 Eh    ::
         :: -> anisotropic XC          0.003264119106 Eh    ::
         :: -> dispersion             -0.021760728248 Eh    ::
         :: -> Gsolv                  -0.014057161266 Eh    ::
         ::    -> Gelec               -0.010388649113 Eh    ::
         ::    -> Gsasa                0.001157544229 Eh    ::
         ::    -> Ghb                 -0.005906816079 Eh    ::
         ::    -> Gshift               0.001080759698 Eh    ::
         :: repulsion energy           0.378036383045 Eh    ::
         :: add. restraining           0.000000000000 Eh    ::
         :: total charge               0.000000000000 e     ::
         :::::::::::::::::::::::::::::::::::::::::::::::::::::

      ----------------------------------------------------------- 
     |                   =====================                   |
     |                        A N C O P T                        |
     |                   =====================                   |
     |               Approximate Normal Coordinate               |
     |                Rational Function Optimizer                |
      ----------------------------------------------------------- 
      ----------------------------------------------------------- 
     |                   =====================                   |
     |                        A N C O P T                        |
     |                   =====================                   |
     |               Approximate Normal Coordinate               |
     |                Rational Function Optimizer                |
      ----------------------------------------------------------- 

          ...................................................
          :                      SETUP                      :
          :.................................................:
          :   optimization level         verytight          :
          :   max. optcycles                   420          :
          :   ANC micro-cycles                  20          :
          :   degrees of freedom                57          :
          :.................................................:
          :   RF solver                   davidson          :
          :   write xtbopt.log                true          :
          :   linear?                        false          :
          :   energy convergence         0.1000000E-06 Eh   :
          :   grad. convergence          0.2000000E-03 Eh/α :
          :   maxmium RF displ.          1.0000000          :
          :   Hlow (freq-cutoff)         0.1000000E-01      :
          :   Hmax (freq-cutoff)         5.0000000          :
          :   S6 in model hess.         20.0000000          :
          ...................................................

generating ANC from exact Hessian ...
Using Lindh-Hessian (1995)
 Shifting diagonal of input Hessian by   7.979924810534006E-003
 Lowest  eigenvalues of input Hessian
    0.000000    0.000000    0.000000    0.000000    0.000000    0.000000
    0.010000    0.010202    0.011858    0.011989    0.013528    0.015108
    0.016420    0.019312    0.020378    0.037569    0.042942    0.049350
 Highest eigenvalues
    1.620550    1.737328    1.793468    1.856732    2.087110    2.105341
 

........................................................................
.............................. CYCLE    1 ..............................
........................................................................

 iter      E             dE          RMSdq      gap      omega  full diag
   1    -42.8843408 -0.428843E+02  0.200E-04    3.99       0.0  T
   2    -42.8843408 -0.115143E-09  0.159E-04    3.99     137.5  T
   3    -42.8843408 -0.103036E-09  0.110E-04    3.99     198.0  T
     SCC iter.                  ...        0 min,  0.002 sec
     gradient                   ...        0 min,  0.008 sec
 * total energy  :   -42.5061992 Eh     change       -0.1710092E-08 Eh
   gradient norm :     0.0330763 Eh/α   predicted     0.0000000E+00 (-100.00%)
   displ. norm   :     0.1458058 α      lambda       -0.1918878E-02
   maximum displ.:     0.0966658 α      in ANC's #4, #7, #16, ...

........................................................................
.............................. CYCLE    2 ..............................
........................................................................

 iter      E             dE          RMSdq      gap      omega  full diag
   1    -42.8938062 -0.428938E+02  0.107E-01    4.00       0.0  T
   2    -42.8938243 -0.180308E-04  0.678E-02    4.01       1.0  T
   3    -42.8938290 -0.472800E-05  0.423E-02    4.01       1.0  T
   4    -42.8938376 -0.857291E-05  0.110E-02    4.01       2.0  T
   5    -42.8938380 -0.419282E-06  0.874E-03    4.01       2.5  T
   6    -42.8938384 -0.438637E-06  0.545E-03    4.01       4.0  T
   7    -42.8938387 -0.297373E-06  0.260E-03    4.01       8.4  T
   8    -42.8938388 -0.477301E-07  0.116E-03    4.01      18.9  T
   9    -42.8938388 -0.550116E-08  0.416E-04    4.01      52.4  T
  10    -42.8938388 -0.184659E-08  0.171E-04    4.01     128.0  T
     SCC iter.                  ...        0 min,  0.008 sec
     gradient                   ...        0 min,  0.008 sec
 * total energy  :   -42.5075916 Eh     change       -0.1392414E-02 Eh
   gradient norm :     0.0183034 Eh/α   predicted    -0.9798851E-03 ( -29.63%)
   displ. norm   :     0.2115865 α      lambda       -0.1061734E-02
   maximum displ.:     0.1736012 α      in ANC's #4, #7, #8, ...

........................................................................
.............................. CYCLE    3 ..............................
........................................................................

 iter      E             dE          RMSdq      gap      omega  full diag
   1    -42.8986987 -0.428987E+02  0.126E-01    4.00       0.0  T
   2    -42.8987231 -0.243941E-04  0.793E-02    4.00       1.0  T
   3    -42.8987285 -0.543982E-05  0.498E-02    4.00       1.0  T
   4    -42.8987401 -0.116066E-04  0.129E-02    4.00       1.7  T
   5    -42.8987407 -0.575755E-06  0.103E-02    4.00       2.1  T
   6    -42.8987413 -0.622917E-06  0.613E-03    4.00       3.6  T
   7    -42.8987417 -0.422826E-06  0.264E-03    4.00       8.3  T
   8    -42.8987418 -0.405511E-07  0.911E-04    4.00      24.0  T
   9    -42.8987418 -0.364640E-08  0.454E-04    4.00      48.1  T
     SCC iter.                  ...        0 min,  0.007 sec
     gradient                   ...        0 min,  0.008 sec
 * total energy  :   -42.5082658 Eh     change       -0.6741771E-03 Eh
   gradient norm :     0.0063294 Eh/α   predicted    -0.5547184E-03 ( -17.72%)
   displ. norm   :     0.2046295 α      lambda       -0.3660743E-03
   maximum displ.:     0.1842406 α      in ANC's #4, #6, #8, ...

........................................................................
.............................. CYCLE    4 ..............................
........................................................................

 iter      E             dE          RMSdq      gap      omega  full diag
   1    -42.8981524 -0.428982E+02  0.101E-01    3.99       0.0  T
   2    -42.8981578 -0.541444E-05  0.622E-02    3.99       1.0  T
   3    -42.8981525  0.527548E-05  0.312E-02    3.99       1.0  T
   4    -42.8981612 -0.870166E-05  0.696E-03    3.99       3.1  T
   5    -42.8981614 -0.157979E-06  0.541E-03    3.99       4.0  T
   6    -42.8981616 -0.168243E-06  0.316E-03    3.99       6.9  T
   7    -42.8981616 -0.987743E-07  0.164E-03    3.99      13.3  T
   8    -42.8981617 -0.184150E-07  0.457E-04    3.99      47.8  T
   9    -42.8981617 -0.877698E-09  0.248E-04    3.99      88.0  T
     SCC iter.                  ...        0 min,  0.007 sec
     gradient                   ...        0 min,  0.008 sec
 * total energy  :   -42.5085605 Eh     change       -0.2947648E-03 Eh
   gradient norm :     0.0058267 Eh/α   predicted    -0.1907041E-03 ( -35.30%)
   displ. norm   :     0.2423210 α      lambda       -0.3589802E-03
   maximum displ.:     0.2043797 α      in ANC's #4, #6, #8, ...

........................................................................
.............................. CYCLE    5 ..............................
........................................................................

 iter      E             dE          RMSdq      gap      omega  full diag
   1    -42.8959899 -0.428960E+02  0.120E-01    3.96       0.0  T
   2    -42.8959924 -0.246975E-05  0.732E-02    3.96       1.0  T
   3    -42.8959920  0.322934E-06  0.125E-02    3.96       1.7  T
   4    -42.8959936 -0.153525E-05  0.616E-03    3.96       3.5  T
   5    -42.8959937 -0.142431E-06  0.436E-03    3.96       5.0  T
   6    -42.8959938 -0.104920E-06  0.239E-03    3.96       9.1  T
   7    -42.8959939 -0.363470E-07  0.153E-03    3.96      14.2  T
   8    -42.8959939 -0.174983E-07  0.466E-04    3.96      46.8  T
   9    -42.8959939 -0.846484E-09  0.178E-04    3.96     122.7  T
     SCC iter.                  ...        0 min,  0.007 sec
     gradient                   ...        0 min,  0.008 sec
 * total energy  :   -42.5088624 Eh     change       -0.3018247E-03 Eh
   gradient norm :     0.0080297 Eh/α   predicted    -0.1900389E-03 ( -37.04%)
   displ. norm   :     0.3150268 α      lambda       -0.3957454E-03
   maximum displ.:     0.2476883 α      in ANC's #4, #6, #2, ...

........................................................................
.............................. CYCLE    6 ..............................
........................................................................

 iter      E             dE          RMSdq      gap      omega  full diag
   1    -42.8933982 -0.428934E+02  0.157E-01    3.92       0.0  T
   2    -42.8934020 -0.379371E-05  0.953E-02    3.92       1.0  T
   3    -42.8933992  0.276980E-05  0.206E-02    3.92       1.1  T
   4    -42.8934042 -0.494946E-05  0.720E-03    3.92       3.0  T
   5    -42.8934043 -0.157906E-06  0.496E-03    3.92       4.4  T
   6    -42.8934045 -0.133253E-06  0.252E-03    3.92       8.7  T
   7    -42.8934045 -0.298523E-07  0.155E-03    3.92      14.1  T
   8    -42.8934045 -0.191802E-07  0.507E-04    3.92      43.0  T
   9    -42.8934045 -0.130196E-08  0.128E-04    3.92     170.9  T
     SCC iter.                  ...        0 min,  0.007 sec
     gradient                   ...        0 min,  0.008 sec
 * total energy  :   -42.5091699 Eh     change       -0.3075111E-03 Eh
   gradient norm :     0.0113508 Eh/α   predicted    -0.2175480E-03 ( -29.26%)
   displ. norm   :     0.3677233 α      lambda       -0.3950931E-03
   maximum displ.:     0.2842963 α      in ANC's #4, #6, #2, ...

........................................................................
.............................. CYCLE    7 ..............................
........................................................................

 iter      E             dE          RMSdq      gap      omega  full diag
   1    -42.8911460 -0.428911E+02  0.184E-01    3.89       0.0  T
   2    -42.8911546 -0.866889E-05  0.111E-01    3.89       1.0  T
   3    -42.8911376  0.170448E-04  0.452E-02    3.89       1.0  T
   4    -42.8911605 -0.228753E-04  0.823E-03    3.89       2.7  T
   5    -42.8911606 -0.174951E-06  0.569E-03    3.89       3.8  T
   6    -42.8911608 -0.147640E-06  0.316E-03    3.89       6.9  T
   7    -42.8911608 -0.589166E-07  0.207E-03    3.89      10.6  T
   8    -42.8911609 -0.295505E-07  0.702E-04    3.89      31.1  T
   9    -42.8911609 -0.231620E-08  0.233E-04    3.89      93.7  T
     SCC iter.                  ...        0 min,  0.007 sec
     gradient                   ...        0 min,  0.008 sec
 * total energy  :   -42.5094216 Eh     change       -0.2517300E-03 Eh
   gradient norm :     0.0147833 Eh/α   predicted    -0.2242607E-03 ( -10.91%)
   displ. norm   :     0.1694540 α      lambda       -0.3577697E-03
   maximum displ.:     0.1216711 α      in ANC's #4, #2, #6, ...

........................................................................
.............................. CYCLE    8 ..............................
........................................................................

 iter      E             dE          RMSdq      gap      omega  full diag
   1    -42.8935275 -0.428935E+02  0.918E-02    3.88       0.0  T
   2    -42.8935349 -0.742163E-05  0.547E-02    3.88       1.0  T
   3    -42.8935331  0.180261E-05  0.339E-02    3.88       1.0  T
   4    -42.8935404 -0.728931E-05  0.511E-03    3.88       4.3  T
   5    -42.8935405 -0.786597E-07  0.347E-03    3.88       6.3  T
   6    -42.8935405 -0.535073E-07  0.243E-03    3.88       9.0  T
   7    -42.8935406 -0.418273E-07  0.126E-03    3.88      17.4  T
   8    -42.8935406 -0.125420E-07  0.544E-04    3.88      40.1  T
   9    -42.8935406 -0.113035E-08  0.242E-04    3.88      90.3  T
     SCC iter.                  ...        0 min,  0.007 sec
     gradient                   ...        0 min,  0.008 sec
 * total energy  :   -42.5097070 Eh     change       -0.2853689E-03 Eh
   gradient norm :     0.0106677 Eh/α   predicted    -0.1840257E-03 ( -35.51%)
   displ. norm   :     0.3182329 α      lambda       -0.5675207E-03
   maximum displ.:     0.2099639 α      in ANC's #4, #2, #8, ...

........................................................................
.............................. CYCLE    9 ..............................
........................................................................

 iter      E             dE          RMSdq      gap      omega  full diag
   1    -42.8970112 -0.428970E+02  0.181E-01    3.87       0.0  T
   2    -42.8970345 -0.232520E-04  0.108E-01    3.87       1.0  T
   3    -42.8970209  0.135566E-04  0.628E-02    3.88       1.0  T
   4    -42.8970499 -0.289585E-04  0.887E-03    3.88       2.5  T
   5    -42.8970501 -0.243597E-06  0.560E-03    3.87       3.9  T
   6    -42.8970503 -0.143787E-06  0.398E-03    3.88       5.5  T
   7    -42.8970504 -0.105334E-06  0.193E-03    3.88      11.3  T
   8    -42.8970504 -0.265599E-07  0.938E-04    3.88      23.3  T
   9    -42.8970504 -0.358413E-08  0.456E-04    3.88      47.9  T
     SCC iter.                  ...        0 min,  0.007 sec
     gradient                   ...        0 min,  0.008 sec
 * total energy  :   -42.5101120 Eh     change       -0.4050205E-03 Eh
   gradient norm :     0.0069126 Eh/α   predicted    -0.3124987E-03 ( -22.84%)
   displ. norm   :     0.2928564 α      lambda       -0.3520104E-03
   maximum displ.:     0.1875330 α      in ANC's #4, #2, #1, ...

........................................................................
.............................. CYCLE   10 ..............................
........................................................................

 iter      E             dE          RMSdq      gap      omega  full diag
   1    -42.8986076 -0.428986E+02  0.159E-01    3.86       0.0  T
   2    -42.8986227 -0.150320E-04  0.946E-02    3.86       1.0  T
   3    -42.8986093  0.133644E-04  0.513E-02    3.87       1.0  T
   4    -42.8986314 -0.221420E-04  0.716E-03    3.87       3.0  T
   5    -42.8986316 -0.165181E-06  0.436E-03    3.87       5.0  T
   6    -42.8986317 -0.719805E-07  0.310E-03    3.87       7.0  T
   7    -42.8986317 -0.532553E-07  0.179E-03    3.87      12.2  T
   8    -42.8986317 -0.233738E-07  0.795E-04    3.87      27.4  T
   9    -42.8986317 -0.222907E-08  0.375E-04    3.87      58.2  T
     SCC iter.                  ...        0 min,  0.007 sec
     gradient                   ...        0 min,  0.008 sec
 * total energy  :   -42.5103727 Eh     change       -0.2607477E-03 Eh
   gradient norm :     0.0072525 Eh/α   predicted    -0.1911030E-03 ( -26.71%)
   displ. norm   :     0.3530608 α      lambda       -0.3407053E-03
   maximum displ.:     0.2440122 α      in ANC's #2, #4, #39, ...

........................................................................
.............................. CYCLE   11 ..............................
........................................................................

 iter      E             dE          RMSdq      gap      omega  full diag
   1    -42.8986424 -0.428986E+02  0.180E-01    3.85       0.0  T
   2    -42.8986567 -0.143501E-04  0.107E-01    3.85       1.0  T
   3    -42.8986389  0.178056E-04  0.508E-02    3.85       1.0  T
   4    -42.8986642 -0.252577E-04  0.754E-03    3.85       2.9  T
   5    -42.8986643 -0.177814E-06  0.465E-03    3.85       4.7  T
   6    -42.8986644 -0.697339E-07  0.315E-03    3.85       6.9  T
   7    -42.8986645 -0.517036E-07  0.188E-03    3.85      11.6  T
   8    -42.8986645 -0.241322E-07  0.895E-04    3.85      24.4  T
   9    -42.8986645 -0.332994E-08  0.426E-04    3.85      51.2  T
     SCC iter.                  ...        0 min,  0.007 sec
     gradient                   ...        0 min,  0.008 sec
 * total energy  :   -42.5106007 Eh     change       -0.2279181E-03 Eh
   gradient norm :     0.0106218 Eh/α   predicted    -0.1915885E-03 ( -15.94%)
   displ. norm   :     0.3338850 α      lambda       -0.5461850E-03
   maximum displ.:     0.2083717 α      in ANC's #2, #6, #4, ...

........................................................................
.............................. CYCLE   12 ..............................
........................................................................

 iter      E             dE          RMSdq      gap      omega  full diag
   1    -42.9037064 -0.429037E+02  0.152E-01    3.83       0.0  T
   2    -42.9037224 -0.160016E-04  0.907E-02    3.84       1.0  T
   3    -42.9037134  0.897475E-05  0.366E-02    3.84       1.0  T
   4    -42.9037274 -0.139298E-04  0.884E-03    3.84       2.5  T
   5    -42.9037277 -0.367562E-06  0.472E-03    3.84       4.6  T
   6    -42.9037278 -0.768740E-07  0.337E-03    3.84       6.5  T
   7    -42.9037279 -0.594075E-07  0.210E-03    3.84      10.4  T
   8    -42.9037279 -0.333237E-07  0.119E-03    3.84      18.3  T
   9    -42.9037279 -0.820393E-08  0.659E-04    3.84      33.1  T
  10    -42.9037279 -0.442161E-08  0.263E-04    3.84      83.1  T
     SCC iter.                  ...        0 min,  0.008 sec
     gradient                   ...        0 min,  0.008 sec
 * total energy  :   -42.5106429 Eh     change       -0.4222941E-04 Eh
   gradient norm :     0.0163114 Eh/α   predicted    -0.3035424E-03 ( 618.79%)
   displ. norm   :     0.4333215 α      lambda       -0.7679979E-03
   maximum displ.:     0.3186067 α      in ANC's #4, #2, #1, ...

........................................................................
.............................. CYCLE   13 ..............................
........................................................................

 iter      E             dE          RMSdq      gap      omega  full diag
   1    -42.8933759 -0.428934E+02  0.217E-01    3.82       0.0  T
   2    -42.8933856 -0.970518E-05  0.131E-01    3.82       1.0  T
   3    -42.8933762  0.936740E-05  0.351E-02    3.82       1.0  T
   4    -42.8933904 -0.141734E-04  0.875E-03    3.82       2.5  T
   5    -42.8933906 -0.187035E-06  0.582E-03    3.82       3.7  T
   6    -42.8933907 -0.121675E-06  0.295E-03    3.82       7.4  T
   7    -42.8933907 -0.463843E-07  0.212E-03    3.82      10.3  T
   8    -42.8933908 -0.326462E-07  0.775E-04    3.82      28.2  T
   9    -42.8933908 -0.353392E-08  0.345E-04    3.82      63.3  T
     SCC iter.                  ...        0 min,  0.007 sec
     gradient                   ...        0 min,  0.008 sec
 * total energy  :   -42.5108462 Eh     change       -0.2033516E-03 Eh
   gradient norm :     0.0154427 Eh/α   predicted    -0.4561123E-03 ( 124.30%)
   displ. norm   :     0.2562351 α      lambda       -0.6404031E-03
   maximum displ.:     0.1285018 α      in ANC's #4, #1, #2, ...

........................................................................
.............................. CYCLE   14 ..............................
........................................................................

 iter      E             dE          RMSdq      gap      omega  full diag
   1    -42.8986380 -0.428986E+02  0.132E-01    3.82       0.0  T
   2    -42.8986487 -0.107017E-04  0.779E-02    3.82       1.0  T
   3    -42.8986405  0.814166E-05  0.358E-02    3.82       1.0  T
   4    -42.8986525 -0.119584E-04  0.615E-03    3.82       3.5  T
   5    -42.8986526 -0.152837E-06  0.340E-03    3.82       6.4  T
   6    -42.8986527 -0.318393E-07  0.223E-03    3.82       9.8  T
   7    -42.8986527 -0.231322E-07  0.149E-03    3.82      14.7  T
   8    -42.8986527 -0.156628E-07  0.735E-04    3.82      29.7  T
   9    -42.8986527 -0.286715E-08  0.255E-04    3.82      85.6  T
     SCC iter.                  ...        0 min,  0.007 sec
     gradient                   ...        0 min,  0.008 sec
 * total energy  :   -42.5110002 Eh     change       -0.1540080E-03 Eh
   gradient norm :     0.0081607 Eh/α   predicted    -0.3412279E-03 ( 121.57%)
   displ. norm   :     0.1210811 α      lambda       -0.2378009E-03
   maximum displ.:     0.0774279 α      in ANC's #6, #2, #4, ...

........................................................................
.............................. CYCLE   15 ..............................
........................................................................

 iter      E             dE          RMSdq      gap      omega  full diag
   1    -42.8991167 -0.428991E+02  0.523E-02    3.82       0.0  T
   2    -42.8991190 -0.228607E-05  0.308E-02    3.82       1.0  T
   3    -42.8991186  0.466060E-06  0.100E-02    3.82       2.2  T
   4    -42.8991194 -0.839379E-06  0.314E-03    3.82       6.9  T
   5    -42.8991195 -0.688908E-07  0.154E-03    3.82      14.2  T
   6    -42.8991195 -0.782740E-08  0.109E-03    3.82      20.0  T
   7    -42.8991195 -0.585946E-08  0.742E-04    3.82      29.4  T
   8    -42.8991195 -0.441884E-08  0.390E-04    3.82      55.9  T
     SCC iter.                  ...        0 min,  0.006 sec
     gradient                   ...        0 min,  0.008 sec
 * total energy  :   -42.5111427 Eh     change       -0.1424938E-03 Eh
   gradient norm :     0.0044020 Eh/α   predicted    -0.1206503E-03 ( -15.33%)
   displ. norm   :     0.2619598 α      lambda       -0.1476944E-03
   maximum displ.:     0.1619432 α      in ANC's #4, #2, #39, ...

........................................................................
.............................. CYCLE   16 ..............................
........................................................................

 iter      E             dE          RMSdq      gap      omega  full diag
   1    -42.8972980 -0.428973E+02  0.115E-01    3.81       0.0  T
   2    -42.8973018 -0.379763E-05  0.689E-02    3.81       1.0  T
   3    -42.8972976  0.413454E-05  0.219E-02    3.81       1.0  T
   4    -42.8973032 -0.558460E-05  0.457E-03    3.81       4.8  T
   5    -42.8973033 -0.737941E-07  0.288E-03    3.81       7.6  T
   6    -42.8973033 -0.261117E-07  0.193E-03    3.81      11.3  T
   7    -42.8973033 -0.207530E-07  0.118E-03    3.81      18.5  T
   8    -42.8973033 -0.986226E-08  0.602E-04    3.81      36.2  T
   9    -42.8973033 -0.182883E-08  0.243E-04    3.81      89.7  T
     SCC iter.                  ...        0 min,  0.007 sec
     gradient                   ...        0 min,  0.008 sec
 * total energy  :   -42.5112427 Eh     change       -0.9991351E-04 Eh
   gradient norm :     0.0065441 Eh/α   predicted    -0.7892799E-04 ( -21.00%)
   displ. norm   :     0.2118301 α      lambda       -0.1514957E-03
   maximum displ.:     0.1529706 α      in ANC's #4, #2, #39, ...

........................................................................
.............................. CYCLE   17 ..............................
........................................................................

 iter      E             dE          RMSdq      gap      omega  full diag
   1    -42.8964388 -0.428964E+02  0.890E-02    3.80       0.0  T
   2    -42.8964409 -0.201915E-05  0.536E-02    3.80       1.0  T
   3    -42.8964394  0.147577E-05  0.125E-02    3.80       1.7  T
   4    -42.8964415 -0.214031E-05  0.335E-03    3.80       6.5  T
   5    -42.8964416 -0.377074E-07  0.224E-03    3.80       9.7  T
   6    -42.8964416 -0.159335E-07  0.152E-03    3.80      14.4  T
   7    -42.8964416 -0.145612E-07  0.936E-04    3.80      23.3  T
   8    -42.8964416 -0.664454E-08  0.469E-04    3.80      46.5  T
     SCC iter.                  ...        0 min,  0.006 sec
     gradient                   ...        0 min,  0.008 sec
 * total energy  :   -42.5113445 Eh     change       -0.1018478E-03 Eh
   gradient norm :     0.0067348 Eh/α   predicted    -0.7915118E-04 ( -22.28%)
   displ. norm   :     0.2369309 α      lambda       -0.2089681E-03
   maximum displ.:     0.1516054 α      in ANC's #4, #2, #6, ...

........................................................................
.............................. CYCLE   18 ..............................
........................................................................

 iter      E             dE          RMSdq      gap      omega  full diag
   1    -42.8972317 -0.428972E+02  0.913E-02    3.79       0.0  T
   2    -42.8972344 -0.271207E-05  0.551E-02    3.79       1.0  T
   3    -42.8972324  0.208042E-05  0.140E-02    3.79       1.6  T
   4    -42.8972352 -0.286276E-05  0.313E-03    3.79       7.0  T
   5    -42.8972353 -0.368875E-07  0.187E-03    3.79      11.7  T
   6    -42.8972353 -0.113986E-07  0.133E-03    3.79      16.3  T
   7    -42.8972353 -0.949846E-08  0.807E-04    3.79      27.0  T
   8    -42.8972353 -0.461596E-08  0.463E-04    3.79      47.1  T
     SCC iter.                  ...        0 min,  0.006 sec
     gradient                   ...        0 min,  0.008 sec
 * total energy  :   -42.5114924 Eh     change       -0.1479312E-03 Eh
   gradient norm :     0.0067526 Eh/α   predicted    -0.1103587E-03 ( -25.40%)
   displ. norm   :     0.2450031 α      lambda       -0.2487855E-03
   maximum displ.:     0.1484462 α      in ANC's #4, #1, #6, ...

........................................................................
.............................. CYCLE   19 ..............................
........................................................................

 iter      E             dE          RMSdq      gap      omega  full diag
   1    -42.9006112 -0.429006E+02  0.909E-02    3.78       0.0  T
   2    -42.9006143 -0.314277E-05  0.544E-02    3.78       1.0  T
   3    -42.9006113  0.307270E-05  0.176E-02    3.78       1.2  T
   4    -42.9006154 -0.413915E-05  0.287E-03    3.78       7.6  T
   5    -42.9006154 -0.268559E-07  0.168E-03    3.78      13.0  T
   6    -42.9006154 -0.112093E-07  0.109E-03    3.78      20.0  T
   7    -42.9006154 -0.576841E-08  0.638E-04    3.78      34.2  T
   8    -42.9006154 -0.251264E-08  0.405E-04    3.78      53.9  T
     SCC iter.                  ...        0 min,  0.006 sec
     gradient                   ...        0 min,  0.008 sec
 * total energy  :   -42.5116205 Eh     change       -0.1280278E-03 Eh
   gradient norm :     0.0068586 Eh/α   predicted    -0.1318703E-03 (   3.00%)
   displ. norm   :     0.6011751 α      lambda       -0.3671387E-03
   maximum displ.:     0.3956324 α      in ANC's #4, #2, #6, ...

........................................................................
.............................. CYCLE   20 ..............................
........................................................................

 iter      E             dE          RMSdq      gap      omega  full diag
   1    -42.8934276 -0.428934E+02  0.234E-01    3.76       0.0  T
   2    -42.8934487 -0.210634E-04  0.141E-01    3.77       1.0  T
   3    -42.8934247  0.239352E-04  0.545E-02    3.77       1.0  T
   4    -42.8934569 -0.321280E-04  0.833E-03    3.77       2.6  T
   5    -42.8934571 -0.256731E-06  0.480E-03    3.77       4.5  T
   6    -42.8934572 -0.703357E-07  0.307E-03    3.77       7.1  T
   7    -42.8934572 -0.464501E-07  0.182E-03    3.77      12.0  T
   8    -42.8934573 -0.199286E-07  0.104E-03    3.77      21.1  T
   9    -42.8934573 -0.520017E-08  0.565E-04    3.77      38.6  T
  10    -42.8934573 -0.328448E-08  0.217E-04    3.77     100.3  T
     SCC iter.                  ...        0 min,  0.008 sec
     gradient                   ...        0 min,  0.008 sec
 * total energy  :   -42.5115991 Eh     change        0.2133468E-04 Eh
   gradient norm :     0.0156552 Eh/α   predicted    -0.2499617E-03 (*******%)
   displ. norm   :     0.2694385 α      lambda       -0.6370699E-03
   maximum displ.:     0.1740039 α      in ANC's #4, #2, #39, ...
 * RMSD in coord.:     0.8390905 α      energy gain  -0.5399947E-02 Eh

generating ANC from exact Hessian ...
Using Lindh-Hessian (1995)
 Shifting diagonal of input Hessian by   8.319192181484256E-003
 Lowest  eigenvalues of input Hessian
    0.000000    0.000000    0.000000    0.000000    0.000000    0.000000
    0.010000    0.011211    0.011464    0.013099    0.013966    0.015488
    0.018082    0.021847    0.022396    0.038875    0.047634    0.048486
 Highest eigenvalues
    1.676163    1.800809    1.813490    1.899009    2.110777    2.144189
 

........................................................................
.............................. CYCLE   21 ..............................
........................................................................

 iter      E             dE          RMSdq      gap      omega  full diag
   1    -42.8998779 -0.428999E+02  0.118E-01    3.78       0.0  T
   2    -42.8998829 -0.494484E-05  0.712E-02    3.77       1.0  T
   3    -42.8998786  0.426460E-05  0.226E-02    3.78       1.0  T
   4    -42.8998849 -0.627149E-05  0.471E-03    3.78       4.6  T
   5    -42.8998849 -0.533094E-07  0.312E-03    3.78       7.0  T
   6    -42.8998850 -0.257571E-07  0.169E-03    3.78      12.9  T
   7    -42.8998850 -0.195941E-07  0.913E-04    3.78      23.9  T
   8    -42.8998850 -0.437758E-08  0.461E-04    3.78      47.4  T
     SCC iter.                  ...        0 min,  0.006 sec
     gradient                   ...        0 min,  0.008 sec
 * total energy  :   -42.5118430 Eh     change       -0.2438754E-03 Eh
   gradient norm :     0.0054034 Eh/α   predicted     0.0000000E+00 (-100.00%)
   displ. norm   :     0.0663153 α      lambda       -0.9872651E-04
   maximum displ.:     0.0496826 α      in ANC's #4, #5, #6, ...

........................................................................
.............................. CYCLE   22 ..............................
........................................................................

 iter      E             dE          RMSdq      gap      omega  full diag
   1    -42.8999304 -0.428999E+02  0.229E-02    3.78       0.0  T
   2    -42.8999306 -0.280372E-06  0.138E-02    3.78       1.6  T
   3    -42.8999304  0.211974E-06  0.459E-03    3.78       4.8  T
   4    -42.8999307 -0.316070E-06  0.122E-03    3.78      17.9  T
   5    -42.8999308 -0.498443E-08  0.883E-04    3.78      24.7  T
   6    -42.8999308 -0.297882E-08  0.638E-04    3.78      34.2  T
     SCC iter.                  ...        0 min,  0.005 sec
     gradient                   ...        0 min,  0.008 sec
 * total energy  :   -42.5119272 Eh     change       -0.8418142E-04 Eh
   gradient norm :     0.0025304 Eh/α   predicted    -0.5094484E-04 ( -39.48%)
   displ. norm   :     0.2090077 α      lambda       -0.2016973E-03
   maximum displ.:     0.1516472 α      in ANC's #4, #5, #2, ...

........................................................................
.............................. CYCLE   23 ..............................
........................................................................

 iter      E             dE          RMSdq      gap      omega  full diag
   1    -42.8992719 -0.428993E+02  0.580E-02    3.77       0.0  T
   2    -42.8992733 -0.142262E-05  0.353E-02    3.77       1.0  T
   3    -42.8992717  0.163499E-05  0.124E-02    3.77       1.8  T
   4    -42.8992740 -0.232334E-05  0.303E-03    3.77       7.2  T
   5    -42.8992740 -0.260989E-07  0.227E-03    3.77       9.6  T
   6    -42.8992741 -0.255474E-07  0.150E-03    3.77      14.5  T
   7    -42.8992741 -0.173494E-07  0.831E-04    3.77      26.3  T
   8    -42.8992741 -0.560598E-08  0.439E-04    3.77      49.7  T
     SCC iter.                  ...        0 min,  0.006 sec
     gradient                   ...        0 min,  0.008 sec
 * total energy  :   -42.5120798 Eh     change       -0.1526637E-03 Eh
   gradient norm :     0.0037568 Eh/α   predicted    -0.1052606E-03 ( -31.05%)
   displ. norm   :     0.2400662 α      lambda       -0.1591981E-03
   maximum displ.:     0.1601505 α      in ANC's #4, #5, #2, ...

........................................................................
.............................. CYCLE   24 ..............................
........................................................................

 iter      E             dE          RMSdq      gap      omega  full diag
   1    -42.8980032 -0.428980E+02  0.633E-02    3.77       0.0  T
   2    -42.8980049 -0.170879E-05  0.381E-02    3.77       1.0  T
   3    -42.8980035  0.146778E-05  0.122E-02    3.77       1.8  T
   4    -42.8980055 -0.201259E-05  0.277E-03    3.77       7.9  T
   5    -42.8980055 -0.317403E-07  0.183E-03    3.77      11.9  T
   6    -42.8980055 -0.105228E-07  0.125E-03    3.77      17.5  T
   7    -42.8980055 -0.101750E-07  0.776E-04    3.77      28.1  T
   8    -42.8980055 -0.502297E-08  0.374E-04    3.77      58.4  T
     SCC iter.                  ...        0 min,  0.006 sec
     gradient                   ...        0 min,  0.008 sec
 * total energy  :   -42.5121909 Eh     change       -0.1110435E-03 Eh
   gradient norm :     0.0075718 Eh/α   predicted    -0.8418733E-04 ( -24.19%)
   displ. norm   :     0.1964225 α      lambda       -0.1411227E-03
   maximum displ.:     0.1312668 α      in ANC's #4, #5, #2, ...

........................................................................
.............................. CYCLE   25 ..............................
........................................................................

 iter      E             dE          RMSdq      gap      omega  full diag
   1    -42.8978573 -0.428979E+02  0.508E-02    3.76       0.0  T
   2    -42.8978584 -0.114078E-05  0.306E-02    3.76       1.0  T
   3    -42.8978575  0.921443E-06  0.101E-02    3.76       2.2  T
   4    -42.8978587 -0.121863E-05  0.205E-03    3.76      10.7  T
   5    -42.8978588 -0.234628E-07  0.107E-03    3.76      20.3  T
   6    -42.8978588 -0.291039E-08  0.722E-04    3.76      30.2  T
   7    -42.8978588 -0.247910E-08  0.481E-04    3.76      45.4  T
     SCC iter.                  ...        0 min,  0.005 sec
     gradient                   ...        0 min,  0.008 sec
 * total energy  :   -42.5122943 Eh     change       -0.1034457E-03 Eh
   gradient norm :     0.0085645 Eh/α   predicted    -0.7329424E-04 ( -29.15%)
   displ. norm   :     0.2055835 α      lambda       -0.2940609E-03
   maximum displ.:     0.1343000 α      in ANC's #4, #5, #2, ...

........................................................................
.............................. CYCLE   26 ..............................
........................................................................

 iter      E             dE          RMSdq      gap      omega  full diag
   1    -42.9004101 -0.429004E+02  0.586E-02    3.75       0.0  T
   2    -42.9004124 -0.235054E-05  0.353E-02    3.76       1.0  T
   3    -42.9004111  0.134686E-05  0.138E-02    3.76       1.6  T
   4    -42.9004131 -0.200018E-05  0.285E-03    3.76       7.7  T
   5    -42.9004131 -0.408251E-07  0.151E-03    3.76      14.4  T
   6    -42.9004131 -0.105777E-07  0.110E-03    3.76      19.9  T
   7    -42.9004131 -0.632439E-08  0.643E-04    3.76      34.0  T
   8    -42.9004131 -0.295802E-08  0.370E-04    3.76      59.0  T
     SCC iter.                  ...        0 min,  0.006 sec
     gradient                   ...        0 min,  0.008 sec
 * total energy  :   -42.5124911 Eh     change       -0.1967637E-03 Eh
   gradient norm :     0.0045440 Eh/α   predicted    -0.1532449E-03 ( -22.12%)
   displ. norm   :     0.2716304 α      lambda       -0.1764191E-03
   maximum displ.:     0.1661425 α      in ANC's #4, #2, #5, ...

........................................................................
.............................. CYCLE   27 ..............................
........................................................................

 iter      E             dE          RMSdq      gap      omega  full diag
   1    -42.8992693 -0.428993E+02  0.743E-02    3.74       0.0  T
   2    -42.8992730 -0.370070E-05  0.448E-02    3.75       1.0  T
   3    -42.8992712  0.174556E-05  0.157E-02    3.75       1.4  T
   4    -42.8992738 -0.251931E-05  0.333E-03    3.75       6.5  T
   5    -42.8992738 -0.686730E-07  0.167E-03    3.75      13.1  T
   6    -42.8992738 -0.959915E-08  0.117E-03    3.75      18.6  T
   7    -42.8992739 -0.612705E-08  0.757E-04    3.75      28.8  T
   8    -42.8992739 -0.393154E-08  0.405E-04    3.75      53.9  T
     SCC iter.                  ...        0 min,  0.006 sec
     gradient                   ...        0 min,  0.008 sec
 * total energy  :   -42.5125927 Eh     change       -0.1016432E-03 Eh
   gradient norm :     0.0085035 Eh/α   predicted    -0.9472038E-04 (  -6.81%)
   displ. norm   :     0.1890494 α      lambda       -0.3005987E-03
   maximum displ.:     0.1146183 α      in ANC's #2, #4, #3, ...

........................................................................
.............................. CYCLE   28 ..............................
........................................................................

 iter      E             dE          RMSdq      gap      omega  full diag
   1    -42.9015119 -0.429015E+02  0.677E-02    3.74       0.0  T
   2    -42.9015161 -0.412886E-05  0.406E-02    3.74       1.0  T
   3    -42.9015144  0.163810E-05  0.166E-02    3.74       1.3  T
   4    -42.9015173 -0.283501E-05  0.304E-03    3.74       7.2  T
   5    -42.9015173 -0.349117E-07  0.178E-03    3.74      12.2  T
   6    -42.9015173 -0.113308E-07  0.129E-03    3.74      16.9  T
   7    -42.9015173 -0.896802E-08  0.824E-04    3.74      26.5  T
   8    -42.9015173 -0.504706E-08  0.504E-04    3.74      43.3  T
     SCC iter.                  ...        0 min,  0.006 sec
     gradient                   ...        0 min,  0.008 sec
 * total energy  :   -42.5127678 Eh     change       -0.1750586E-03 Eh
   gradient norm :     0.0063391 Eh/α   predicted    -0.1556796E-03 ( -11.07%)
   displ. norm   :     0.2843950 α      lambda       -0.1657697E-03
   maximum displ.:     0.1718728 α      in ANC's #2, #4, #6, ...

........................................................................
.............................. CYCLE   29 ..............................
........................................................................

 iter      E             dE          RMSdq      gap      omega  full diag
   1    -42.8991561 -0.428992E+02  0.863E-02    3.73       0.0  T
   2    -42.8991592 -0.307295E-05  0.519E-02    3.73       1.0  T
   3    -42.8991573  0.182233E-05  0.148E-02    3.73       1.5  T
   4    -42.8991599 -0.259388E-05  0.324E-03    3.73       6.7  T
   5    -42.8991600 -0.503359E-07  0.181E-03    3.73      12.1  T
   6    -42.8991600 -0.885302E-08  0.117E-03    3.73      18.7  T
   7    -42.8991600 -0.654475E-08  0.679E-04    3.73      32.1  T
   8    -42.8991600 -0.268169E-08  0.389E-04    3.73      56.1  T
     SCC iter.                  ...        0 min,  0.006 sec
     gradient                   ...        0 min,  0.008 sec
 * total energy  :   -42.5128480 Eh     change       -0.8015576E-04 Eh
   gradient norm :     0.0093447 Eh/α   predicted    -0.8959426E-04 (  11.78%)
   displ. norm   :     0.1004788 α      lambda       -0.2033351E-03
   maximum displ.:     0.0715997 α      in ANC's #2, #5, #1, ...

........................................................................
.............................. CYCLE   30 ..............................
........................................................................

 iter      E             dE          RMSdq      gap      omega  full diag
   1    -42.9004511 -0.429005E+02  0.485E-02    3.73       0.0  T
   2    -42.9004519 -0.829504E-06  0.287E-02    3.73       1.0  T
   3    -42.9004518  0.857625E-07  0.442E-03    3.73       4.9  T
   4    -42.9004520 -0.227168E-06  0.195E-03    3.73      11.2  T
   5    -42.9004521 -0.270893E-07  0.118E-03    3.73      18.5  T
   6    -42.9004521 -0.459795E-08  0.721E-04    3.73      30.3  T
   7    -42.9004521 -0.265590E-08  0.499E-04    3.73      43.8  T
     SCC iter.                  ...        0 min,  0.005 sec
     gradient                   ...        0 min,  0.008 sec
 * total energy  :   -42.5129693 Eh     change       -0.1213646E-03 Eh
   gradient norm :     0.0046184 Eh/α   predicted    -0.1026944E-03 ( -15.38%)
   displ. norm   :     0.2013475 α      lambda       -0.1221734E-03
   maximum displ.:     0.1449784 α      in ANC's #2, #4, #3, ...

........................................................................
.............................. CYCLE   31 ..............................
........................................................................

 iter      E             dE          RMSdq      gap      omega  full diag
   1    -42.9001911 -0.429002E+02  0.791E-02    3.73       0.0  T
   2    -42.9001916 -0.577927E-06  0.478E-02    3.73       1.0  T
   3    -42.9001910  0.681129E-06  0.823E-03    3.73       2.7  T
   4    -42.9001920 -0.102473E-05  0.235E-03    3.73       9.3  T
   5    -42.9001920 -0.118677E-07  0.145E-03    3.73      15.1  T
   6    -42.9001920 -0.926482E-08  0.847E-04    3.73      25.8  T
   7    -42.9001920 -0.417612E-08  0.587E-04    3.73      37.1  T
     SCC iter.                  ...        0 min,  0.005 sec
     gradient                   ...        0 min,  0.008 sec
 * total energy  :   -42.5130533 Eh     change       -0.8402134E-04 Eh
   gradient norm :     0.0047475 Eh/α   predicted    -0.6358698E-04 ( -24.32%)
   displ. norm   :     0.1342497 α      lambda       -0.8800919E-04
   maximum displ.:     0.0938318 α      in ANC's #2, #3, #4, ...

........................................................................
.............................. CYCLE   32 ..............................
........................................................................

 iter      E             dE          RMSdq      gap      omega  full diag
   1    -42.9011927 -0.429012E+02  0.590E-02    3.72       0.0  T
   2    -42.9011933 -0.553797E-06  0.356E-02    3.73       1.0  T
   3    -42.9011923  0.102464E-05  0.915E-03    3.72       2.4  T
   4    -42.9011936 -0.131278E-05  0.178E-03    3.73      12.3  T
   5    -42.9011936 -0.631293E-08  0.107E-03    3.73      20.5  T
   6    -42.9011936 -0.507546E-08  0.669E-04    3.73      32.6  T
   7    -42.9011936 -0.241349E-08  0.429E-04    3.73      50.9  T
     SCC iter.                  ...        0 min,  0.005 sec
     gradient                   ...        0 min,  0.008 sec
 * total energy  :   -42.5131117 Eh     change       -0.5839593E-04 Eh
   gradient norm :     0.0039287 Eh/α   predicted    -0.4480065E-04 ( -23.28%)
   displ. norm   :     0.1796946 α      lambda       -0.6254046E-04
   maximum displ.:     0.1145060 α      in ANC's #2, #3, #4, ...

........................................................................
.............................. CYCLE   33 ..............................
........................................................................

 iter      E             dE          RMSdq      gap      omega  full diag
   1    -42.9006069 -0.429006E+02  0.697E-02    3.72       0.0  T
   2    -42.9006081 -0.123301E-05  0.420E-02    3.72       1.0  T
   3    -42.9006064  0.171095E-05  0.132E-02    3.72       1.6  T
   4    -42.9006086 -0.223770E-05  0.234E-03    3.72       9.3  T
   5    -42.9006087 -0.168131E-07  0.135E-03    3.72      16.2  T
   6    -42.9006087 -0.451482E-08  0.827E-04    3.72      26.4  T
   7    -42.9006087 -0.358877E-08  0.529E-04    3.72      41.3  T
     SCC iter.                  ...        0 min,  0.005 sec
     gradient                   ...        0 min,  0.008 sec
 * total energy  :   -42.5131457 Eh     change       -0.3391009E-04 Eh
   gradient norm :     0.0042743 Eh/α   predicted    -0.3228045E-04 (  -4.81%)
   displ. norm   :     0.1207548 α      lambda       -0.9997898E-04
   maximum displ.:     0.0788683 α      in ANC's #3, #2, #9, ...

........................................................................
.............................. CYCLE   34 ..............................
........................................................................

 iter      E             dE          RMSdq      gap      omega  full diag
   1    -42.9027064 -0.429027E+02  0.607E-02    3.72       0.0  T
   2    -42.9027079 -0.150094E-05  0.363E-02    3.72       1.0  T
   3    -42.9027061  0.176125E-05  0.151E-02    3.72       1.4  T
   4    -42.9027086 -0.247308E-05  0.266E-03    3.72       8.2  T
   5    -42.9027086 -0.202929E-07  0.159E-03    3.72      13.7  T
   6    -42.9027086 -0.687912E-08  0.978E-04    3.72      22.3  T
   7    -42.9027086 -0.518067E-08  0.659E-04    3.72      33.1  T
     SCC iter.                  ...        0 min,  0.005 sec
     gradient                   ...        0 min,  0.008 sec
 * total energy  :   -42.5131937 Eh     change       -0.4802289E-04 Eh
   gradient norm :     0.0042205 Eh/α   predicted    -0.5072152E-04 (   5.62%)
   displ. norm   :     0.1677016 α      lambda       -0.6568395E-04
   maximum displ.:     0.0988747 α      in ANC's #3, #2, #4, ...

........................................................................
.............................. CYCLE   35 ..............................
........................................................................

 iter      E             dE          RMSdq      gap      omega  full diag
   1    -42.9017377 -0.429017E+02  0.706E-02    3.72       0.0  T
   2    -42.9017388 -0.119027E-05  0.425E-02    3.72       1.0  T
   3    -42.9017368  0.203829E-05  0.152E-02    3.72       1.4  T
   4    -42.9017395 -0.270797E-05  0.258E-03    3.72       8.5  T
   5    -42.9017395 -0.168381E-07  0.167E-03    3.72      13.1  T
   6    -42.9017395 -0.945778E-08  0.103E-03    3.72      21.3  T
   7    -42.9017396 -0.595912E-08  0.639E-04    3.72      34.2  T
   8    -42.9017396 -0.263545E-08  0.325E-04    3.72      67.1  T
     SCC iter.                  ...        0 min,  0.006 sec
     gradient                   ...        0 min,  0.008 sec
 * total energy  :   -42.5132442 Eh     change       -0.5047657E-04 Eh
   gradient norm :     0.0037944 Eh/α   predicted    -0.3376631E-04 ( -33.10%)
   displ. norm   :     0.2705545 α      lambda       -0.1030694E-03
   maximum displ.:     0.1739227 α      in ANC's #3, #2, #6, ...

........................................................................
.............................. CYCLE   36 ..............................
........................................................................

 iter      E             dE          RMSdq      gap      omega  full diag
   1    -42.8999842 -0.429000E+02  0.119E-01    3.72       0.0  T
   2    -42.8999878 -0.365375E-05  0.715E-02    3.72       1.0  T
   3    -42.8999821  0.570252E-05  0.259E-02    3.72       1.0  T
   4    -42.8999898 -0.771609E-05  0.460E-03    3.72       4.7  T
   5    -42.8999899 -0.539386E-07  0.297E-03    3.72       7.3  T
   6    -42.8999899 -0.318319E-07  0.191E-03    3.72      11.4  T
   7    -42.8999899 -0.211877E-07  0.112E-03    3.72      19.6  T
   8    -42.8999899 -0.783488E-08  0.591E-04    3.72      36.9  T
   9    -42.8999899 -0.181588E-08  0.145E-04    3.72     150.7  T
     SCC iter.                  ...        0 min,  0.007 sec
     gradient                   ...        0 min,  0.008 sec
 * total energy  :   -42.5133010 Eh     change       -0.5686565E-04 Eh
   gradient norm :     0.0048799 Eh/α   predicted    -0.5531049E-04 (  -2.73%)
   displ. norm   :     0.1021085 α      lambda       -0.9918480E-04
   maximum displ.:     0.0600195 α      in ANC's #1, #3, #2, ...

........................................................................
.............................. CYCLE   37 ..............................
........................................................................

 iter      E             dE          RMSdq      gap      omega  full diag
   1    -42.9014363 -0.429014E+02  0.503E-02    3.72       0.0  T
   2    -42.9014377 -0.136930E-05  0.299E-02    3.72       1.0  T
   3    -42.9014369  0.800663E-06  0.116E-02    3.72       1.9  T
   4    -42.9014382 -0.133869E-05  0.293E-03    3.72       7.4  T
   5    -42.9014383 -0.284376E-07  0.194E-03    3.72      11.3  T
   6    -42.9014383 -0.149942E-07  0.132E-03    3.72      16.6  T
   7    -42.9014383 -0.110637E-07  0.773E-04    3.72      28.2  T
   8    -42.9014383 -0.455473E-08  0.416E-04    3.72      52.5  T
     SCC iter.                  ...        0 min,  0.006 sec
     gradient                   ...        0 min,  0.008 sec
 * total energy  :   -42.5133358 Eh     change       -0.3475166E-04 Eh
   gradient norm :     0.0045087 Eh/α   predicted    -0.5011145E-04 (  44.20%)
   displ. norm   :     0.1371824 α      lambda       -0.6871423E-04
   maximum displ.:     0.0863465 α      in ANC's #3, #2, #9, ...

........................................................................
.............................. CYCLE   38 ..............................
........................................................................

 iter      E             dE          RMSdq      gap      omega  full diag
   1    -42.9011953 -0.429012E+02  0.653E-02    3.73       0.0  T
   2    -42.9011966 -0.122940E-05  0.394E-02    3.73       1.0  T
   3    -42.9011948  0.179754E-05  0.141E-02    3.73       1.5  T
   4    -42.9011972 -0.242584E-05  0.255E-03    3.73       8.6  T
   5    -42.9011972 -0.163978E-07  0.158E-03    3.73      13.8  T
   6    -42.9011972 -0.870769E-08  0.102E-03    3.73      21.3  T
   7    -42.9011972 -0.591401E-08  0.612E-04    3.73      35.7  T
   8    -42.9011972 -0.239156E-08  0.347E-04    3.73      62.9  T
     SCC iter.                  ...        0 min,  0.006 sec
     gradient                   ...        0 min,  0.008 sec
 * total energy  :   -42.5133858 Eh     change       -0.4998505E-04 Eh
   gradient norm :     0.0032427 Eh/α   predicted    -0.3501084E-04 ( -29.96%)
   displ. norm   :     0.2423537 α      lambda       -0.7645514E-04
   maximum displ.:     0.1439418 α      in ANC's #3, #2, #5, ...

........................................................................
.............................. CYCLE   39 ..............................
........................................................................

 iter      E             dE          RMSdq      gap      omega  full diag
   1    -42.9002944 -0.429003E+02  0.113E-01    3.73       0.0  T
   2    -42.9002986 -0.421610E-05  0.681E-02    3.73       1.0  T
   3    -42.9002930  0.559846E-05  0.252E-02    3.73       1.0  T
   4    -42.9003006 -0.761063E-05  0.453E-03    3.73       4.8  T
   5    -42.9003007 -0.570407E-07  0.283E-03    3.73       7.7  T
   6    -42.9003007 -0.287717E-07  0.188E-03    3.73      11.6  T
   7    -42.9003008 -0.200633E-07  0.110E-03    3.73      19.8  T
   8    -42.9003008 -0.807499E-08  0.626E-04    3.73      34.9  T
   9    -42.9003008 -0.227902E-08  0.199E-04    3.73     109.5  T
     SCC iter.                  ...        0 min,  0.007 sec
     gradient                   ...        0 min,  0.008 sec
 * total energy  :   -42.5134312 Eh     change       -0.4545683E-04 Eh
   gradient norm :     0.0050476 Eh/α   predicted    -0.4047429E-04 ( -10.96%)
   displ. norm   :     0.1003120 α      lambda       -0.7678127E-04
   maximum displ.:     0.0558412 α      in ANC's #5, #3, #1, ...

........................................................................
.............................. CYCLE   40 ..............................
........................................................................

 iter      E             dE          RMSdq      gap      omega  full diag
   1    -42.9022942 -0.429023E+02  0.524E-02    3.74       0.0  T
   2    -42.9022957 -0.153142E-05  0.317E-02    3.74       1.0  T
   3    -42.9022943  0.140535E-05  0.137E-02    3.74       1.6  T
   4    -42.9022964 -0.203950E-05  0.242E-03    3.74       9.0  T
   5    -42.9022964 -0.194233E-07  0.136E-03    3.74      16.1  T
   6    -42.9022964 -0.634545E-08  0.919E-04    3.74      23.8  T
   7    -42.9022964 -0.401491E-08  0.551E-04    3.74      39.6  T
     SCC iter.                  ...        0 min,  0.005 sec
     gradient                   ...        0 min,  0.008 sec
 * total energy  :   -42.5134766 Eh     change       -0.4541886E-04 Eh
   gradient norm :     0.0049047 Eh/α   predicted    -0.3878059E-04 ( -14.62%)
   displ. norm   :     0.3381696 α      lambda       -0.1076610E-03
   maximum displ.:     0.1924837 α      in ANC's #3, #5, #2, ...

........................................................................
.............................. CYCLE   41 ..............................
........................................................................

 iter      E             dE          RMSdq      gap      omega  full diag
   1    -42.9007302 -0.429007E+02  0.159E-01    3.76       0.0  T
   2    -42.9007392 -0.899358E-05  0.960E-02    3.75       1.0  T
   3    -42.9007287  0.105095E-04  0.342E-02    3.75       1.0  T
   4    -42.9007429 -0.142114E-04  0.603E-03    3.75       3.6  T
   5    -42.9007430 -0.114840E-06  0.367E-03    3.75       5.9  T
   6    -42.9007431 -0.523524E-07  0.246E-03    3.75       8.9  T
   7    -42.9007431 -0.314666E-07  0.136E-03    3.75      16.1  T
   8    -42.9007431 -0.115187E-07  0.795E-04    3.75      27.4  T
   9    -42.9007431 -0.386795E-08  0.163E-04    3.75     133.6  T
     SCC iter.                  ...        0 min,  0.007 sec
     gradient                   ...        0 min,  0.008 sec
 * total energy  :   -42.5135484 Eh     change       -0.7180083E-04 Eh
   gradient norm :     0.0069850 Eh/α   predicted    -0.5998787E-04 ( -16.45%)
   displ. norm   :     0.2320041 α      lambda       -0.1392242E-03
   maximum displ.:     0.1214975 α      in ANC's #3, #5, #2, ...

........................................................................
.............................. CYCLE   42 ..............................
........................................................................

 iter      E             dE          RMSdq      gap      omega  full diag
   1    -42.9008860 -0.429009E+02  0.107E-01    3.76       0.0  T
   2    -42.9008899 -0.391700E-05  0.648E-02    3.76       1.0  T
   3    -42.9008847  0.518988E-05  0.238E-02    3.76       1.0  T
   4    -42.9008916 -0.689422E-05  0.371E-03    3.76       5.9  T
   5    -42.9008917 -0.442217E-07  0.222E-03    3.76       9.8  T
   6    -42.9008917 -0.219103E-07  0.145E-03    3.76      15.0  T
   7    -42.9008917 -0.108704E-07  0.784E-04    3.76      27.8  T
   8    -42.9008917 -0.381822E-08  0.492E-04    3.76      44.3  T
     SCC iter.                  ...        0 min,  0.006 sec
     gradient                   ...        0 min,  0.008 sec
 * total energy  :   -42.5136410 Eh     change       -0.9257190E-04 Eh
   gradient norm :     0.0059300 Eh/α   predicted    -0.7336300E-04 ( -20.75%)
   displ. norm   :     0.1850161 α      lambda       -0.1118597E-03
   maximum displ.:     0.0970528 α      in ANC's #5, #3, #2, ...
 * RMSD in coord.:     0.7173388 α      energy gain  -0.2041873E-02 Eh

generating ANC from exact Hessian ...
Using Lindh-Hessian (1995)
 Shifting diagonal of input Hessian by   8.219136969783396E-003
 Lowest  eigenvalues of input Hessian
    0.000000    0.000000    0.000000    0.000000    0.000000    0.000000
    0.010000    0.011197    0.012292    0.013175    0.013655    0.015915
    0.018451    0.021638    0.024373    0.040420    0.041704    0.047591
 Highest eigenvalues
    1.675148    1.807462    1.818475    1.911803    2.114196    2.151927
 

........................................................................
.............................. CYCLE   43 ..............................
........................................................................

 iter      E             dE          RMSdq      gap      omega  full diag
   1    -42.9014180 -0.429014E+02  0.797E-02    3.77       0.0  T
   2    -42.9014201 -0.215233E-05  0.479E-02    3.77       1.0  T
   3    -42.9014170  0.309198E-05  0.189E-02    3.77       1.2  T
   4    -42.9014211 -0.410446E-05  0.262E-03    3.77       8.3  T
   5    -42.9014211 -0.221242E-07  0.143E-03    3.77      15.3  T
   6    -42.9014212 -0.702138E-08  0.884E-04    3.77      24.7  T
   7    -42.9014212 -0.338103E-08  0.482E-04    3.77      45.3  T
     SCC iter.                  ...        0 min,  0.005 sec
     gradient                   ...        0 min,  0.008 sec
 * total energy  :   -42.5137264 Eh     change       -0.8537485E-04 Eh
   gradient norm :     0.0045113 Eh/α   predicted     0.0000000E+00 (-100.00%)
   displ. norm   :     0.0469143 α      lambda       -0.2050063E-04
   maximum displ.:     0.0380414 α      in ANC's #4, #1, #5, ...

........................................................................
.............................. CYCLE   44 ..............................
........................................................................

 iter      E             dE          RMSdq      gap      omega  full diag
   1    -42.9023877 -0.429024E+02  0.189E-02    3.77       0.0  T
   2    -42.9023877 -0.682727E-07  0.113E-02    3.77       1.9  T
   3    -42.9023876  0.110234E-06  0.348E-03    3.77       6.3  T
   4    -42.9023878 -0.147554E-06  0.699E-04    3.77      31.2  T
   5    -42.9023878 -0.125153E-08  0.506E-04    3.77      43.1  T
     SCC iter.                  ...        0 min,  0.004 sec
     gradient                   ...        0 min,  0.008 sec
 * total energy  :   -42.5137739 Eh     change       -0.4752183E-04 Eh
   gradient norm :     0.0017995 Eh/α   predicted    -0.3043688E-04 ( -35.95%)
   displ. norm   :     0.1637693 α      lambda       -0.7283451E-04
   maximum displ.:     0.1349458 α      in ANC's #4, #1, #5, ...

........................................................................
.............................. CYCLE   45 ..............................
........................................................................

 iter      E             dE          RMSdq      gap      omega  full diag
   1    -42.9032942 -0.429033E+02  0.512E-02    3.78       0.0  T
   2    -42.9032946 -0.409990E-06  0.307E-02    3.78       1.0  T
   3    -42.9032942  0.461128E-06  0.694E-03    3.78       3.1  T
   4    -42.9032949 -0.673768E-06  0.197E-03    3.78      11.1  T
   5    -42.9032949 -0.115291E-07  0.146E-03    3.78      15.0  T
   6    -42.9032949 -0.117110E-07  0.978E-04    3.78      22.3  T
   7    -42.9032949 -0.748994E-08  0.611E-04    3.78      35.7  T
     SCC iter.                  ...        0 min,  0.005 sec
     gradient                   ...        0 min,  0.008 sec
 * total energy  :   -42.5138408 Eh     change       -0.6687207E-04 Eh
   gradient norm :     0.0036402 Eh/α   predicted    -0.3685290E-04 ( -44.89%)
   displ. norm   :     0.0652966 α      lambda       -0.3331709E-04
   maximum displ.:     0.0530765 α      in ANC's #4, #1, #3, ...

........................................................................
.............................. CYCLE   46 ..............................
........................................................................

 iter      E             dE          RMSdq      gap      omega  full diag
   1    -42.9030318 -0.429030E+02  0.182E-02    3.78       0.0  T
   2    -42.9030319 -0.114317E-06  0.110E-02    3.78       2.0  T
   3    -42.9030318  0.137351E-06  0.355E-03    3.78       6.1  T
   4    -42.9030320 -0.178904E-06  0.596E-04    3.78      36.6  T
   5    -42.9030320 -0.143334E-08  0.391E-04    3.78      55.8  T
     SCC iter.                  ...        0 min,  0.004 sec
     gradient                   ...        0 min,  0.008 sec
 * total energy  :   -42.5138711 Eh     change       -0.3029201E-04 Eh
   gradient norm :     0.0030897 Eh/α   predicted    -0.1674283E-04 ( -44.73%)
   displ. norm   :     0.1044636 α      lambda       -0.5248789E-04
   maximum displ.:     0.0795220 α      in ANC's #4, #1, #3, ...

........................................................................
.............................. CYCLE   47 ..............................
........................................................................

 iter      E             dE          RMSdq      gap      omega  full diag
   1    -42.9025542 -0.429026E+02  0.323E-02    3.78       0.0  T
   2    -42.9025548 -0.543152E-06  0.196E-02    3.78       1.1  T
   3    -42.9025542  0.573619E-06  0.866E-03    3.78       2.5  T
   4    -42.9025550 -0.809004E-06  0.115E-03    3.78      18.9  T
   5    -42.9025550 -0.540620E-08  0.705E-04    3.78      30.9  T
   6    -42.9025550 -0.209501E-08  0.491E-04    3.78      44.4  T
     SCC iter.                  ...        0 min,  0.005 sec
     gradient                   ...        0 min,  0.008 sec
 * total energy  :   -42.5139120 Eh     change       -0.4095797E-04 Eh
   gradient norm :     0.0015502 Eh/α   predicted    -0.2653166E-04 ( -35.22%)
   displ. norm   :     0.1587163 α      lambda       -0.3278060E-04
   maximum displ.:     0.1200563 α      in ANC's #4, #1, #3, ...

........................................................................
.............................. CYCLE   48 ..............................
........................................................................

 iter      E             dE          RMSdq      gap      omega  full diag
   1    -42.9017975 -0.429018E+02  0.522E-02    3.79       0.0  T
   2    -42.9017990 -0.143707E-05  0.316E-02    3.78       1.0  T
   3    -42.9017975  0.146775E-05  0.145E-02    3.78       1.5  T
   4    -42.9017996 -0.210750E-05  0.188E-03    3.78      11.6  T
   5    -42.9017996 -0.142055E-07  0.112E-03    3.78      19.4  T
   6    -42.9017996 -0.532903E-08  0.785E-04    3.78      27.8  T
   7    -42.9017996 -0.332609E-08  0.492E-04    3.78      44.4  T
     SCC iter.                  ...        0 min,  0.005 sec
     gradient                   ...        0 min,  0.008 sec
 * total energy  :   -42.5139381 Eh     change       -0.2610292E-04 Eh
   gradient norm :     0.0031346 Eh/α   predicted    -0.1657420E-04 ( -36.50%)
   displ. norm   :     0.0268981 α      lambda       -0.1392622E-04
   maximum displ.:     0.0193125 α      in ANC's #1, #4, #9, ...

........................................................................
.............................. CYCLE   49 ..............................
........................................................................

 iter      E             dE          RMSdq      gap      omega  full diag
   1    -42.9022023 -0.429022E+02  0.117E-02    3.79       0.0  T
   2    -42.9022023 -0.762486E-07  0.702E-03    3.78       3.1  T
   3    -42.9022023  0.658778E-07  0.330E-03    3.79       6.6  T
   4    -42.9022024 -0.101693E-06  0.571E-04    3.78      38.2  T
   5    -42.9022024 -0.105830E-08  0.378E-04    3.78      57.7  T
     SCC iter.                  ...        0 min,  0.004 sec
     gradient                   ...        0 min,  0.008 sec
 * total energy  :   -42.5139499 Eh     change       -0.1175510E-04 Eh
   gradient norm :     0.0022922 Eh/α   predicted    -0.6968369E-05 ( -40.72%)
   displ. norm   :     0.1154962 α      lambda       -0.3396026E-04
   maximum displ.:     0.0832321 α      in ANC's #1, #4, #9, ...

........................................................................
.............................. CYCLE   50 ..............................
........................................................................

 iter      E             dE          RMSdq      gap      omega  full diag
   1    -42.9028311 -0.429028E+02  0.487E-02    3.79       0.0  T
   2    -42.9028320 -0.854646E-06  0.294E-02    3.79       1.0  T
   3    -42.9028308  0.116313E-05  0.119E-02    3.79       1.8  T
   4    -42.9028324 -0.156427E-05  0.164E-03    3.79      13.3  T
   5    -42.9028324 -0.852086E-08  0.947E-04    3.79      23.0  T
   6    -42.9028324 -0.437703E-08  0.618E-04    3.79      35.3  T
     SCC iter.                  ...        0 min,  0.005 sec
     gradient                   ...        0 min,  0.008 sec
 * total energy  :   -42.5139718 Eh     change       -0.2196074E-04 Eh
   gradient norm :     0.0009041 Eh/α   predicted    -0.1721303E-04 ( -21.62%)
   displ. norm   :     0.0969876 α      lambda       -0.7543936E-05
   maximum displ.:     0.0757561 α      in ANC's #1, #4, #9, ...

........................................................................
.............................. CYCLE   51 ..............................
........................................................................

 iter      E             dE          RMSdq      gap      omega  full diag
   1    -42.9029520 -0.429030E+02  0.416E-02    3.79       0.0  T
   2    -42.9029525 -0.476068E-06  0.252E-02    3.79       1.0  T
   3    -42.9029518  0.687363E-06  0.847E-03    3.79       2.6  T
   4    -42.9029527 -0.895254E-06  0.131E-03    3.79      16.7  T
   5    -42.9029527 -0.520657E-08  0.759E-04    3.79      28.8  T
   6    -42.9029527 -0.256705E-08  0.492E-04    3.79      44.3  T
     SCC iter.                  ...        0 min,  0.005 sec
     gradient                   ...        0 min,  0.008 sec
 * total energy  :   -42.5139775 Eh     change       -0.5691286E-05 Eh
   gradient norm :     0.0009422 Eh/α   predicted    -0.3792143E-05 ( -33.37%)
   displ. norm   :     0.0213747 α      lambda       -0.3101792E-05
   maximum displ.:     0.0130015 α      in ANC's #4, #1, #5, ...

........................................................................
.............................. CYCLE   52 ..............................
........................................................................

 iter      E             dE          RMSdq      gap      omega  full diag
   1    -42.9032521 -0.429033E+02  0.775E-03    3.79       0.0  T
   2    -42.9032521 -0.216891E-07  0.465E-03    3.79       4.7  T
   3    -42.9032521  0.398557E-08  0.992E-04    3.79      22.0  T
   4    -42.9032521 -0.107074E-07  0.436E-04    3.79      50.0  T
     SCC iter.                  ...        0 min,  0.003 sec
     gradient                   ...        0 min,  0.008 sec
 * total energy  :   -42.5139804 Eh     change       -0.2870661E-05 Eh
   gradient norm :     0.0010444 Eh/α   predicted    -0.1551725E-05 ( -45.95%)
   displ. norm   :     0.0544245 α      lambda       -0.4794304E-05
   maximum displ.:     0.0494123 α      in ANC's #1, #2, #5, ...

........................................................................
.............................. CYCLE   53 ..............................
........................................................................

 iter      E             dE          RMSdq      gap      omega  full diag
   1    -42.9031472 -0.429031E+02  0.238E-02    3.79       0.0  T
   2    -42.9031473 -0.115458E-06  0.145E-02    3.79       1.5  T
   3    -42.9031472  0.116331E-06  0.304E-03    3.79       7.2  T
   4    -42.9031474 -0.158314E-06  0.757E-04    3.79      28.8  T
   5    -42.9031474 -0.178724E-08  0.499E-04    3.79      43.8  T
[...]
 SCC setup                      ...        0 min,  0.002 sec (  8.786%)
 Dispersion                     ...        0 min,  0.000 sec (  0.530%)
 classical contributions        ...        0 min,  0.000 sec (  0.145%)
 integral evaluation            ...        0 min,  0.004 sec ( 23.411%)
 iterations                     ...        0 min,  0.003 sec ( 18.771%)
 molecular gradient             ...        0 min,  0.009 sec ( 47.592%)
 printout                       ...        0 min,  0.000 sec (  0.664%)

         :::::::::::::::::::::::::::::::::::::::::::::::::::::
         ::                     SUMMARY                     ::
         :::::::::::::::::::::::::::::::::::::::::::::::::::::
         :: total energy             -42.514013516738 Eh    ::
         :: total w/o Gsasa/hb       -42.508878669663 Eh    ::
         :: gradient norm              0.000059129159 Eh/a0 ::
         :: HOMO-LUMO gap              3.809032034395 eV    ::
         ::.................................................::
         :: SCC energy               -42.902933773834 Eh    ::
         :: -> isotropic ES            0.058736550616 Eh    ::
         :: -> anisotropic ES          0.000583639736 Eh    ::
         :: -> anisotropic XC          0.001810078588 Eh    ::
         :: -> dispersion             -0.021454010926 Eh    ::
         :: -> Gsolv                  -0.013747253218 Eh    ::
         ::    -> Gelec               -0.008612406143 Eh    ::
         ::    -> Gsasa                0.000048234071 Eh    ::
         ::    -> Ghb                 -0.006263840845 Eh    ::
         ::    -> Gshift               0.001080759698 Eh    ::
         :: repulsion energy           0.388920257096 Eh    ::
         :: add. restraining           0.000000000000 Eh    ::
         :: total charge              -0.000000000000 e     ::
         :::::::::::::::::::::::::::::::::::::::::::::::::::::

           ------------------------------------------------- 
          |                Numerical Hessian                |
           ------------------------------------------------- 
step length          :   0.00500
SCC accuracy         :   0.30000
Hessian scale factor :   1.00000
frozen atoms in %    :   0.00000    0
RMS gradient         :   0.00006
estimated CPU  time      0.04 min
estimated wall time      0.04 min

writing file <hessian>.

 projected vibrational frequencies (cm⁻¹)
eigval :       -0.00    -0.00    -0.00     0.00     0.00     0.00
eigval :       28.40    31.94    91.46   133.97   143.75   170.14
eigval :      189.56   214.34   218.80   247.63   289.65   301.32
eigval :      323.55   327.36   368.16   388.66   443.10   447.49
eigval :      474.83   519.13   577.94   611.38   636.00   686.34
eigval :      749.64   840.35   899.53   930.85  1029.29  1074.16
eigval :     1107.15  1107.75  1137.87  1142.90  1152.34  1175.75
eigval :     1190.08  1274.41  1339.61  1387.92  1391.33  1419.62
eigval :     1446.92  1448.28  1450.76  1459.02  1466.64  1543.62
eigval :     1558.98  2989.82  2990.08  2996.26  2996.89  3026.81
eigval :     3030.51  3128.82  3354.26
           -------------------------------------------------
          |                Property Printout                |
           -------------------------------------------------

    * Orbital Energies and Occupations

         #    Occupation            Energy/Eh            Energy/eV
      -------------------------------------------------------------
         1        2.0000           -1.0696932             -29.1078
       ...           ...                  ...                  ...
        24        2.0000           -0.5046282             -13.7316
        25        2.0000           -0.4858055             -13.2194
        26        2.0000           -0.4819842             -13.1155
        27        2.0000           -0.4801926             -13.0667
        28        2.0000           -0.4700188             -12.7899
        29        2.0000           -0.4622018             -12.5772
        30        2.0000           -0.4534258             -12.3383
        31        2.0000           -0.4499658             -12.2442
        32        2.0000           -0.4303856             -11.7114
        33        2.0000           -0.4251752             -11.5696
        34        2.0000           -0.4233618             -11.5203
        35        2.0000           -0.3868251             -10.5260
        36        2.0000           -0.3821109             -10.3978 (HOMO)
        37                         -0.2421315              -6.5887 (LUMO)
        38                         -0.2386769              -6.4947
        39                         -0.1680522              -4.5729
        40                         -0.1399162              -3.8073
        41                         -0.1204972              -3.2789
        42                         -0.0217021              -0.5905
        43                         -0.0000580              -0.0016
        44                          0.0044520               0.1211
        45                          0.0054632               0.1487
        46                          0.0086026               0.2341
        47                          0.0090431               0.2461
       ...                                ...                  ...
        70                          0.6374836              17.3468
      -------------------------------------------------------------
                  HL-Gap            0.1399793 Eh            3.8090 eV
             Fermi-level           -0.3121212 Eh           -8.4933 eV

     #   Z          covCN         q      C6AA      α(0)
     1   6 C        3.634     0.012    20.768     6.559
     2   8 O        1.705    -0.275    18.555     5.816
     3   6 C        2.866     0.098    25.815     8.328
     4   6 C        2.883     0.054    26.782     8.484
     5   6 C        3.008    -0.072    29.768     8.950
     6   6 C        2.891     0.061    26.632     8.461
     7   6 C        2.888     0.115    25.473     8.275
     8   6 C        2.849     0.098    25.831     8.330
     9   8 O        1.658    -0.416    21.156     6.209
    10   8 O        1.705    -0.268    18.439     5.798
    11   6 C        3.635     0.012    20.750     6.555
    12  17 Cl       0.974    -0.172   104.554    15.643
    13  17 Cl       0.965    -0.181   104.845    15.665
    14   1 H        0.925     0.091     1.866     2.136
    15   1 H        0.925     0.062     2.177     2.307
    16   1 H        0.924     0.066     2.133     2.284
    17   1 H        0.926     0.097     1.811     2.105
    18   1 H        0.804     0.389     0.506     1.118
    19   1 H        0.925     0.072     2.068     2.249
    20   1 H        0.925     0.085     1.927     2.171
    21   1 H        0.925     0.072     2.068     2.249

 Mol. C6AA /au·bohr⁶  :       7092.968715
 Mol. C8AA /au·bohr⁸  :     196516.392393
 Mol. α(0) /au        :        129.690547


Wiberg/Mayer (AO) data.
largest (>0.10) Wiberg bond orders for each atom

 ---------------------------------------------------------------------------
     #   Z sym  total        # sym  WBO       # sym  WBO       # sym  WBO
 ---------------------------------------------------------------------------
     1   6 C    3.917 --    15 H    0.980    16 H    0.976    14 H    0.974
                             2 O    0.955
     2   8 O    2.220 --     3 C    1.065     1 C    0.955
     3   6 C    3.945 --     4 C    1.363     8 C    1.278     2 O    1.065
     4   6 C    3.906 --     5 C    1.374     3 C    1.363    13 Cl   0.958
     5   6 C    3.979 --     6 C    1.430     4 C    1.374    17 H    0.960
     6   6 C    3.908 --     5 C    1.430     7 C    1.303    12 Cl   0.970
     7   6 C    3.948 --     8 C    1.326     6 C    1.303    10 O    1.089
     8   6 C    3.951 --     7 C    1.326     3 C    1.278     9 O    1.096
     9   8 O    2.101 --     8 C    1.096    18 H    0.816
    10   8 O    2.239 --     7 C    1.089    11 C    0.955
    11   6 C    3.914 --    21 H    0.977    19 H    0.977    20 H    0.977
                            10 O    0.955
    12  17 Cl   1.096 --     6 C    0.970
    13  17 Cl   1.084 --     4 C    0.958
    14   1 H    0.991 --     1 C    0.974
    15   1 H    0.996 --     1 C    0.980
    16   1 H    0.994 --     1 C    0.976
    17   1 H    0.990 --     5 C    0.960
    18   1 H    0.848 --     9 O    0.816
    19   1 H    0.995 --    11 C    0.977
    20   1 H    0.992 --    11 C    0.977
    21   1 H    0.995 --    11 C    0.977
 ---------------------------------------------------------------------------

Topologies differ in total number of bonds
Writing topology from bond orders to xtbtopo.mol

molecular dipole:
                 x           y           z       tot (Debye)
 q only:       -0.960       1.783       0.289
   full:       -1.154       1.555       0.293       4.978
molecular quadrupole (traceless):
                xx          xy          yy          xz          yz          zz
 q only:       -0.884       0.160       3.855      -2.931       0.911      -2.971
  q+dip:       -1.358       0.203       2.803      -2.261       1.346      -1.446
   full:       -0.862       0.416       2.140      -2.567       1.309      -1.278

           -------------------------------------------------
          |                Geometry Summary                 |
           -------------------------------------------------

      molecular mass/u    :      223.0535031
   center of mass at/Å    :        0.0118291       0.0218934       0.0341521
  moments of inertia/u·Å² :        0.5831185E+03   0.1076034E+04   0.1646512E+04
rotational constants/cm⁻¹ :        0.2890944E-01   0.1566645E-01   0.1023839E-01

 * 21 selected distances

     #   Z          #   Z                                           value/Å
     1   6 C        2   8 O                                       1.4201279
     2   8 O        3   6 C                                       1.3663557
     3   6 C        4   6 C                                       1.3888509
     4   6 C        5   6 C                                       1.3883576
     5   6 C        6   6 C                                       1.3753252
     6   6 C        7   6 C                                       1.4012644
     3   6 C        8   6 C                                       1.4147188
     7   6 C        8   6 C                                       1.3975619
     8   6 C        9   8 O                                       1.3573707
     7   6 C       10   8 O                                       1.3551162
    10   8 O       11   6 C                                       1.4208035
     6   6 C       12  17 Cl                                      1.7281003
     4   6 C       13  17 Cl                                      1.7397341 (max)
     1   6 C       14   1 H                                       1.0883809
     1   6 C       15   1 H                                       1.0900925
     1   6 C       16   1 H                                       1.0902110
     5   6 C       17   1 H                                       1.0765262
     9   8 O       18   1 H                                       0.9745137 (min)
    11   6 C       19   1 H                                       1.0899199
    11   6 C       20   1 H                                       1.0879324
    11   6 C       21   1 H                                       1.0899457

 * 5 distinct bonds (by element types)

   Z      Z             #   av. dist./Å        max./Å        min./Å
   1 H    6 C           7     1.0875727     1.0902110     1.0765262
   6 C    6 C           6     1.3943464     1.4147188     1.3753252
   1 H    8 O           1     0.9745137     0.9745137     0.9745137
   6 C    8 O           5     1.3839548     1.4208035     1.3551162
   6 C   17 Cl          2     1.7339172     1.7397341     1.7281003

           -------------------------------------------------
          |               Frequency Printout                |
           -------------------------------------------------
 projected vibrational frequencies (cm⁻¹)
eigval :       -0.00    -0.00    -0.00     0.00     0.00     0.00
eigval :       28.40    31.94    91.46   133.97   143.75   170.14
eigval :      189.56   214.34   218.80   247.63   289.65   301.32
eigval :      323.55   327.36   368.16   388.66   443.10   447.49
eigval :      474.83   519.13   577.94   611.38   636.00   686.34
eigval :      749.64   840.35   899.53   930.85  1029.29  1074.16
eigval :     1107.15  1107.75  1137.87  1142.90  1152.34  1175.75
eigval :     1190.08  1274.41  1339.61  1387.92  1391.33  1419.62
eigval :     1446.92  1448.28  1450.76  1459.02  1466.64  1543.62
eigval :     1558.98  2989.82  2990.08  2996.26  2996.89  3026.81
eigval :     3030.51  3128.82  3354.26
 reduced masses (amu)
   1: 17.62   2: 26.49   3: 20.59   4: 22.01   5: 22.33   6: 17.11   7: 16.09   8: 10.71
   9: 18.26  10: 13.55  11: 18.44  12: 27.32  13: 17.48  14: 12.05  15:  2.45  16: 11.71
  17: 11.40  18: 21.31  19: 14.63  20: 15.43  21: 17.28  22: 18.93  23:  3.93  24: 12.55
  25: 14.93  26: 11.48  27: 12.17  28: 12.15  29: 12.08  30: 13.49  31: 13.86  32:  3.36
  33: 12.13  34: 12.68  35: 12.51  36: 11.35  37:  3.65  38:  3.77  39:  4.82  40:  6.89
  41: 10.26  42:  7.56  43:  5.09  44: 11.80  45: 11.38  46:  2.72  47:  3.00  48: 10.44
  49: 10.66  50:  1.54  51:  2.59  52:  1.62  53:  1.82  54: 11.95  55: 11.78  56:  1.97
  57:  1.96  58:  1.46  59:  1.43  60:  1.71  61:  1.73  62:  1.85  63:  1.86
 IR intensities (km·mol⁻¹)
   1:  0.32   2:  0.72   3:  0.23   4:  0.30   5:  0.20   6:  0.44   7:  2.62   8:  7.91
   9:  1.37  10:  5.54  11:  1.11  12:  0.29  13:  3.60  14:  1.59  15:  0.02  16:  1.04
  17:  0.55  18:  0.70  19:  1.68  20:  8.03  21:  5.42  22:  6.10  23:175.46  24: 41.91
  25:  3.53  26: 11.44  27:  0.25  28: 10.93  29:  1.80  30: 41.23  31: 53.02  32: 16.32
  33:  9.56  34:252.42  35: 52.59  36:149.85  37:  1.89  38:  7.81  39:112.49  40: 13.80
  41:168.38  42:402.23  43:131.38  44:170.50  45: 21.66  46:  6.43  47: 34.46  48:504.17
  49:481.35  50:  9.23  51: 76.47  52: 13.72  53: 59.35  54: 76.33  55: 63.62  56: 22.95
  57: 26.18  58: 39.95  59: 27.32  60: 17.18  61: 13.65  62:  0.00  63:282.85
 Raman intensities (Ä⁴*amu⁻¹)
   1:  0.00   2:  0.00   3:  0.00   4:  0.00   5:  0.00   6:  0.00   7:  0.00   8:  0.00
   9:  0.00  10:  0.00  11:  0.00  12:  0.00  13:  0.00  14:  0.00  15:  0.00  16:  0.00
  17:  0.00  18:  0.00  19:  0.00  20:  0.00  21:  0.00  22:  0.00  23:  0.00  24:  0.00
  25:  0.00  26:  0.00  27:  0.00  28:  0.00  29:  0.00  30:  0.00  31:  0.00  32:  0.00
  33:  0.00  34:  0.00  35:  0.00  36:  0.00  37:  0.00  38:  0.00  39:  0.00  40:  0.00
  41:  0.00  42:  0.00  43:  0.00  44:  0.00  45:  0.00  46:  0.00  47:  0.00  48:  0.00
  49:  0.00  50:  0.00  51:  0.00  52:  0.00  53:  0.00  54:  0.00  55:  0.00  56:  0.00
  57:  0.00  58:  0.00  59:  0.00  60:  0.00  61:  0.00  62:  0.00  63:  0.00
 output can be read by thermo (or use thermo option).
 writing <g98.out> molden fake output.
 recommended (thermochemical) frequency scaling factor: 1.0
           -------------------------------------------------
          |             Thermodynamic Functions             |
           -------------------------------------------------

Molecule has no symmetry elements
It seems to be the C1 point group
c1  symmetry found (for desy threshold:  0.10E+00) used in thermo

          ...................................................
          :                      SETUP                      :
          :.................................................:
          :  # frequencies                          57      :
          :  # imaginary freq.                       0      :
          :  linear?                             false      :
          :  only rotor calc.                    false      :
          :  symmetry                               c1      :
          :  rotational number                       1      :
          :  scaling factor                  1.0000000      :
          :  rotor cutoff                    0.0000000 cm⁻¹ :
          :  imag. cutoff                 -100.0000000 cm⁻¹ :
          :.................................................:

    mode    ω/cm⁻¹     T·S(HO)/kcal·mol⁻¹    T·S(FR)/kcal·mol⁻¹   T·S(vib)
   ------------------------------------------------------------------------
       1     28.40    -1.77048 (100.00%)    -1.22396 (  0.00%)    -1.77048
       2     31.94    -1.70099 (100.00%)    -1.18918 (  0.00%)    -1.70099
       3     91.46    -1.08189 (100.00%)    -0.87762 (  0.00%)    -1.08189
       4    133.97    -0.86115 (100.00%)    -0.76455 (  0.00%)    -0.86115
       5    143.75    -0.82090 (100.00%)    -0.74367 (  0.00%)    -0.82090
       6    170.14    -0.72567 (100.00%)    -0.69374 (  0.00%)    -0.72567
       7    189.56    -0.66551 (100.00%)    -0.66173 (  0.00%)    -0.66551
       8    214.34    -0.59820 (100.00%)    -0.62533 (  0.00%)    -0.59820
       9    218.80    -0.58706 (100.00%)    -0.61924 (  0.00%)    -0.58706
      10    247.63    -0.52098 (100.00%)    -0.58257 (  0.00%)    -0.52098
      11    289.65    -0.44007 (100.00%)    -0.53614 (  0.00%)    -0.44007
   ------------------------------------------------------------------------

   temp. (K)  partition function   enthalpy   heat capacity  entropy
                                   cal/mol     cal/K/mol   cal/K/mol   J/K/mol
 298.15  VIB  0.551E+05             6902.204     43.505     44.847
         ROT  0.246E+07              888.752      2.981     32.221
         INT  0.135E+12             7790.956     46.486     77.068
         TR   0.322E+28             1481.254      4.968     42.090
         TOT                        9272.2100    51.4537   119.1577   498.5559

       T/K    H(0)-H(T)+PV         H(T)/Eh          T*S/Eh         G(T)/Eh
   ------------------------------------------------------------------------
    298.15    0.147762E-01    0.158536E+00    0.566157E-01    0.101920E+00
   ------------------------------------------------------------------------

         :::::::::::::::::::::::::::::::::::::::::::::::::::::
         ::                  THERMODYNAMIC                  ::
         :::::::::::::::::::::::::::::::::::::::::::::::::::::
         :: total free energy         -42.412093430668 Eh   ::
         ::.................................................::
         :: total energy              -42.514013516914 Eh   ::
         :: zero point energy           0.143759560830 Eh   ::
         :: G(RRHO) w/o ZPVE           -0.041839474584 Eh   ::
         :: G(RRHO) contrib.            0.101920086246 Eh   ::
         :::::::::::::::::::::::::::::::::::::::::::::::::::::

optimized geometry written to: xtbopt.coord


           -------------------------------------------------
          | TOTAL ENERGY              -42.514013516914 Eh   |
          | TOTAL ENTHALPY            -42.355477748928 Eh   |
          | TOTAL FREE ENERGY         -42.412093430668 Eh   |
          | GRADIENT NORM               0.000059512869 Eh/α |
          | HOMO-LUMO GAP               3.809031285386 eV   |
           -------------------------------------------------

------------------------------------------------------------------------
 * finished run on 2025/04/11 at 13:07:54.953     
------------------------------------------------------------------------
 total:
 * wall-time:     0 d,  0 h,  0 min,  3.627 sec
 *  cpu-time:     0 d,  0 h,  0 min,  3.529 sec
 * ratio c/w:     0.973 speedup
 SCF:
 * wall-time:     0 d,  0 h,  0 min,  0.033 sec
 *  cpu-time:     0 d,  0 h,  0 min,  0.033 sec
 * ratio c/w:     0.994 speedup
 ANC optimizer:
 * wall-time:     0 d,  0 h,  0 min,  1.234 sec
 *  cpu-time:     0 d,  0 h,  0 min,  1.213 sec
 * ratio c/w:     0.983 speedup
 analytical hessian:
 * wall-time:     0 d,  0 h,  0 min,  2.275 sec
 *  cpu-time:     0 d,  0 h,  0 min,  2.259 sec
 * ratio c/w:     0.993 speedup

