21
 energy: -42.506199183077 gnorm: 0.033076445868 xtb: 6.7.1 (edcfbbe)
C           -3.27908156360943        1.30416076901788        0.81787421088781
O           -2.41365551785236        1.32771138945869       -0.35203700677656
C           -1.24337391329339        0.62973311924560       -0.17195434912515
C           -1.13151237685709       -0.74023006192300       -0.40106054347252
C            0.07436654106647       -1.41101876488287       -0.24200250903490
C            1.18789406406297       -0.67635305132371        0.14624425607364
C            1.12707250409514        0.69779051201600        0.37843331630972
C           -0.10290211031688        1.34642028875599        0.21311177895321
O           -0.15864178980741        2.68518351760521        0.43826274391167
O            2.21868221613374        1.41245288635957        0.80090937877270
C            2.93827536569429        2.04223257120737       -0.29105481805918
Cl           2.71878813554291       -1.49785921787925        0.34990213094921
Cl          -2.54351046196079       -1.63383008639178       -0.91971026775786
H           -4.15669954446028        1.89549243735166        0.55411354858824
H           -2.76649901417027        1.75179344964993        1.67576279045258
H           -3.57640500234946        0.27778322372537        1.05289577586249
H            0.14584857044183       -2.47608847220954       -0.42254642354914
H           -1.05869527562317        2.98669023279317        0.22998174931905
H            3.31539884838777        1.28374379722697       -0.98415834468005
H            3.77247162606216        2.57685189027249        0.16414496588465
H            2.28955887079975        2.74518353221444       -0.82213359368692
21
 energy: -42.507591596959 gnorm: 0.018303587719 xtb: 6.7.1 (edcfbbe)
C           -3.28045016293641        1.29527943171242        0.82172590854815
O           -2.41323843132852        1.33413826723811       -0.33074146243150
C           -1.24019393777191        0.63467491657362       -0.16674689834083
C           -1.13173389575105       -0.73286734094533       -0.39598917544406
C            0.07079187757315       -1.40140167735238       -0.24159853248815
C            1.18522863396535       -0.67557931753134        0.14439330746363
C            1.13174664316972        0.69565420129370        0.37681245695395
C           -0.09699364086070        1.34973197907218        0.21270034017325
O           -0.15566192578591        2.68407576318872        0.41770601734543
O            2.23426361644332        1.40014009841595        0.78739731199634
C            2.93956838625613        2.04092874843762       -0.28996095618071
Cl           2.70531815999518       -1.49685502140602        0.35012948525863
Cl          -2.54000341654987       -1.62105944095763       -0.90498320430353
H           -4.14947071268185        1.88876513781494        0.54898352562899
H           -2.77582459947029        1.72816637029482        1.68804986782618
H           -3.57841801336256        0.26918002601885        1.04038320957003
H            0.13968407085239       -2.46156178933543       -0.42110643137182
H           -1.05284709763794        2.99196852845228        0.19500753944932
H            3.31293636669832        1.29064454519006       -0.99068793932986
H            3.76785376715667        2.56678221566043        0.17781908847224
H            2.28482448401331        2.74703832045462       -0.80431466897296
21
 energy: -42.508265774058 gnorm: 0.006329722733 xtb: 6.7.1 (edcfbbe)
C           -3.28284058554470        1.28148337572667        0.82361793740451
O           -2.40777896937397        1.34903151073014       -0.30669300165082
C           -1.23484372686875        0.64138178614499       -0.16026261436663
C           -1.13781194308261       -0.72651770951036       -0.38611151071201
C            0.06197027488556       -1.39665921637001       -0.23666345860749
C            1.18124822561945       -0.68029738659923        0.14608331691734
C            1.13846607072288        0.69133777907014        0.37222485927241
C           -0.08545233287549        1.35601259095753        0.20488464010328
O           -0.14533650944954        2.68607979690784        0.38720007354640
O            2.25489167418742        1.38006361415680        0.77500495946646
C            2.94192371620116        2.04362211336453       -0.28471568158281
Cl           2.68814033152540       -1.50172666580855        0.35094156212232
Cl          -2.54331410963539       -1.60420061552656       -0.88497044124136
H           -4.14458952098470        1.88076277598443        0.54866543719671
H           -2.79541798208571        1.69148780514081        1.71054448603941
H           -3.58843139280602        0.25362606460988        1.01907443306738
H            0.12691330708154       -2.45396797503117       -0.41774761964408
H           -1.03844011470700        3.00260062107773        0.14900633769660
H            3.31529723955284        1.31437012817621       -1.00755256548613
H            3.76826422686344        2.55964033974564        0.19270050082025
H            2.28452229276070        2.75971322934275       -0.78025286053902
21
 energy: -42.508560538822 gnorm: 0.005827277993 xtb: 6.7.1 (edcfbbe)
C           -3.28697268501952        1.26971439000705        0.82185880076584
O           -2.39843871280352        1.36631016832133       -0.29133666983686
C           -1.22933142930503        0.64730387533652       -0.15449267966743
C           -1.14582249574046       -0.72242434714958       -0.37640865890375
C            0.05173729711825       -1.39824916537146       -0.22971574778377
C            1.17800615902793       -0.68859374444666        0.14663940257146
C            1.14548179401139        0.68562483047512        0.36406774713890
C           -0.07285452903039        1.36025341992355        0.19543004243793
O           -0.12784599931348        2.69028722334468        0.36095778841178
O            2.27234551204702        1.36008875239887        0.76590151320984
C            2.94460521224110        2.05272179005504       -0.28044638388181
Cl           2.67510795114338       -1.51547147230078        0.35366222477271
Cl          -2.55443541636842       -1.59133131246238       -0.86448156608006
H           -4.14557726545158        1.87627203900009        0.55172237215860
H           -2.81420602905896        1.65727098547239        1.72888576258318
H           -3.59911902973886        0.23774470911285        0.99175841967545
H            0.11054795045008       -2.45660357759318       -0.40841095844931
H           -1.01970796622202        3.01093087616859        0.12149280727049
H            3.31726826408146        1.34529036677424       -1.02787075405069
H            3.77377899607944        2.56066750836703        0.20155081960812
H            2.28281259383869        2.78003664685691       -0.75578549212792
21
 energy: -42.508862363488 gnorm: 0.008031034068 xtb: 6.7.1 (edcfbbe)
C           -3.29222867418158        1.25866478245772        0.81757983888877
O           -2.38384046978373        1.38859184413288       -0.27610057929902
C           -1.22183947773679        0.65372446502335       -0.14760042546681
C           -1.15536456494639       -0.71848239541641       -0.36428352065898
C            0.03881874124770       -1.40370410151011       -0.21865221258556
C            1.17416879286935       -0.70191250388567        0.14908803957474
C            1.15493093188251        0.67633519995823        0.35300812705977
C           -0.05605634973344        1.36261950651994        0.18367468991557
O           -0.10152732011401        2.69457691080181        0.33408210933621
O            2.29339128028460        1.33389141344680        0.75413127793102
C            2.94544925489661        2.06804076548841       -0.27795948951919
Cl           2.66166595471607       -1.53911225677557        0.35893484784078
Cl          -2.56924786015749       -1.57747595155801       -0.84579616521434
H           -4.14970449724683        1.87134591203343        0.55336702911171
H           -2.83657566055263        1.62400855826923        1.74434253515656
H           -3.60740968756397        0.22171176192144        0.95819016643108
H            0.08895302469253       -2.46447948998011       -0.39393384563483
H           -0.99523635349344        3.01657094899158        0.10574055670815
H            3.31794163774730        1.38813236155153       -1.05392824348918
H            3.77807551048951        2.56968992475071        0.20694884015371
H            2.27301595867059        2.80510630606908       -0.72585478641744
21
 energy: -42.509169874615 gnorm: 0.011354457121 xtb: 6.7.1 (edcfbbe)
C           -3.29770069110270        1.24750183545218        0.81107970163794
O           -2.36348375973366        1.41634731278273       -0.25802596006230
C           -1.21160785380966        0.66154096326152       -0.14028503424153
C           -1.16609457739410       -0.71325005042717       -0.34961414425334
C            0.02214073866419       -1.41200008150022       -0.20333156322809
C            1.16912856584735       -0.72107259014039        0.15215190239016
C            1.16839165036878        0.66187280036744        0.33805577589243
C           -0.03351868148035        1.36214183343140        0.16926832011386
O           -0.06394397601752        2.69731715121063        0.30462813891112
O            2.32083076246074        1.29861692132350        0.73560754355289
C            2.94343460833319        2.09110787149630       -0.27725140759463
Cl           2.64539235183174       -1.57527906845320        0.36601258745782
Cl          -2.58855060173139       -1.56136661659703       -0.82381076905447
H           -4.15397433631519        1.86541001385108        0.55084085673931
H           -2.86313311166232        1.58809347795045        1.75837917043412
H           -3.61290870180868        0.20542374296697        0.91539943389860
H            0.05909304135850       -2.47608521824396       -0.37128557423137
H           -0.96215021978982        3.02002633624403        0.09752165741959
H            3.31534776487287        1.44837914437287       -1.08781327651846
H            3.77836422610883        2.58656752642574        0.21229484293702
H            2.25232297298565        2.83655065651540       -0.68484341237794
21
 energy: -42.509421604661 gnorm: 0.014791980663 xtb: 6.7.1 (edcfbbe)
C           -3.30283654634524        1.23693476853314        0.80343335463280
O           -2.34048476923520        1.44519186130847       -0.23720601761397
C           -1.20038871250857        0.66977654717137       -0.13359672815445
C           -1.17717954752609       -0.70739083733451       -0.33227385652015
C            0.00305220562883       -1.42164423175116       -0.18495571492853
C            1.16309377207584       -0.74346619135522        0.15392696011403
C            1.18479256991178        0.64398142680081        0.31834889416658
C           -0.00793518252671        1.35850208335083        0.15184412874137
O           -0.01977663947711        2.69737560585721        0.27321902632354
O            2.35140297192047        1.25884347382462        0.70822120430265
C            2.93995955122753        2.12014033536986       -0.27727432349911
Cl           2.62716098714429       -1.61980560824475        0.37135710385699
Cl          -2.61043901703287       -1.54609471754622       -0.79654715588081
H           -4.15526578484069        1.86216722397561        0.54507910822387
H           -2.89034629873614        1.54770505824109        1.77117988695652
H           -3.61848050514960        0.19140715607531        0.86567467245403
H            0.02318464269432       -2.48924273037601       -0.34118356421464
H           -0.92374014468297        3.02150555517931        0.09388770345834
H            3.30927563461903        1.52260628991949       -1.12492799401128
H            3.77554736090576        2.60710453478083        0.22127647564982
H            2.22678362391978        2.87224635851026       -0.63450437423485
21
 energy: -42.509706973525 gnorm: 0.010673366164 xtb: 6.7.1 (edcfbbe)
C           -3.30445098302428        1.23552651946334        0.80005399968403
O           -2.33124937249802        1.45359354994449       -0.22772025843452
C           -1.19686613984462        0.67179677722637       -0.13228283330586
C           -1.18067228948722       -0.70574852012168       -0.32375979025816
C           -0.00476664756992       -1.42621088860797       -0.17565027115217
C            1.16033364123624       -0.75313794860605        0.15251693246949
C            1.19250092722685        0.63534608573872        0.30564540799212
C            0.00187437161731        1.35306975305145        0.14255818433915
O           -0.00090072749389        2.69382097043571        0.26229999271376
O            2.36243779721025        1.24369197762808        0.68763917612713
C            2.93809881285510        2.13550940780577       -0.27803941820528
Cl           2.62065292185365       -1.64165496272455        0.36965209452063
Cl          -2.61873643427821       -1.54540300663065       -0.78360430296123
H           -4.15180787213450        1.86729186751126        0.54124272219829
H           -2.89844486035404        1.53032856518821        1.77249284074938
H           -3.62223307191638        0.19229015340733        0.84326833962293
H            0.00661149165924       -2.49508834254995       -0.32303521736946
H           -0.90778945110415        3.01876467132513        0.09998530797823
H            3.30406354569553        1.56105029453455       -1.13754427679215
H            3.77222581037804        2.61629779040546        0.22878597512006
H            2.21649870195943        2.88670924786535       -0.60952581521362
21
 energy: -42.510111994064 gnorm: 0.006920313624 xtb: 6.7.1 (edcfbbe)
C           -3.30579277705143        1.23995766422384        0.79174081906375
O           -2.31343271030180        1.46560116529399       -0.21300952560245
C           -1.19091956555263        0.67238651178073       -0.12778683853951
C           -1.18249168277072       -0.70566250164853       -0.30731402987048
C           -0.01425960259751       -1.43471799818424       -0.15862641489326
C            1.15805322595111       -0.77025926707778        0.14978886102098
C            1.20778216350727        0.61709900916580        0.28862862514690
C            0.01703447021591        1.33860011283807        0.13574892291250
O            0.02506331630337        2.68116050302394        0.25502656056664
O            2.38584832114993        1.21308343074050        0.64897870221189
C            2.92951613831032        2.15882362548502       -0.28266433979767
Cl           2.61439815182102       -1.67453704979405        0.36403024343773
Cl          -2.62583077207749       -1.54999494214089       -0.76239870696718
H           -4.13541018235224        1.89160269246507        0.52715342586162
H           -2.91190505774931        1.50191050337566        1.77674413692308
H           -3.64080886109746        0.20383311613730        0.79982990275564
H           -0.01642313635260       -2.50367390702851       -0.29092834731036
H           -0.88352171536932        3.00997739297651        0.11200154318542
H            3.28426683319349        1.63433439845349       -1.17686667490533
H            3.76423544541235        2.62037914853624        0.23940123746182
H            2.19197816939417        2.91794035366828       -0.55449931283897
21
 energy: -42.510372741778 gnorm: 0.007260464345 xtb: 6.7.1 (edcfbbe)
C           -3.30955735776070        1.24558337736493        0.78099421145381
O           -2.29580035784830        1.47649598670634       -0.20068189505042
C           -1.18524703196539        0.67096825575278       -0.11978213457614
C           -1.18299152249639       -0.70819217708052       -0.29065084242997
C           -0.02034711628071       -1.44362262207159       -0.14322735940798
C            1.15854560727079       -0.78566916027219        0.14769198378577
C            1.22320153182931        0.60124437344435        0.27442361508752
C            0.03050820794008        1.32561576349731        0.13478790399879
O            0.04305938790123        2.66852257904413        0.25642611740189
O            2.40978641341563        1.18621299733228        0.61204551834915
C            2.92142494189546        2.17910161289955       -0.28581601948045
Cl           2.61305572059288       -1.69875960418563        0.35351957418441
Cl          -2.63054634952962       -1.55508953146866       -0.74075342952712
H           -4.11704826191170        1.92434537959791        0.51559562912381
H           -2.92765845892926        1.47186882689592        1.78105861398183
H           -3.67011955869942        0.21716606887706        0.75434298057924
H           -0.03255321788200       -2.51213503517469       -0.26479448032384
H           -0.86537910527627        3.00162891998513        0.12381717257427
H            3.26115740226860        1.69986685903694       -1.20897842047788
H            3.76116125080173        2.62162364425151        0.24199906740667
H            2.17272804665044        2.94106744785762       -0.50703901683059
21
 energy: -42.510600659848 gnorm: 0.010636664908 xtb: 6.7.1 (edcfbbe)
C           -3.31459695226614        1.25686575142476        0.76613354640380
O           -2.27746168385891        1.48116558063030       -0.18934348766909
C           -1.17874178045312        0.66352245988390       -0.10805730504795
C           -1.18367082720943       -0.71710886888845       -0.27034985503223
C           -0.02481922145952       -1.45768209779765       -0.12777069742379
C            1.16151479748544       -0.80504069342834        0.14219237685912
C            1.24014730678176        0.58197995857550        0.25681202498644
C            0.04508115763790        1.30984397662785        0.13500657745378
O            0.05952942169188        2.65294581099986        0.25986797193718
O            2.43883772805537        1.15142508379016        0.56832954879528
C            2.91119035771245        2.20272678705432       -0.28493935531063
Cl           2.61428644062554       -1.72413531784023        0.33632399261559
Cl          -2.63581080549916       -1.56468313499045       -0.71190790336915
H           -4.09625372207917        1.96630758743496        0.50435942810686
H           -2.94408942038551        1.44898945875773        1.77487392178619
H           -3.70451180399876        0.24241891169893        0.71169808894259
H           -0.04578780818871       -2.52635027487874       -0.23862886524540
H           -0.84822493029528        2.99065041665236        0.13496354887754
H            3.22768337205546        1.78238742369883       -1.24933564056512
H            3.76282242998101        2.61932375130988        0.24451370786942
H            2.15025611565326        2.97229139157508       -0.43976283514764
21
 energy: -42.510642889261 gnorm: 0.016327852716 xtb: 6.7.1 (edcfbbe)
C           -3.32081215215537        1.27655835218826        0.74926401491998
O           -2.26578261480001        1.47210757844616       -0.18718967944719
C           -1.17564565212445        0.64859069571673       -0.09398232429097
C           -1.17798729643231       -0.73270699121989       -0.25327204672645
C           -0.01678604044709       -1.46941696605139       -0.11961537519212
C            1.17126581162664       -0.81409182670539        0.13258193058902
C            1.25139215426733        0.57192345205803        0.24447655710287
C            0.04850324873979        1.29526247430466        0.14755372169150
O            0.05044184195484        2.63647408057739        0.28634302782946
O            2.45801406985958        1.13526779773638        0.52243776863220
C            2.90259455769245        2.21308854338936       -0.28205082978615
Cl           2.62964400051867       -1.72541634499626        0.30372830716884
Cl          -2.63227163865330       -1.58454055780630       -0.67982876080036
H           -4.06504657479488        2.03046080237240        0.49954058128915
H           -2.95539281089253        1.42930736002376        1.76462076623648
H           -3.75845250378352        0.28300874020869        0.67006705319274
H           -0.03642359902053       -2.53720144428956       -0.22479349738645
H           -0.85374748675977        2.97639210403072        0.15216934422338
H            3.18790046797918        1.83975658628378       -1.26418943084265
H            3.77214746866764        2.60474230906431        0.23445764786078
H            2.14382492054402        2.97827721695879       -0.38733998644127
21
 energy: -42.510846240843 gnorm: 0.015481937068 xtb: 6.7.1 (edcfbbe)
C           -3.32690540341439        1.28012658344755        0.73338686868150
O           -2.23886903505351        1.49122325322725       -0.16962172399489
C           -1.16257317364623        0.64567495937523       -0.07936305251401
C           -1.18391185531874       -0.73778605923202       -0.22923067705384
C           -0.02665179727794       -1.48461980279814       -0.10047892728776
C            1.17253282404387       -0.83774832363723        0.12855936181034
C            1.26945671604471        0.55193607245420        0.22275602692467
C            0.07202527635955        1.28547740272546        0.14146297968267
O            0.08083662108421        2.62878875166895        0.27319063110884
O            2.49486972784817        1.09156538236131        0.47270070191102
C            2.89358084221263        2.24143545503361       -0.27924456904154
Cl           2.62309756639251       -1.76145609245428        0.28822198904372
Cl          -2.64881555367242       -1.58169633709741       -0.63316079286374
H           -4.04269814897069        2.06840737831943        0.49243986597902
H           -2.98535959510534        1.37902880125426        1.77630959063172
H           -3.79964942340723        0.29624696924363        0.59833645459778
H           -0.05688955077179       -2.55528807616611       -0.19469549214554
H           -0.82671982576092        2.96890032293139        0.15297675442017
H            3.15424075067344        1.93510922723956       -1.30349117037789
H            3.77762134388984        2.61075489479460        0.23233246601449
H            2.11816186583663        3.01176319959947       -0.30840849570395
21
 energy: -42.511000248880 gnorm: 0.008171181801 xtb: 6.7.1 (edcfbbe)
C           -3.31928330849045        1.27326117229518        0.74435213722494
O           -2.25426287906861        1.48324743785123       -0.18160721519443
C           -1.16618105123421        0.64841487806635       -0.09095614936697
C           -1.18758629685625       -0.73433954367832       -0.24244559663788
C           -0.02731014196059       -1.47937805271084       -0.11201583883290
C            1.16802795155744       -0.82967778229222        0.12875950305160
C            1.25525923547494        0.56133858890038        0.23012298492085
C            0.06413749339614        1.29603622141400        0.13239691992601
O            0.07617092809922        2.64046268315714        0.25692317988005
O            2.47431321309047        1.10575460675459        0.50347897164941
C            2.89895965549893        2.23060472507378       -0.27245581474057
Cl           2.61717837099759       -1.75257713332244        0.29692070380935
Cl          -2.65168121602084       -1.57459344417981       -0.64388970867866
H           -4.06336651879862        2.01920480097126        0.49972762462643
H           -2.97198984876786        1.41869958134305        1.76662286058177
H           -3.75065663897831        0.28331021905598        0.64990795271555
H           -0.05182850976242       -2.55122421149076       -0.21369867454255
H           -0.83435970672414        2.97492890542531        0.13575261299931
H            3.17254621776105        1.89588715895806       -1.28141777134378
H            3.77760679207281        2.61294423839101        0.24026267839521
H            2.13168643070008        3.00553891230773       -0.33176257061999
21
 energy: -42.511142742636 gnorm: 0.004404063284 xtb: 6.7.1 (edcfbbe)
C           -3.32099356604862        1.27842834818515        0.74191095646728
O           -2.25275196163505        1.47880389447922       -0.18079205440755
C           -1.16601982893702        0.64338399761843       -0.08717194404382
C           -1.18572114472223       -0.73875438352652       -0.23690034609537
C           -0.02413848864761       -1.48132756751681       -0.10901806458132
C            1.17061719528792       -0.82994478884519        0.12599095970875
C            1.25652183330798        0.56064972773311        0.22680691807269
C            0.06320336137078        1.29221575253377        0.13486353401384
O            0.07039575179416        2.63637558060092        0.26175530172014
O            2.47661197690080        1.10495865774941        0.49088684994963
C            2.89756517518226        2.23197926451738       -0.27190384541741
Cl           2.62218890602276       -1.75037011273717        0.28689367663503
Cl          -2.64796949523595       -1.58280016056437       -0.63467571478374
H           -4.04885391806423        2.04958214950812        0.50132599809197
H           -2.96656830757284        1.40276833520119        1.76678872780012
H           -3.77500092007872        0.29460913029957        0.63290631824384
H           -0.04695847587471       -2.55260899507885       -0.20961258415462
H           -0.84004769242035        2.96792798951887        0.13731093480705
H            3.15863013528846        1.90986752161140       -1.28531013460527
H            3.78270881948407        2.60428665411164        0.23828185619100
H            2.13396081658451        3.00781296689141       -0.31535855378946
21
 energy: -42.511242656147 gnorm: 0.006556444267 xtb: 6.7.1 (edcfbbe)
C           -3.32339183549280        1.28709318233533        0.73296728618800
O           -2.24260545818687        1.47833812704033       -0.17727870011389
C           -1.16127972928832        0.63593038364455       -0.08020421718515
C           -1.18656623602300       -0.74653314844113       -0.22219536773968
C           -0.02486480815874       -1.49026850323787       -0.09961847399360
C            1.17344268118589       -0.84017227567950        0.11880552068508
C            1.26418824017600        0.55125120532512        0.21298467330299
C            0.07051659000633        1.28353397382656        0.13273923391897
O            0.07444197253760        2.62820081870438        0.25941971155601
O            2.49268703707138        1.08501949247457        0.45753577165603
C            2.89250687639524        2.24559819326511       -0.26674484915482
Cl           2.62524029294270       -1.76200081188303        0.26627075704980
Cl          -2.65188205268787       -1.59202476484967       -0.60261716627436
H           -4.02755033232482        2.08687849395985        0.50199717355929
H           -2.97229376988871        1.37823475876330        1.76468867461884
H           -3.80724008795356        0.31742454110663        0.59874276838653
H           -0.04995688926420       -2.56205172282279       -0.19400255967846
H           -0.83717661414674        2.95576267450325        0.13498718617966
H            3.12806754616392        1.96743636910333       -1.30227128752190
H            3.79178574142405        2.59457194159740        0.23780866974156
H            2.12931100749890        3.02562103355503       -0.25903601535813
21
 energy: -42.511344503982 gnorm: 0.006755561676 xtb: 6.7.1 (edcfbbe)
C           -3.32356446326260        1.29049243592657        0.72855479483325
O           -2.23617202700507        1.47995113525412       -0.17701750432574
C           -1.15719182146438        0.63199871101323       -0.07757856343897
C           -1.18979257763846       -0.75076457763692       -0.21065114954408
C           -0.02744208651894       -1.49616158165890       -0.09284277691889
C            1.17386774024939       -0.84742940807241        0.11146204975136
C            1.26804894476277        0.54565784038317        0.20009109228663
C            0.07673745026121        1.27993673813352        0.12488061772934
O            0.07914112193005        2.62587481771828        0.24573938903940
O            2.50287500041500        1.07011937659656        0.43282898385271
C            2.89089564593161        2.25608430838359       -0.25860442090867
Cl           2.62503319935762       -1.77136328684346        0.24764679499680
Cl          -2.65882535982505       -1.59594409879894       -0.56959370982981
H           -4.01111228742713        2.10776093711438        0.51012832637466
H           -2.97509636882775        1.35330592885805        1.76651511680832
H           -3.82849436923857        0.33291015810042        0.57141557840270
H           -0.05430735951471       -2.56905243456908       -0.18199688621941
H           -0.83547080649008        2.94623410018164        0.12113100038979
H            3.10601251643612        2.01422787992654       -1.30600790734300
H            3.80115388799241        2.58717897020153        0.23742442632426
H            2.13108419186292        3.03682601207888       -0.20854646243787
21
 energy: -42.511492435192 gnorm: 0.006769996072 xtb: 6.7.1 (edcfbbe)
C           -3.32047835508355        1.29370676800162        0.72742733640951
O           -2.23563609037421        1.47534053788644       -0.18323999774716
C           -1.15545416081739        0.62683458800779       -0.08023965811210
C           -1.19324116875463       -0.75602355599384       -0.20128794687933
C           -0.02922287735292       -1.50130813232414       -0.08816269385800
C            1.17315316425586       -0.85221262045734        0.10185172355563
C            1.26836657947064        0.54237569036717        0.18578472989765
C            0.07907063748507        1.27723670338374        0.11165498599813
O            0.07829962802208        2.62476829663936        0.22418873506338
O            2.50739822469714        1.05862932872270        0.41051144244873
C            2.89080989779747        2.26485409401941       -0.24557644453194