
                                 *****************
                                 * O   R   C   A *
                                 *****************

                                            #,                                       
                                            ###                                      
                                            ####                                     
                                            #####                                    
                                            ######                                   
                                           ########,                                 
                                     ,,################,,,,,                         
                               ,,#################################,,                 
                          ,,##########################################,,             
                       ,#########################################, ''#####,          
                    ,#############################################,,   '####,        
                  ,##################################################,,,,####,       
                ,###########''''           ''''###############################       
              ,#####''   ,,,,##########,,,,          '''####'''          '####       
            ,##' ,,,,###########################,,,                        '##       
           ' ,,###''''                  '''############,,,                           
         ,,##''                                '''############,,,,        ,,,,,,###''
      ,#''                                            '''#######################'''  
     '                                                          ''''####''''         
             ,#######,   #######,   ,#######,      ##                                
            ,#'     '#,  ##    ##  ,#'     '#,    #''#        ,####,   ,####,        
            ##       ##  ##   ,#'  ##            #'  '#       #'       #'  '#        
            ##       ##  #######   ##           ,######,      #####,   #    #        
            '#,     ,#'  ##    ##  '#,     ,#' ,#      #,     #,   #   #,  ,#        
             '#######'   ##     ##  '#######'  #'      '#     '####' # '####'        



                #########################################################
                #                        -***-                          #
                #          Department of theory and spectroscopy        #
                #                                                       #
                #                      Frank Neese                      #
                #                                                       #
                #     Directorship, Architecture, Infrastructure        #
                #                    SHARK, DRIVERS                     #
                #        Core code/Algorithms in most modules           #
                #                                                       #
                #        Max Planck Institute fuer Kohlenforschung      #
                #                Kaiser Wilhelm Platz 1                 #
                #                 D-45470 Muelheim/Ruhr                 #
                #                      Germany                          #
                #                                                       #
                #                  All rights reserved                  #
                #                        -***-                          #
                #########################################################


                         Program Version 6.0.0  -   RELEASE  -


 With contributions from (in alphabetic order):
   Daniel Aravena         : Magnetic Suceptibility
   Michael Atanasov       : Ab Initio Ligand Field Theory (pilot matlab implementation)
   Alexander A. Auer      : GIAO ZORA, VPT2 properties, NMR spectrum
   Ute Becker             : All parallelization in ORCA, NUMFREQ, NUMCALC
   Giovanni Bistoni       : ED, misc. LED, open-shell LED, HFLD
   Martin Brehm           : Molecular dynamics
   Dmytro Bykov           : pre 5.0 version of the SCF Hessian
   Marcos Casanova-Páez   : Triplet and SCS-CIS(D). UHF-(DLPNO)-IP/EA/STEOM-CCSD. UHF-CVS-IP/STEOM-CCSD
   Vijay G. Chilkuri      : MRCI spin determinant printing, contributions to CSF-ICE
   Pauline Colinet        : FMM embedding
   Dipayan Datta          : RHF DLPNO-CCSD density
   Achintya Kumar Dutta   : EOM-CC, STEOM-CC
   Nicolas Foglia         : Exact transition moments, OPA infrastructure, MCD improvements
   Dmitry Ganyushin       : Spin-Orbit,Spin-Spin,Magnetic field MRCI
   Miquel Garcia          : C-PCM and meta-GGA Hessian, CCSD/C-PCM, Gaussian charge scheme
   Tiago L. C. Gouveia    : GS-ROHF, GS-ROCIS
   Yang Guo               : DLPNO-NEVPT2, F12-NEVPT2, CIM, IAO-localization
   Andreas Hansen         : Spin unrestricted coupled pair/coupled cluster methods
   Ingolf Harden          : AUTO-CI MPn and infrastructure 
   Benjamin Helmich-Paris : MC-RPA, TRAH-(SCF,CASSCF), AVAS, COSX integrals, SCF dyn. polar.
   Lee Huntington         : MR-EOM, pCC
   Robert Izsak           : Overlap fitted RIJCOSX, COSX-SCS-MP3, EOM
   Riya Kayal             : Wick's Theorem for AUTO-CI, AUTO-CI UHF-CCSDT
   Emily Kempfer          : AUTO-CI, RHF CISDT and CCSDT
   Christian Kollmar      : KDIIS, OOCD, Brueckner-CCSD(T), CCSD density, CASPT2, CASPT2-K, improved NEVPT2
   Axel Koslowski         : Symmetry handling
   Simone Kossmann        : Meta GGA functionals, TD-DFT gradient, OOMP2, (MP2 Hessian; deprecated post 5.0)
   Lucas Lang             : DCDCAS
   Marvin Lechner         : AUTO-CI (C++ implementation), FIC-MRCC
   Spencer Leger          : CASSCF response
   Dagmar Lenk            : GEPOL surface, SMD, ORCA-2-JSON
   Dimitrios Liakos       : Extrapolation schemes; Compound Job, initial MDCI parallelization
   Dimitrios Manganas     : Further ROCIS development; embedding schemes. LFT, Crystal Embedding
   Dimitrios Pantazis     : SARC Basis sets
   Anastasios Papadopoulos: AUTO-CI, single reference methods and gradients
   Taras Petrenko         : pre 6.0 DFT Hessian and TD-DFT gradient, (ASA, deprecated), ECA, 1-Electron XAS/XES, NRVS
   Peter Pinski           : DLPNO-MP2, DLPNO-MP2 Gradient
   Christoph Reimann      : Effective Core Potentials
   Marius Retegan         : Local ZFS, SOC
   Christoph Riplinger    : Optimizer, TS searches, QM/MM, DLPNO-CCSD(T), (RO)-DLPNO pert. Triples
   Michael Roemelt        : Original ROCIS implementation
   Masaaki Saitow         : Open-shell DLPNO-CCSD energy and density
   Barbara Sandhoefer     : DKH picture change effects
   Kantharuban Sivalingam : CASSCF convergence/infrastructure, NEVPT2 and variants, FIC-MRCI
   Bernardo de Souza      : ESD, SOC TD-DFT
   Georgi Stoychev        : AutoAux, RI-MP2 NMR, DLPNO-MP2 response, X2C
   Van Anh Tran           : RI-MP2 g-tensors
   Willem Van den Heuvel  : Paramagnetic NMR
   Zikuan Wang            : NOTCH, Electric field optimization 
   Frank Wennmohs         : Technical directorship and infrastructure
   Hang Xu                : AUTO-CI-Response properties 


 We gratefully acknowledge several colleagues who have allowed us to
 interface, adapt or use parts of their codes:
   Stefan Grimme, W. Hujo, H. Kruse, P. Pracht,  : VdW corrections, initial TS optimization,
                  C. Bannwarth, S. Ehlert,         DFT functionals, gCP, sTDA/sTD-DF
                  L. Wittmann, M. Mueller
   Ed Valeev, F. Pavosevic, A. Kumar             : LibInt (2-el integral package), F12 methods
   Garnet Chan, S. Sharma, J. Yang, R. Olivares  : DMRG
   Ulf Ekstrom                                   : XCFun DFT Library
   Mihaly Kallay                                 : mrcc  (arbitrary order and MRCC methods)
   Frank Weinhold                                : gennbo (NPA and NBO analysis)
   Simon Mueller                                 : openCOSMO-RS
   Christopher J. Cramer and Donald G. Truhlar   : smd solvation model
   Lars Goerigk                                  : TD-DFT with DH, B97 family of functionals
   V. Asgeirsson, H. Jonsson                     : NEB implementation
   FAccTs GmbH                                   : IRC, NEB, NEB-TS, DLPNO-Multilevel, CI-OPT
                                                   MM, QMMM, 2- and 3-layer-ONIOM, Crystal-QMMM,
                                                   LR-CPCM, SF, NACMEs, symmetry and pop. for TD-DFT,
                                                   nearIR, NL-DFT gradient (VV10), updates on ESD,
                                                   ML-optimized integration grids, MBIS, APM,
                                                   GOAT, DOCKER, SOLVATOR, interface openCOSMO-RS
   S Lehtola, MJT Oliveira, MAL Marques          : LibXC Library
   Liviu Ungur et al                             : ANISO software


 Your calculation uses the libint2 library for the computation of 2-el integrals
 For citations please refer to: http://libint.valeyev.net

 Your ORCA version has been built with support for libXC version: 6.2.2
 For citations please refer to: https://libxc.gitlab.io

 This ORCA versions uses:
   CBLAS   interface :  Fast vector & matrix operations
   LAPACKE interface :  Fast linear algebra routines
   SCALAPACK package :  Parallel linear algebra routines
   Shared memory     :  Shared parallel matrices
   BLAS/LAPACK       :  OpenBLAS 0.3.27  USE64BITINT DYNAMIC_ARCH NO_AFFINITY SkylakeX SINGLE_THREADED
        Core in use  :  SkylakeX
   Copyright (c) 2011-2014, The OpenBLAS Project


Your calculation utilizes the geometrical counterpoise correction gCP
Please cite in your paper:
H.Kruse, S. Grimme J.Chem.Phys., 136, (2012), 154101 
   

Your calculation utilizes the atom-pairwise dispersion correction
based on EEQ partial charges (D4)


================================================================================

----- Orbital basis set information -----
Your calculation utilizes the basis: def2-mTZVPP
   Stefan Grimme, Andreas Hansen, Sebastian Ehlert, and Jan-Michael Mewes 
   J. Chem. Phys. 154, 064103 (2021). DOI: 10.1063/5.0040021

----- AuxJ basis set information -----
Your calculation utilizes the auxiliary basis: def2/J
   F. Weigend, Phys. Chem. Chem. Phys. 8, 1057 (2006).

================================================================================
                                        WARNINGS
                       Please study these warnings very carefully!
================================================================================

Using LibXC functional ID 497 : Re-regularized SCAN exchange by Furness et al
[ 1]  J. W. Furness, A. D. Kaplan, J. Ning, J. P. Perdew, and J. Sun.,  J. Phys. Chem. Lett. 11, 8208-8215 (2020)
[ 2]  J. W. Furness, A. D. Kaplan, J. Ning, J. P. Perdew, and J. Sun.,  J. Phys. Chem. Lett. 11, 9248-9248 (2020)
Using LibXC functional ID 498 : Re-regularized SCAN correlation by Furness et al
[ 1]  J. W. Furness, A. D. Kaplan, J. Ning, J. P. Perdew, and J. Sun.,  J. Phys. Chem. Lett. 11, 8208-8215 (2020)
[ 2]  J. W. Furness, A. D. Kaplan, J. Ning, J. P. Perdew, and J. Sun.,  J. Phys. Chem. Lett. 11, 9248-9248 (2020)
Using LibXC functional ID 497 : Re-regularized SCAN exchange by Furness et al
[ 1]  J. W. Furness, A. D. Kaplan, J. Ning, J. P. Perdew, and J. Sun.,  J. Phys. Chem. Lett. 11, 8208-8215 (2020)
[ 2]  J. W. Furness, A. D. Kaplan, J. Ning, J. P. Perdew, and J. Sun.,  J. Phys. Chem. Lett. 11, 9248-9248 (2020)
Using LibXC functional ID 498 : Re-regularized SCAN correlation by Furness et al
[ 1]  J. W. Furness, A. D. Kaplan, J. Ning, J. P. Perdew, and J. Sun.,  J. Phys. Chem. Lett. 11, 8208-8215 (2020)
[ 2]  J. W. Furness, A. D. Kaplan, J. Ning, J. P. Perdew, and J. Sun.,  J. Phys. Chem. Lett. 11, 9248-9248 (2020)

================================================================================
                                       INPUT FILE
================================================================================
NAME = sp_gas.inp
|  1> ! r2scan-3c def2/J RI DEFGRID2 scfconv6 printgap
|  2> %output
|  3>     printlevel normal
|  4> end
|  5> * xyz 0 1
|  6> C 1.4763216538 0.912547425 -0.9472134427
|  7> C 1.3839191124 0.1205344081 0.3550750862
|  8> C 1.6598687391 -1.3593517762 0.108375911
|  9> C 0.0129102363 0.330824356 1.0354375056
| 10> C -1.1428945658 -0.0004937753 0.121310341
| 11> O -1.3939144047 -1.1377704813 -0.2304210599
| 12> C -1.9713070772 1.1708964627 -0.3162998027
| 13> H 1.2652645602 1.965435693 -0.775788865
| 14> H 2.4767376916 0.8295721824 -1.364890388
| 15> H 0.7697086701 0.5246816776 -1.6784920991
| 16> H 2.1428772467 0.5024880062 1.0468437663
| 17> H 1.6897120064 -1.9065810054 1.0477865018
| 18> H 2.6146465793 -1.4866942461 -0.3958958234
| 19> H 0.8800906571 -1.7944934899 -0.5128872615
| 20> H -0.0671603231 1.364332451 1.3689574644
| 21> H -0.0392655353 -0.3320600461 1.9012375809
| 22> H -1.3321207827 1.9301993814 -0.7587895806
| 23> H -2.7295059703 0.856901802 -1.0286852272
| 24> H -2.4518460512 1.6053854756 0.5577355751
| 25> *
| 26> 
| 27>                          ****END OF INPUT****
================================================================================

                       ****************************
                       * Single Point Calculation *
                       ****************************

---------------------------------
CARTESIAN COORDINATES (ANGSTROEM)
---------------------------------
  C      1.476322    0.912547   -0.947213
  C      1.383919    0.120534    0.355075
  C      1.659869   -1.359352    0.108376
  C      0.012910    0.330824    1.035438
  C     -1.142895   -0.000494    0.121310
  O     -1.393914   -1.137770   -0.230421
  C     -1.971307    1.170896   -0.316300
  H      1.265265    1.965436   -0.775789
  H      2.476738    0.829572   -1.364890
  H      0.769709    0.524682   -1.678492
  H      2.142877    0.502488    1.046844
  H      1.689712   -1.906581    1.047787
  H      2.614647   -1.486694   -0.395896
  H      0.880091   -1.794493   -0.512887
  H     -0.067160    1.364332    1.368957
  H     -0.039266   -0.332060    1.901238
  H     -1.332121    1.930199   -0.758790
  H     -2.729506    0.856902   -1.028685
  H     -2.451846    1.605385    0.557736

----------------------------
CARTESIAN COORDINATES (A.U.)
----------------------------
  NO LB      ZA    FRAG     MASS         X           Y           Z
   0 C     6.0000    0    12.011    2.789844    1.724465   -1.789974
   1 C     6.0000    0    12.011    2.615228    0.227777    0.670995
   2 C     6.0000    0    12.011    3.136697   -2.568803    0.204801
   3 C     6.0000    0    12.011    0.024397    0.625167    1.956693
   4 C     6.0000    0    12.011   -2.159758   -0.000933    0.229243
   5 O     8.0000    0    15.999   -2.634116   -2.150075   -0.435433
   6 C     6.0000    0    12.011   -3.725231    2.212674   -0.597720
   7 H     1.0000    0     1.008    2.391004    3.714135   -1.466028
   8 H     1.0000    0     1.008    4.680356    1.567664   -2.579269
   9 H     1.0000    0     1.008    1.454539    0.991505   -3.171890
  10 H     1.0000    0     1.008    4.049451    0.949565    1.978248
  11 H     1.0000    0     1.008    3.193093   -3.602916    1.980030
  12 H     1.0000    0     1.008    4.940966   -2.809445   -0.748135
  13 H     1.0000    0     1.008    1.663130   -3.391101   -0.969216
  14 H     1.0000    0     1.008   -0.126915    2.578215    2.586955
  15 H     1.0000    0     1.008   -0.074201   -0.627503    3.592818
  16 H     1.0000    0     1.008   -2.517343    3.647548   -1.433905
  17 H     1.0000    0     1.008   -5.158019    1.619310   -1.943933
  18 H     1.0000    0     1.008   -4.633318    3.033739    1.053967

--------------------------------
INTERNAL COORDINATES (ANGSTROEM)
--------------------------------
 C      0   0   0     0.000000000000     0.00000000     0.00000000
 C      1   0   0     1.527016129941     0.00000000     0.00000000
 C      2   1   0     1.525474286247   110.75060965     0.00000000
 C      2   1   3     1.544920781873   111.01893689   235.78167883
 C      4   2   1     1.510392305908   112.50107708    55.10626295
 O      5   4   2     1.216603568921   122.54228105    69.14030070
 C      5   4   2     1.499975005323   115.33387302   248.63708082
 H      1   2   3     1.087430543755   110.85504742   179.15312103
 H      1   2   3     1.087276951934   110.10311784   298.89849716
 H      1   2   3     1.088352066220   110.42006616    58.29584876
 H      2   1   3     1.095650449500   108.40489888   118.75547056
 H      3   2   1     1.087585724438   110.69541925   174.48644635
 H      3   2   1     1.087247354971   110.33352329    54.35068299
 H      3   2   1     1.087828156316   110.53291524   294.30752066
 H      4   2   1     1.088937941221   109.22771286   293.02431773
 H      4   2   1     1.091672025875   108.00077623   174.29400165
 H      7   5   4     1.086690961115   109.85313987    53.78544737
 H      7   5   4     1.086715786895   110.54443505   175.61679450
 H      7   5   4     1.087950481185   108.74990170   295.86490483

---------------------------
INTERNAL COORDINATES (A.U.)
---------------------------
 C      0   0   0     0.000000000000     0.00000000     0.00000000
 C      1   0   0     2.885642287669     0.00000000     0.00000000
 C      2   1   0     2.882728625347   110.75060965     0.00000000
 C      2   1   3     2.919477176344   111.01893689   235.78167883
 C      4   2   1     2.854227812947   112.50107708    55.10626295
 O      5   4   2     2.299047558811   122.54228105    69.14030070
 C      5   4   2     2.834541967788   115.33387302   248.63708082
 H      1   2   3     2.054945917357   110.85504742   179.15312103
 H      1   2   3     2.054655670880   110.10311784   298.89849716
 H      1   2   3     2.056687342443   110.42006616    58.29584876
 H      2   1   3     2.070479288062   108.40489888   118.75547056
 H      3   2   1     2.055239166350   110.69541925   174.48644635
 H      3   2   1     2.054599740726   110.33352329    54.35068299
 H      3   2   1     2.055697296206   110.53291524   294.30752066
 H      4   2   1     2.057794485744   109.22771286   293.02431773
 H      4   2   1     2.062961156968   108.00077623   174.29400165
 H      7   5   4     2.053548308715   109.85313987    53.78544737
 H      7   5   4     2.053595222640   110.54443505   175.61679450
 H      7   5   4     2.055928456707   108.74990170   295.86490483

---------------------
BASIS SET INFORMATION
---------------------
There are 3 groups of distinct atoms

 Group   1 Type C   : 11s6p1d contracted to 5s3p1d pattern {62111/411/1}
 Group   2 Type O   : 11s6p2d contracted to 5s3p2d pattern {62111/411/11}
 Group   3 Type H   : 4s1p contracted to 2s1p pattern {31/1}

Atom   0C    basis set group =>   1
Atom   1C    basis set group =>   1
Atom   2C    basis set group =>   1
Atom   3C    basis set group =>   1
Atom   4C    basis set group =>   1
Atom   5O    basis set group =>   2
Atom   6C    basis set group =>   1
Atom   7H    basis set group =>   3
Atom   8H    basis set group =>   3
Atom   9H    basis set group =>   3
Atom  10H    basis set group =>   3
Atom  11H    basis set group =>   3
Atom  12H    basis set group =>   3
Atom  13H    basis set group =>   3
Atom  14H    basis set group =>   3
Atom  15H    basis set group =>   3
Atom  16H    basis set group =>   3
Atom  17H    basis set group =>   3
Atom  18H    basis set group =>   3
---------------------------------
AUXILIARY/J BASIS SET INFORMATION
---------------------------------
There are 3 groups of distinct atoms

 Group   1 Type C   : 12s5p4d2f1g contracted to 6s4p3d1f1g pattern {711111/2111/211/2/1}
 Group   2 Type O   : 12s5p4d2f1g contracted to 6s4p3d1f1g pattern {711111/2111/211/2/1}
 Group   3 Type H   : 5s2p1d contracted to 3s1p1d pattern {311/2/1}

Atom   0C    basis set group =>   1
Atom   1C    basis set group =>   1
Atom   2C    basis set group =>   1
Atom   3C    basis set group =>   1
Atom   4C    basis set group =>   1
Atom   5O    basis set group =>   2
Atom   6C    basis set group =>   1
Atom   7H    basis set group =>   3
Atom   8H    basis set group =>   3
Atom   9H    basis set group =>   3
Atom  10H    basis set group =>   3
Atom  11H    basis set group =>   3
Atom  12H    basis set group =>   3
Atom  13H    basis set group =>   3
Atom  14H    basis set group =>   3
Atom  15H    basis set group =>   3
Atom  16H    basis set group =>   3
Atom  17H    basis set group =>   3
Atom  18H    basis set group =>   3

Checking for AutoStart:
The File: sp_gas.gbw exists
Trying to determine its content:
     ... Fine, the file contains calculation information
     ... Fine, the calculation information was read
     ... Fine, the file contains a basis set
     ... Fine, the basis set was read
     ... Fine, the file contains a geometry
     ... Fine, the geometry was read
     ... Fine, the file contains a set of orbitals
     ... Fine, the orbitals can be read
     => possible old guess file was deleted
     => GBW file was renamed to GES file
     => GES file is set as startup file
     => Guess is set to MORead
     ... now leaving AutoStart

------------------------------------------------------------------------------
                             ORCA STARTUP CALCULATIONS
                           -- RI-GTO INTEGRALS CHOSEN --
------------------------------------------------------------------------------
------------------------------------------------------------------------------
                   ___                                                        
                  /   \      - P O W E R E D   B Y -                         
                 /     \                                                     
                 |  |  |   _    _      __       _____    __    __             
                 |  |  |  | |  | |    /  \     |  _  \  |  |  /  |          
                  \  \/   | |  | |   /    \    | | | |  |  | /  /          
                 / \  \   | |__| |  /  /\  \   | |_| |  |  |/  /          
                |  |  |   |  __  | /  /__\  \  |    /   |      \           
                |  |  |   | |  | | |   __   |  |    \   |  |\   \          
                \     /   | |  | | |  |  |  |  | |\  \  |  | \   \       
                 \___/    |_|  |_| |__|  |__|  |_| \__\ |__|  \__/        
                                                                              
                      - O R C A' S   B I G   F R I E N D -                    
                                      &                                       
                       - I N T E G R A L  F E E D E R -                       
                                                                              
 v1 FN, 2020, v2 2021, v3 2022-2024                                           
------------------------------------------------------------------------------


----------------------
SHARK INTEGRAL PACKAGE
----------------------

Number of atoms                             ...     19
Number of basis functions                   ...    198
Number of shells                            ...    100
Maximum angular momentum                    ...      2
Integral batch strategy                     ... SHARK/LIBINT Hybrid
RI-J (if used) integral strategy            ... SPLIT-RIJ (Revised 2003 algorithm where possible)
Printlevel                                  ...      1
Contraction scheme used                     ... SEGMENTED contraction
Prescreening option                         ... SCHWARTZ
   Thresh                                   ... 1.000e-10
   Tcut                                     ... 1.000e-11
   Tpresel                                  ... 1.000e-11 
Coulomb Range Separation                    ... NOT USED
Exchange Range Separation                   ... NOT USED
Multipole approximations                    ... NOT USED
Finite Nucleus Model                        ... NOT USED
CABS basis                                  ... NOT available
Auxiliary Coulomb fitting basis             ... AVAILABLE
   # of basis functions in Aux-J            ...    475
   # of shells in Aux-J                     ...    165
   Maximum angular momentum in Aux-J        ...      4
Auxiliary J/K fitting basis                 ... NOT available
Auxiliary Correlation fitting basis         ... NOT available
Auxiliary 'external' fitting basis          ... NOT available

Checking pre-screening integrals            ... done (  0.0 sec) Dimension = 100
Check shell pair data                       ... done (  0.0 sec)
Shell pair information
Shell pair cut-off parameter TPreSel        ...   1.0e-11
Total number of shell pairs                 ...      5050
Shell pairs after pre-screening             ...      4693
Total number of primitive shell pairs       ...     17768
Primitive shell pairs kept                  ...     11976
          la=0 lb=0:   1624 shell pairs
          la=1 lb=0:   1803 shell pairs
          la=1 lb=1:    527 shell pairs
          la=2 lb=0:    450 shell pairs
          la=2 lb=1:    253 shell pairs
          la=2 lb=2:     36 shell pairs

Calculating one electron integrals          ... done (  0.0 sec)
Calculating RI/J V-Matrix + Cholesky decomp.... done (  0.1 sec)
Calculating Nuclear repulsion               ... done (  0.0 sec) ENN=    320.655651234492 Eh

Diagonalization of the overlap matrix:
Smallest eigenvalue                        ... 1.703e-04
Time for diagonalization                   ...    0.004 sec
Threshold for overlap eigenvalues          ... 1.000e-07
Number of eigenvalues below threshold      ... 0
Time for construction of square roots      ...    0.013 sec
Total time needed                          ...    0.034 sec

-------------------
DFT GRID GENERATION
-------------------

General Integration Accuracy     IntAcc      ... 4.388
Radial Grid Type                 RadialGrid  ... OptM3 with GC (2021)
Angular Grid (max. ang.)         AngularGrid ... 4 (Lebedev-302)
Angular grid pruning method      GridPruning ... 4 (adaptive)
Weight generation scheme         WeightScheme... mBecke (2022)
Basis function cutoff            BFCut       ... 1.0000e-10
Integration weight cutoff        WCut        ... 1.0000e-14
Partially contracted basis set               ... off
Rotationally invariant grid construction     ... off
Angular grids for H and He will be reduced by one unit
Diffuse basis detected: some atoms will have their outermost
                        angular grid increased by 1.

Total number of grid points                  ...    80728
Total number of batches                      ...     1273
Average number of points per batch           ...       63
Average number of grid points per atom       ...     4249
Initializing property integral containers    ... done (  0.0 sec)

SHARK setup successfully completed in   1.1 seconds

Maximum memory used throughout the entire STARTUP-calculation: 36.4 MB
-------------------------------------------------------------------------------
                                 ORCA GUESS
                   Start orbitals & Density for SCF / CASSCF
-------------------------------------------------------------------------------

------------
SCF SETTINGS
------------
Hamiltonian:
 Density Functional     Method          .... DFT(GTOs)
  Functional kind                       .... Exchange
  Functional name                       .... Re-regularized SCAN exchange by Furness et al
  Functional family                     .... MGGA
  Functional refs                              
    [ 0] J. W. Furness, A. D. Kaplan, J. Ning, J. P. Perdew, and J. Sun.,  J. Phys. Chem. Lett. 11, 8208-8215 (2020), doi: 10.1021/acs.jpclett.0c02405
    [ 1] J. W. Furness, A. D. Kaplan, J. Ning, J. P. Perdew, and J. Sun.,  J. Phys. Chem. Lett. 11, 9248-9248 (2020), doi: 10.1021/acs.jpclett.0c03077
  Functional external parameters        .... 6
    Parameter  0 _c1        =  6.670000e-01 : c1 parameter        
    Parameter  1 _c2        =  8.000000e-01 : c2 parameter        
    Parameter  2 _d         =  1.240000e+00 : d parameter         
    Parameter  3 _k1        =  6.500000e-02 : k1 parameter        
    Parameter  4 _eta       =  1.000000e-03 : eta parameter       
    Parameter  5 _dp2       =  3.610000e-01 : dp2 parameter       
  Functional kind                       .... Correlation
  Functional name                       .... Re-regularized SCAN correlation by Furness et al
  Functional family                     .... MGGA
  Functional refs                              
    [ 0] J. W. Furness, A. D. Kaplan, J. Ning, J. P. Perdew, and J. Sun.,  J. Phys. Chem. Lett. 11, 8208-8215 (2020), doi: 10.1021/acs.jpclett.0c02405
    [ 1] J. W. Furness, A. D. Kaplan, J. Ning, J. P. Perdew, and J. Sun.,  J. Phys. Chem. Lett. 11, 9248-9248 (2020), doi: 10.1021/acs.jpclett.0c03077
  Functional external parameters        .... 1
    Parameter  0 _eta       =  1.000000e-03 : Regularization parameter
 Gradients option       PostSCFGGA      .... off
 RI-approximation to the Coulomb term is turned on
   Number of AuxJ basis functions       .... 475


General Settings:
 Integral files         IntName         .... sp_gas
 Hartree-Fock type      HFTyp           .... RHF
 Total Charge           Charge          ....    0
 Multiplicity           Mult            ....    1
 Number of Electrons    NEL             ....   56
 Basis Dimension        Dim             ....  198
 Nuclear Repulsion      ENuc            ....    320.6556512345 Eh

Convergence Acceleration:
 AO-DIIS                CNVDIIS         .... on
   Start iteration      DIISMaxIt       ....    12
   Startup error        DIISStart       ....  0.200000
   # of expansion vecs  DIISMaxEq       ....     5
   Bias factor          DIISBfac        ....   1.050
   Max. coefficient     DIISMaxC        ....  10.000
 MO-DIIS                CNVKDIIS        .... off
 Trust-Rad. Augm. Hess. CNVTRAH         .... auto
   Auto Start mean grad. ratio tolernc. ....  1.125000
   Auto Start start iteration           ....     1
   Auto Start num. interpolation iter.  ....    10
   Max. Number of Micro iterations      ....    24
   Max. Number of Macro iterations      .... Maxiter - #DIIS iter
   Number of Davidson start vectors     ....     2
   Converg. threshold    (grad. norm)   ....   3.330e-04
   Grad. Scal. Fac. for Micro threshold ....   0.100
   Minimum threshold for Micro iter.    ....   1.000e-02
   NR start threshold (gradient norm)   ....   1.000e-04
   Initial trust radius                 ....   0.400
   Minimum AH scaling param. (alpha)    ....   1.000
   Maximum AH scaling param. (alpha)    .... 1000.000
   Quad. conv. algorithm                .... NR
   White noise on init. David. guess    .... on
   Maximum white noise                  ....   0.010
   Pseudo random numbers                .... off
   Inactive MOs                         .... canonical
   Orbital update algorithm             .... Taylor
   Preconditioner                       .... Diag
   Full preconditioner red. dimension   ....   250
   COSX micro iterations for RIJONX calc.... off
 SOSCF                  CNVSOSCF        .... on
   Start iteration      SOSCFMaxIt      ....   150
   Startup grad/error   SOSCFStart      ....  0.003300
   Hessian update       SOSCFHessUp     .... L-BFGS
 Level Shifting         CNVShift        .... on
   Level shift para.    LevelShift      ....    0.2500
   Turn off err/grad.   ShiftErr        ....    0.0010
 Zerner damping         CNVZerner       .... off
 Static damping         CNVDamp         .... on
   Fraction old density DampFac         ....    0.7000
   Max. Damping (<1)    DampMax         ....    0.9800
   Min. Damping (>=0)   DampMin         ....    0.0000
   Turn off err/grad.   DampErr         ....    0.1000

SCF Procedure:
 Maximum # iterations   MaxIter         ....   125
 SCF integral mode      SCFMode         .... Direct
   Integral package                     .... SHARK and LIBINT hybrid scheme
 Reset frequency        DirectResetFreq ....    20
 Integral Threshold     Thresh          ....  1.000e-10 Eh
 Primitive CutOff       TCut            ....  1.000e-11 Eh

Convergence Tolerance:
 Convergence Check Mode ConvCheckMode   .... Total+1el-Energy
 Convergence forced     ConvForced      .... 0
 Energy Change          TolE            ....  1.000e-06 Eh
 1-El. energy change                    ....  1.000e-03 Eh
 Orbital Gradient       TolG            ....  3.330e-04
 Orbital Rotation angle TolX            ....  3.330e-04
 DIIS Error             TolErr          ....  1.000e-06

---------------------
INITIAL GUESS: MOREAD
---------------------
Guess MOs are being read from file: sp_gas.ges
Input Geometry matches current geometry (good)
Atom 0: N(Shells)= 9 and 6 - projection required
Input basis set needs projection
NBasis(read)= 122
NBasis(calc)= 198
Basis set overlap was calculated
Using GuessMode=FMatrix for the initial guess
C*T matrix was formed
Effective Fockian was calculated
Effective Fockian was diagonalized
Initial density was built
                      ------------------
                      INITIAL GUESS DONE (   0.0 sec)
                      ------------------
             **** ENERGY FILE WAS UPDATED (sp_gas.en.tmp) ****
Finished Guess after   0.2 sec
Maximum memory used throughout the entire GUESS-calculation: 13.7 MB

-------------------------------------------------------------------------------------------
                                      ORCA LEAN-SCF
                              memory conserving SCF solver
-------------------------------------------------------------------------------------------

----------------------------------------D-I-I-S--------------------------------------------
Iteration    Energy (Eh)           Delta-E    RMSDP     MaxDP     DIISErr   Damp  Time(sec)
-------------------------------------------------------------------------------------------
               ***  Starting incremental Fock matrix formation  ***
    1    -310.8461830792960541     0.00e+00  4.03e-03  1.37e-01  6.26e-01  0.700   2.7
    2    -310.8938485325629131    -4.77e-02  3.29e-03  1.12e-01  4.40e-01  0.700   2.4
    3    -310.9275691752260968    -3.37e-02  2.43e-03  8.23e-02  3.08e-01  0.700   2.3
    4    -310.9512502563449630    -2.37e-02  1.75e-03  5.88e-02  2.16e-01  0.700   2.5
                               ***Turning on AO-DIIS***
    5    -310.9678637882680619    -1.66e-02  1.27e-03  4.20e-02  1.51e-01  0.700   2.4
    6    -310.9795110217640399    -1.16e-02  9.01e-04  2.96e-02  1.06e-01  0.700   2.7
    7    -310.9876765178501614    -8.17e-03  6.36e-04  2.08e-02  7.40e-02  0.700   2.3
    8    -310.9933978238206578    -5.72e-03  1.49e-03  4.87e-02  5.19e-02  0.000   2.2
                              *** Initializing SOSCF ***
---------------------------------------S-O-S-C-F--------------------------------------
Iteration    Energy (Eh)           Delta-E    RMSDP     MaxDP     MaxGrad    Time(sec)
--------------------------------------------------------------------------------------
    9    -311.0067666673199369    -1.34e-02  9.81e-06  2.63e-04  2.51e-04     2.3
               *** Restarting incremental Fock matrix formation ***
   10    -311.0067666930575001    -2.57e-08  1.87e-05  7.41e-04  1.08e-04     2.6
   11    -311.0067657554673701     9.38e-07  1.26e-05  4.08e-04  3.17e-04     2.0
                 **** Energy Check signals convergence ****

               *****************************************************
               *                     SUCCESS                       *
               *           SCF CONVERGED AFTER  11 CYCLES          *
               *****************************************************

             **** ENERGY FILE WAS UPDATED (sp_gas.en.tmp) ****

----------------
TOTAL SCF ENERGY
----------------

Total Energy       :       -311.00676575546737 Eh           -8462.92434 eV

Components:
Nuclear Repulsion  :        320.65565123449250 Eh            8725.48387 eV
Electronic Energy  :       -631.66241698995987 Eh          -17188.40821 eV
One Electron Energy:      -1055.45092446163767 Eh          -28720.27977 eV
Two Electron Energy:        423.78850747167786 Eh           11531.87156 eV

Virial components:
Potential Energy   :       -620.68295329900616 Eh          -16889.64181 eV
Kinetic Energy     :        309.67618754353873 Eh            8426.71747 eV
Virial Ratio       :          2.00429667590034

DFT components:
N(Alpha)           :       28.000029391717 electrons
N(Beta)            :       28.000029391717 electrons
N(Total)           :       56.000058783434 electrons
E(X)               :      -43.777693032853 Eh       
E(C)               :       -1.758327409510 Eh       
E(XC)              :      -45.536020442363 Eh       

---------------
SCF CONVERGENCE
---------------

  Last Energy change         ...   -9.3759e-07  Tolerance :   1.0000e-06
  Last MAX-Density change    ...    4.0813e-04  Tolerance :   1.0000e-05
  Last RMS-Density change    ...    1.2633e-05  Tolerance :   1.0000e-06
  Last DIIS Error            ...    2.5055e-04  Tolerance :   1.0000e-06
  Last Orbital Gradient      ...    3.1719e-04  Tolerance :   3.3300e-04
  Last Orbital Rotation      ...    3.1222e-04  Tolerance :   3.3300e-04


----------------
ORBITAL ENERGIES
----------------

  NO   OCC          E(Eh)            E(eV) 
   0   2.0000     -18.936562      -515.2900 
   1   2.0000     -10.118318      -275.3334 
   2   2.0000     -10.047395      -273.4035 
   3   2.0000     -10.036024      -273.0941 
   4   2.0000     -10.033291      -273.0197 
   5   2.0000     -10.023217      -272.7456 
   6   2.0000     -10.010517      -272.4000 
   7   2.0000      -1.002668       -27.2840 
   8   2.0000      -0.785933       -21.3863 
   9   2.0000      -0.725261       -19.7354 
  10   2.0000      -0.667956       -18.1760 
  11   2.0000      -0.651751       -17.7350 
  12   2.0000      -0.549890       -14.9633 
  13   2.0000      -0.488420       -13.2906 
  14   2.0000      -0.453207       -12.3324 
  15   2.0000      -0.434264       -11.8169 
  16   2.0000      -0.422866       -11.5068 
  17   2.0000      -0.403865       -10.9897 
  18   2.0000      -0.394658       -10.7392 
  19   2.0000      -0.382706       -10.4140 
  20   2.0000      -0.361736        -9.8433 
  21   2.0000      -0.348871        -9.4933 
  22   2.0000      -0.341835        -9.3018 
  23   2.0000      -0.324976        -8.8430 
  24   2.0000      -0.307033        -8.3548 
  25   2.0000      -0.302261        -8.2249 
  26   2.0000      -0.299455        -8.1486 
  27   2.0000      -0.210294        -5.7224 
  28   0.0000      -0.047747        -1.2993 
  29   0.0000       0.069541         1.8923 
  30   0.0000       0.103150         2.8068 
  31   0.0000       0.119874         3.2619 
  32   0.0000       0.123096         3.3496 
  33   0.0000       0.130126         3.5409 
  34   0.0000       0.139282         3.7901 
  35   0.0000       0.141316         3.8454 
  36   0.0000       0.145143         3.9496 
  37   0.0000       0.155051         4.2191 
  38   0.0000       0.160582         4.3696 
*Only the first 10 virtual orbitals were printed.

                    ********************************
                    * MULLIKEN POPULATION ANALYSIS *
                    ********************************

-----------------------
MULLIKEN ATOMIC CHARGES
-----------------------
   0 C :   -0.542746
   1 C :    0.026527
   2 C :   -0.507667
   3 C :   -0.334526
   4 C :    0.288022
   5 O :   -0.348133
   6 C :   -0.518738
   7 H :    0.152682
   8 H :    0.150439
   9 H :    0.167469
  10 H :    0.153735
  11 H :    0.143718
  12 H :    0.139269
  13 H :    0.190812
  14 H :    0.159288
  15 H :    0.171276
  16 H :    0.164867
  17 H :    0.177153
  18 H :    0.166553
Sum of atomic charges:    0.0000000

--------------------------------
MULLIKEN REDUCED ORBITAL CHARGES
--------------------------------
  0 C s       :     3.359897  s :     3.359897
      pz      :     0.989599  p :     3.155715
      px      :     1.122679
      py      :     1.043437
      dz2     :     0.005457  d :     0.027135
      dxz     :     0.007458
      dyz     :     0.005149
      dx2y2   :     0.007245
      dxy     :     0.001826

  1 C s       :     3.057465  s :     3.057465
      pz      :     0.974630  p :     2.869224
      px      :     0.969730
      py      :     0.924864
      dz2     :     0.007553  d :     0.046784
      dxz     :     0.010832
      dyz     :     0.010162
      dx2y2   :     0.010897
      dxy     :     0.007340

  2 C s       :     3.340455  s :     3.340455
      pz      :     1.103250  p :     3.140536
      px      :     1.097843
      py      :     0.939443
      dz2     :     0.003391  d :     0.026677
      dxz     :     0.005119
      dyz     :     0.006901
      dx2y2   :     0.007081
      dxy     :     0.004184

  3 C s       :     3.207613  s :     3.207613
      pz      :     1.015610  p :     3.092856
      px      :     0.950078
      py      :     1.127168
      dz2     :     0.004338  d :     0.034057
      dxz     :     0.009072
      dyz     :     0.006881
      dx2y2   :     0.009378
      dxy     :     0.004388

  4 C s       :     3.185985  s :     3.185985
      pz      :     0.775776  p :     2.433488
      px      :     0.877455
      py      :     0.780257
      dz2     :     0.010626  d :     0.092505
      dxz     :     0.008593
      dyz     :     0.021785
      dx2y2   :     0.022470
      dxy     :     0.029031

  5 O s       :     3.837114  s :     3.837114
      pz      :     1.491743  p :     4.489268
      px      :     1.630400
      py      :     1.367125
      dz2     :     0.004210  d :     0.021751
      dxz     :    -0.000042
      dyz     :     0.008516
      dx2y2   :     0.003757
      dxy     :     0.005310

  6 C s       :     3.329297  s :     3.329297
      pz      :     1.086135  p :     3.164591
      px      :     1.051799
      py      :     1.026656
      dz2     :     0.003156  d :     0.024850
      dxz     :     0.006333
      dyz     :     0.004808
      dx2y2   :     0.002916
      dxy     :     0.007638

  7 H s       :     0.829098  s :     0.829098
      pz      :     0.003766  p :     0.018221
      px      :     0.003966
      py      :     0.010489

  8 H s       :     0.831293  s :     0.831293
      pz      :     0.004811  p :     0.018268
      px      :     0.009791
      py      :     0.003666

  9 H s       :     0.814344  s :     0.814344
      pz      :     0.007004  p :     0.018188
      px      :     0.006675
      py      :     0.004509

 10 H s       :     0.828816  s :     0.828816
      pz      :     0.006260  p :     0.017449
      px      :     0.006981
      py      :     0.004207

 11 H s       :     0.838000  s :     0.838000
      pz      :     0.008926  p :     0.018282
      px      :     0.003749
      py      :     0.005607

 12 H s       :     0.842423  s :     0.842423
      pz      :     0.005366  p :     0.018308
      px      :     0.009205
      py      :     0.003738

 13 H s       :     0.790461  s :     0.790461
      pz      :     0.005872  p :     0.018727
      px      :     0.008180
      py      :     0.004675

 14 H s       :     0.822917  s :     0.822917
      pz      :     0.004150  p :     0.017795
      px      :     0.003457
      py      :     0.010188

 15 H s       :     0.810711  s :     0.810711
      pz      :     0.008227  p :     0.018013
      px      :     0.003569
      py      :     0.006217

 16 H s       :     0.816549  s :     0.816549
      pz      :     0.004999  p :     0.018584
      px      :     0.006056
      py      :     0.007529

 17 H s       :     0.804945  s :     0.804945
      pz      :     0.006788  p :     0.017901
      px      :     0.007212
      py      :     0.003902

 18 H s       :     0.814810  s :     0.814810
      pz      :     0.008166  p :     0.018636
      px      :     0.005248
      py      :     0.005222


------------------------
MULLIKEN OVERLAP CHARGES
------------------------
B(  0-C ,  1-C ) :   0.4000 B(  0-C ,  2-C ) :  -0.2131 B(  0-C ,  3-C ) :  -0.1409 
B(  0-C ,  7-H ) :   0.8229 B(  0-C ,  8-H ) :   0.7797 B(  0-C ,  9-H ) :   0.8381 
B(  0-C , 10-H ) :  -0.0711 B(  1-C ,  2-C ) :   0.4810 B(  1-C ,  3-C ) :   0.2515 
B(  1-C ,  7-H ) :  -0.1162 B(  1-C ,  8-H ) :  -0.0610 B(  1-C ,  9-H ) :  -0.0723 
B(  1-C , 10-H ) :   0.9077 B(  1-C , 11-H ) :  -0.0665 B(  1-C , 12-H ) :  -0.1146 
B(  1-C , 13-H ) :  -0.0587 B(  1-C , 14-H ) :  -0.0576 B(  1-C , 15-H ) :  -0.0684 
B(  2-C ,  3-C ) :  -0.2392 B(  2-C ,  5-O ) :   0.0673 B(  2-C , 10-H ) :  -0.0671 
B(  2-C , 11-H ) :   0.7879 B(  2-C , 12-H ) :   0.8166 B(  2-C , 13-H ) :   0.8502 
B(  3-C ,  5-O ) :  -0.2363 B(  3-C ,  6-C ) :  -0.2812 B(  3-C ,  9-H ) :  -0.0686 
B(  3-C , 10-H ) :  -0.1457 B(  3-C , 14-H ) :   0.7567 B(  3-C , 15-H ) :   0.8174 
B(  4-C ,  5-O ) :   1.0504 B(  4-C ,  6-C ) :   0.5729 B(  4-C , 14-H ) :  -0.0794 
B(  4-C , 15-H ) :  -0.0549 B(  4-C , 16-H ) :  -0.0796 B(  4-C , 17-H ) :  -0.1060 
B(  5-O ,  6-C ) :  -0.1865 B(  6-C , 16-H ) :   0.7781 B(  6-C , 17-H ) :   0.8607 
B(  6-C , 18-H ) :   0.7841 


                     *******************************
                     * LOEWDIN POPULATION ANALYSIS *
                     *******************************

----------------------
LOEWDIN ATOMIC CHARGES
----------------------
   0 C :   -0.412754
   1 C :   -0.222186
   2 C :   -0.410566
   3 C :   -0.280331
   4 C :    0.211702
   5 O :   -0.473563
   6 C :   -0.387716
   7 H :    0.152111
   8 H :    0.156685
   9 H :    0.159608
  10 H :    0.156329
  11 H :    0.154926
  12 H :    0.150732
  13 H :    0.175991
  14 H :    0.164607
  15 H :    0.184281
  16 H :    0.171656
  17 H :    0.173483
  18 H :    0.175007

-------------------------------
LOEWDIN REDUCED ORBITAL CHARGES
-------------------------------
  0 C s       :     2.967575  s :     2.967575
      pz      :     1.097619  p :     3.381683
      px      :     1.157333
      py      :     1.126731
      dz2     :     0.012293  d :     0.063495
      dxz     :     0.017088
      dyz     :     0.012086
      dx2y2   :     0.017873
      dxy     :     0.004154

  1 C s       :     2.905521  s :     2.905521
      pz      :     1.086797  p :     3.220884
      px      :     1.050965
      py      :     1.083123
      dz2     :     0.015195  d :     0.095781
      dxz     :     0.023209
      dyz     :     0.020506
      dx2y2   :     0.023247
      dxy     :     0.013625

  2 C s       :     2.967475  s :     2.967475
      pz      :     1.159314  p :     3.380270
      px      :     1.151018
      py      :     1.069938
      dz2     :     0.008287  d :     0.062821
      dxz     :     0.012882
      dyz     :     0.015617
      dx2y2   :     0.017161
      dxy     :     0.008875

  3 C s       :     2.931517  s :     2.931517
      pz      :     1.094408  p :     3.275090
      px      :     1.055374
      py      :     1.125307
      dz2     :     0.008973  d :     0.073725
      dxz     :     0.019302
      dyz     :     0.015865
      dx2y2   :     0.021956
      dxy     :     0.007629

  4 C s       :     2.827750  s :     2.827750
      pz      :     0.826554  p :     2.762227
      px      :     0.908992
      py      :     1.026681
      dz2     :     0.022216  d :     0.198321
      dxz     :     0.017788
      dyz     :     0.044456
      dx2y2   :     0.051940
      dxy     :     0.061920

  5 O s       :     3.562138  s :     3.562138
      pz      :     1.502706  p :     4.672482
      px      :     1.623155
      py      :     1.546621
      dz2     :     0.030605  d :     0.238944
      dxz     :     0.017433
      dyz     :     0.053794
      dx2y2   :     0.072756
      dxy     :     0.064356

  6 C s       :     2.969840  s :     2.969840
      pz      :     1.142243  p :     3.359493
      px      :     1.125133
      py      :     1.092117
      dz2     :     0.006683  d :     0.058383
      dxz     :     0.016540
      dyz     :     0.011425
      dx2y2   :     0.005889
      dxy     :     0.017846

  7 H s       :     0.804298  s :     0.804298
      pz      :     0.008638  p :     0.043591
      px      :     0.008851
      py      :     0.026103

  8 H s       :     0.799661  s :     0.799661
      pz      :     0.011209  p :     0.043655
      px      :     0.024385
      py      :     0.008061

  9 H s       :     0.796305  s :     0.796305
      pz      :     0.017354  p :     0.044088
      px      :     0.016233
      py      :     0.010501

 10 H s       :     0.800533  s :     0.800533
      pz      :     0.015466  p :     0.043139
      px      :     0.017162
      py      :     0.010511

 11 H s       :     0.801646  s :     0.801646
      pz      :     0.022108  p :     0.043428
      px      :     0.008185
      py      :     0.013135

 12 H s       :     0.805630  s :     0.805630
      pz      :     0.012502  p :     0.043637
      px      :     0.022817
      py      :     0.008319

 13 H s       :     0.777644  s :     0.777644
      pz      :     0.014496  p :     0.046365
      px      :     0.020653
      py      :     0.011215

 14 H s       :     0.790946  s :     0.790946
      pz      :     0.010128  p :     0.044447
      px      :     0.008568
      py      :     0.025751

 15 H s       :     0.771435  s :     0.771435
      pz      :     0.020175  p :     0.044284
      px      :     0.008786
      py      :     0.015323

 16 H s       :     0.783079  s :     0.783079
      pz      :     0.011589  p :     0.045264
      px      :     0.014895
      py      :     0.018781

 17 H s       :     0.783209  s :     0.783209
      pz      :     0.016592  p :     0.043308
      px      :     0.017829
      py      :     0.008886

 18 H s       :     0.780121  s :     0.780121
      pz      :     0.020482  p :     0.044872
      px      :     0.012167
      py      :     0.012224


---------------------------------
LOEWDIN BOND ORDERS (THRESH 0.050000)
---------------------------------
B(  0-C ,  1-C ) :   1.1102 B(  0-C ,  2-C ) :   0.0704 B(  0-C ,  3-C ) :   0.0644 
B(  0-C ,  7-H ) :   0.9233 B(  0-C ,  8-H ) :   0.9219 B(  0-C ,  9-H ) :   0.9136 
B(  1-C ,  2-C ) :   1.1135 B(  1-C ,  3-C ) :   1.0457 B(  1-C ,  4-C ) :   0.0665 
B(  1-C , 10-H ) :   0.8620 B(  2-C ,  3-C ) :   0.0640 B(  2-C , 11-H ) :   0.9232 
B(  2-C , 12-H ) :   0.9216 B(  2-C , 13-H ) :   0.9015 B(  3-C ,  4-C ) :   0.9917 
B(  3-C ,  5-O ) :   0.2065 B(  3-C ,  6-C ) :   0.0930 B(  3-C , 14-H ) :   0.8755 
B(  3-C , 15-H ) :   0.8628 B(  4-C ,  5-O ) :   2.3585 B(  4-C ,  6-C ) :   1.0475 
B(  4-C , 18-H ) :   0.0509 B(  5-O ,  6-C ) :   0.2184 B(  6-C , 16-H ) :   0.9000 
B(  6-C , 17-H ) :   0.9120 B(  6-C , 18-H ) :   0.8968 

------------------------------------------
LOEWDIN REDUCED ORBITAL POPULATIONS PER MO
-------------------------------------------
THRESHOLD FOR PRINTING IS 0.1%%
                      0         1         2         3         4         5   
                 -18.93656 -10.11832 -10.04739 -10.03602 -10.03329 -10.02322
                   2.00000   2.00000   2.00000   2.00000   2.00000   2.00000
                  --------  --------  --------  --------  --------  --------
 0 C  s               0.0       0.0       0.0       0.0       0.0      99.7
 1 C  s               0.0       0.0      99.6       0.0       0.0       0.0
 3 C  s               0.0       0.0       0.0      99.7       0.0       0.0
 4 C  s               0.0      99.2       0.0       0.0       0.0       0.0
 5 O  s              99.9       0.0       0.0       0.0       0.0       0.0
 5 O  py              0.0       0.2       0.0       0.0       0.0       0.0
 5 O  dx2y2           0.0       0.2       0.0       0.0       0.0       0.0
 6 C  s               0.0       0.0       0.0       0.0      99.7       0.0

                      6         7         8         9        10        11   
                 -10.01052  -1.00267  -0.78593  -0.72526  -0.66796  -0.65175
                   2.00000   2.00000   2.00000   2.00000   2.00000   2.00000
                  --------  --------  --------  --------  --------  --------
 0 C  s               0.0       0.0      10.4       3.3      13.6      15.1
 0 C  pz              0.0       0.0       2.2       0.2       0.2       0.2
 0 C  px              0.0       0.0       0.1       0.1       0.1       0.1
 0 C  py              0.0       0.0       0.9       0.2       0.0       1.0
 1 C  s               0.0       0.1      25.0       3.6       0.1       0.1
 1 C  pz              0.0       0.0       0.1       0.8       6.7       1.1
 1 C  px              0.0       0.3       0.8       1.1       4.2       0.8
 1 C  py              0.1       0.0       0.0       0.3       0.1      13.6
 1 C  dz2             0.0       0.0       0.0       0.0       0.1       0.1
 1 C  dyz             0.0       0.0       0.0       0.0       0.1       0.1
 1 C  dx2y2           0.0       0.0       0.0       0.0       0.1       0.1
 2 C  s              99.7       0.0       8.5       4.1       1.0      27.4
 2 C  pz              0.0       0.0       0.1       0.0       0.3       0.1
 2 C  px              0.0       0.1       0.2       0.0       0.2       0.0
 2 C  py              0.0       0.0       3.0       0.4       0.0       0.5
 3 C  s               0.0       1.2      16.2       2.6      18.2       1.2
 3 C  pz              0.0       0.7       1.1       0.1       0.8       0.0
 3 C  px              0.0       0.9       1.5       4.0       0.2       0.1
 3 C  py              0.0       0.4       0.0       0.4       0.1       0.7
 4 C  s               0.0      17.7       2.1       7.5       0.2       0.0
 4 C  pz              0.0       1.1       1.1       0.1       4.9       0.2
 4 C  px              0.0       0.5       2.5       0.7       6.4       0.8
 4 C  py              0.0      11.2       2.8      12.8       0.5       0.1
 4 C  dz2             0.0       0.3       0.0       0.0       0.0       0.0
 4 C  dyz             0.0       0.4       0.0       0.1       0.0       0.0
 4 C  dx2y2           0.0       0.9       0.1       0.0       0.1       0.0
 4 C  dxy             0.0       0.2       0.0       0.2       0.1       0.0
 5 O  s               0.0      53.4       1.8       3.3       0.1       0.0
 5 O  pz              0.0       0.5       0.0       0.1       0.3       0.0
 5 O  px              0.0       0.3       0.1       0.0       0.4       0.0
 5 O  py              0.0       5.5       0.2       1.4       0.0       0.0
 5 O  dz2             0.0       0.1       0.0       0.2       0.0       0.0
 5 O  dxz             0.0       0.0       0.1       0.0       0.1       0.0
 5 O  dyz             0.0       0.1       0.1       0.1       0.2       0.0
 5 O  dx2y2           0.0       0.3       0.0       0.9       0.1       0.0
 5 O  dxy             0.0       0.1       0.1       0.0       0.4       0.1
 6 C  s               0.0       1.2       1.5      27.9      10.4       1.7
 6 C  pz              0.0       0.1       0.1       0.3       0.3       0.0
 6 C  px              0.0       0.3       0.3       0.4       0.3       0.2
 6 C  py              0.0       1.6       0.0       0.1       0.1       0.0
 7 H  s               0.0       0.0       1.3       0.5       2.9       4.3
 7 H  py              0.0       0.0       0.1       0.0       0.2       0.3
 8 H  s               0.0       0.0       1.3       0.6       3.4       3.4
 8 H  px              0.0       0.0       0.1       0.0       0.2       0.2
 9 H  s               0.0       0.0       1.3       0.5       3.0       3.4
 9 H  pz              0.0       0.0       0.1       0.0       0.1       0.1
 9 H  px              0.0       0.0       0.1       0.0       0.1       0.1
10 H  s               0.0       0.0       3.2       0.6       0.0       0.0
10 H  pz              0.0       0.0       0.1       0.0       0.0       0.0
10 H  px              0.0       0.0       0.1       0.0       0.0       0.0
11 H  s               0.0       0.0       1.0       0.6       0.1       6.7
11 H  pz              0.0       0.0       0.1       0.0       0.0       0.4
11 H  py              0.0       0.0       0.0       0.0       0.0       0.1
12 H  s               0.0       0.0       1.0       0.7       0.4       6.2
12 H  pz              0.0       0.0       0.0       0.0       0.0       0.1
12 H  px              0.0       0.0       0.1       0.0       0.0       0.4
13 H  s               0.0       0.0       1.0       0.6       0.2       5.7
13 H  pz              0.0       0.0       0.0       0.0       0.0       0.2
13 H  px              0.0       0.0       0.0       0.0       0.0       0.3
14 H  s               0.0       0.1       2.3       0.8       3.9       0.5
14 H  py              0.0       0.0       0.2       0.1       0.3       0.0
15 H  s               0.0       0.1       2.1       0.4       4.8       0.1
15 H  pz              0.0       0.0       0.1       0.0       0.3       0.0
15 H  py              0.0       0.0       0.1       0.0       0.2       0.0
16 H  s               0.0       0.1       0.3       5.4       2.5       0.4
16 H  px              0.0       0.0       0.0       0.1       0.1       0.0
16 H  py              0.0       0.0       0.0       0.3       0.1       0.0
17 H  s               0.0       0.1       0.2       4.4       2.8       0.5
17 H  pz              0.0       0.0       0.0       0.2       0.1       0.0
17 H  px              0.0       0.0       0.0       0.2       0.1       0.0
18 H  s               0.0       0.1       0.2       5.5       2.4       0.5
18 H  pz              0.0       0.0       0.0       0.3       0.1       0.0
18 H  px              0.0       0.0       0.0       0.1       0.0       0.0

                     12        13        14        15        16        17   
                  -0.54989  -0.48842  -0.45321  -0.43426  -0.42287  -0.40387
                   2.00000   2.00000   2.00000   2.00000   2.00000   2.00000
                  --------  --------  --------  --------  --------  --------
 0 C  s               3.4       0.9       0.2       0.2       0.2       0.1
 0 C  pz              6.3       2.7       0.0       2.1       1.7       0.4
 0 C  px              0.1       0.0       8.7       2.1       2.1       1.3
 0 C  py              0.4       1.9       1.8       1.4       3.6      12.5
 1 C  s              12.1       2.9       0.2       0.1       0.3       0.1
 1 C  pz              5.7       0.7       2.8       0.0       4.0       5.0
 1 C  px              0.7       1.1      12.6       0.1       3.1       3.1
 1 C  py              1.9       0.0       1.1       4.3       0.0       0.6
 2 C  s               5.0       0.5       0.2       0.5       0.1       0.0
 2 C  pz              1.1       0.0       0.8       0.4       3.1       7.3
 2 C  px              0.0       0.1       7.3       0.8       0.8       1.3
 2 C  py              5.3       3.1       0.2       3.5       2.0       1.1
 2 C  dx2y2           0.1       0.1       0.0       0.1       0.0       0.0
 3 C  s               0.1       3.4       0.1       0.0       0.2       0.4
 3 C  pz              0.2      11.3       9.7       1.4       1.6       1.2
 3 C  px             12.2       0.5       1.2       0.4       6.0       0.7
 3 C  py              0.1       0.3       2.0      24.6       0.7       2.0
 3 C  dxz             0.2       0.1       0.0       0.0       0.1       0.1
 3 C  dx2y2           0.0       0.2       0.0       0.0       0.0       0.0
 4 C  s               3.5       8.8       0.6       0.1       0.1       0.3
 4 C  pz              1.8       0.6       2.1       4.3       8.4       0.1
 4 C  px              2.0       0.0       9.4       0.1       1.9       5.8
 4 C  py              0.7       1.8       0.3       4.5       0.4       1.0
 4 C  dx2y2           0.0       0.0       0.0       0.0       0.0       0.1
 5 O  s               1.6       6.0       0.2       2.8       3.1       0.2
 5 O  pz              0.6       0.2       0.9       6.9       1.3       1.3
 5 O  px              0.7       0.3       4.7       1.0       0.2       6.0
 5 O  py              0.9      12.1       1.6       3.0      12.3       0.4
 5 O  dz2             0.0       0.3       0.0       0.1       0.1       0.1
 5 O  dxz             0.0       0.0       0.0       0.2       0.0       0.1
 5 O  dyz             0.3       0.1       0.1       0.3       0.4       0.0
 5 O  dx2y2           0.0       0.7       0.4       0.1       0.2       0.0
 5 O  dxy             0.2       0.2       0.4       0.0       0.1       0.5
 6 C  s               1.8       1.7       0.3       0.3       0.0       0.0
 6 C  pz              0.7       0.5       4.1       0.1      13.2       1.5
 6 C  px              1.9       4.2       0.3       9.9       0.2       6.2
 6 C  py              0.8       8.6       5.2       0.3       8.5      10.7
 6 C  dxy             0.0       0.2       0.1       0.0       0.0       0.1
 7 H  s               1.3       1.4       0.5       0.7       1.9       4.7
 8 H  s               1.8       0.7       2.8       1.7       0.1       0.2
 8 H  px              0.1       0.0       0.1       0.1       0.0       0.0
 9 H  s               2.9       0.6       1.3       0.2       0.9       2.0
10 H  s               8.5       1.2       3.6       0.0       0.1       2.8
10 H  pz              0.2       0.1       0.1       0.0       0.1       0.0
10 H  px              0.3       0.0       0.0       0.0       0.0       0.0
11 H  s               1.9       0.9       0.7       0.4       2.3       3.2
11 H  pz              0.1       0.0       0.0       0.0       0.0       0.0
12 H  s               2.6       0.2       1.8       1.3       0.5       0.0
12 H  px              0.1       0.0       0.0       0.0       0.0       0.0
13 H  s               3.0       0.7       1.1       0.6       0.0       1.0
13 H  px              0.1       0.0       0.0       0.0       0.0       0.0
14 H  s               0.0       4.0       2.2       7.5       0.0       2.0
14 H  pz              0.0       0.0       0.0       0.1       0.0       0.0
14 H  py              0.0       0.2       0.1       0.1       0.0       0.1
15 H  s               0.1       5.7       1.1       5.1       1.5       0.1
15 H  pz              0.0       0.1       0.0       0.2       0.0       0.0
15 H  py              0.0       0.2       0.1       0.0       0.0       0.0
16 H  s               0.6       2.0       3.8       0.5       0.2       9.0
16 H  pz              0.0       0.0       0.0       0.0       0.1       0.0
16 H  px              0.0       0.1       0.1       0.0       0.0       0.1
17 H  s               1.6       1.8       0.2       1.8       4.3       1.4
17 H  px              0.0       0.0       0.0       0.0       0.2       0.0
18 H  s               0.8       2.6       0.0       2.3       6.4       0.2
18 H  pz              0.1       0.1       0.0       0.1       0.1       0.0
18 H  px              0.0       0.0       0.0       0.0       0.1       0.0
18 H  py              0.0       0.0       0.0       0.0       0.0       0.1

                     18        19        20        21        22        23   
                  -0.39466  -0.38271  -0.36174  -0.34887  -0.34183  -0.32498
                   2.00000   2.00000   2.00000   2.00000   2.00000   2.00000
                  --------  --------  --------  --------  --------  --------
 0 C  s               0.1       0.1       0.0       0.0       0.0       0.1
 0 C  pz              2.4       7.4       5.5       0.2       5.7       0.4
 0 C  px              6.2       0.1      10.8      17.0       1.9       0.3
 0 C  py              8.3       0.1       3.9       0.1       2.8       4.2
 0 C  dxz             0.0       0.0       0.2       0.2       0.0       0.0
 0 C  dx2y2           0.1       0.0       0.0       0.1       0.2       0.0
 1 C  s               0.1       0.1       0.0       0.0       0.1       0.1
 1 C  pz              0.4       2.7       0.4       0.3       1.5       2.3
 1 C  px              3.6       0.0       0.0       0.3       0.1       0.0
 1 C  py              1.1       5.9       0.5       0.0       0.0       0.1
 2 C  s               0.1       0.1       0.0       0.0       0.1       0.1
 2 C  pz              2.6      11.7       0.5       1.0      10.0       7.8
 2 C  px              3.5       2.7       3.3      18.5       2.7       6.6
 2 C  py              3.3       1.7       0.6       0.8       0.5       0.6
 2 C  dxz             0.0       0.0       0.0       0.2       0.0       0.1
 2 C  dyz             0.0       0.0       0.0       0.0       0.1       0.1
 2 C  dx2y2           0.0       0.1       0.0       0.0       0.0       0.1
 3 C  s               0.5       0.2       0.1       0.0       0.3       0.1
 3 C  pz              3.6       0.1       2.0       0.5       7.0       0.2
 3 C  px              1.1       0.0       1.4       2.3       0.1       1.0
 3 C  py              0.0       3.2       2.8       1.4       4.4       5.9
 3 C  dyz             0.0       0.1       0.0       0.0       0.2       0.1
 3 C  dxy             0.0       0.1       0.0       0.0       0.0       0.0
 4 C  s               0.0       0.3       0.3       0.1       0.0       0.0
 4 C  pz              2.0       0.1       0.7       3.9       0.7       5.6
 4 C  px              1.1       1.0       1.3       0.3       6.9       1.7
 4 C  py              0.1       8.4       4.7       0.5       0.0       0.8
 4 C  dz2             0.1       0.0       0.0       0.0       0.0       0.1
 4 C  dyz             0.0       0.0       0.1       0.1       0.2       0.2
 4 C  dx2y2           0.0       0.0       0.2       0.1       0.0       0.0
 4 C  dxy             0.0       0.0       0.1       0.0       0.0       0.4
 5 O  s               0.1       3.1       1.6       0.8       0.0       0.1
 5 O  pz              2.1       2.9       1.1       2.4       3.4      20.7
 5 O  px              0.3       3.5       0.0       2.7       6.7       6.1
 5 O  py              0.0      10.7      13.2       6.4       0.1       0.0
 5 O  dz2             0.0       0.0       0.1       0.1       0.0       0.0
 5 O  dxz             0.0       0.0       0.1       0.1       0.0       0.0
 5 O  dyz             0.2       0.0       0.0       0.1       0.1       0.1
 5 O  dx2y2           0.0       0.2       0.1       0.1       0.0       0.0
 5 O  dxy             0.1       0.0       0.0       0.0       0.3       0.2
 6 C  pz             17.3       3.4       4.3       4.1       0.0       6.0
 6 C  px              6.2       9.0       1.9       1.1      10.3       0.2
 6 C  py              0.1       1.1       8.1       1.5       0.3       0.2
 6 C  dxz             0.0       0.0       0.3       0.1       0.0       0.1
 6 C  dyz             0.0       0.1       0.0       0.0       0.2       0.1
 6 C  dxy             0.1       0.1       0.0       0.0       0.0       0.2
 7 H  s               5.7       0.1       1.3       0.7       3.5       2.0
 7 H  px              0.0       0.0       0.1       0.1       0.0       0.0
 7 H  py              0.2       0.0       0.0       0.0       0.1       0.0
 8 H  s               4.0       0.5       2.0       8.3       3.2       0.2
 8 H  pz              0.0       0.0       0.1       0.0       0.0       0.0
 9 H  s               0.1       2.5       9.7       2.6       1.0       0.0
 9 H  pz              0.0       0.0       0.1       0.1       0.0       0.0
10 H  s               0.0       0.1       0.0       0.0       0.2       0.3
11 H  s               2.5       1.8       0.1       0.1       4.6       5.2
11 H  px              0.0       0.0       0.0       0.1       0.0       0.1
11 H  py              0.0       0.1       0.0       0.0       0.0       0.0
12 H  s               1.6       5.2       0.6       5.1       0.0       7.1
12 H  pz              0.0       0.0       0.0       0.1       0.1       0.0
12 H  px              0.0       0.2       0.0       0.0       0.0       0.1
13 H  s               0.8       0.9       2.1       7.6       3.3       0.1
13 H  pz              0.1       0.0       0.0       0.1       0.0       0.1
13 H  px              0.0       0.1       0.0       0.0       0.1       0.0
14 H  s               0.6       1.9       1.9       1.2       1.4       2.8
15 H  s               2.0       0.5       0.0       0.1       5.8       2.4
16 H  s               5.3       0.0       1.9       0.1       4.2       1.8
16 H  py              0.2       0.0       0.0       0.0       0.1       0.0
17 H  s               0.5       4.5       6.0       3.3       3.2       0.9
17 H  px              0.1       0.0       0.1       0.0       0.0       0.0
18 H  s               8.4       0.1       2.4       1.7       1.2       3.4
18 H  py              0.1       0.0       0.0       0.0       0.0       0.0

                     24        25        26        27        28        29   
                  -0.30703  -0.30226  -0.29946  -0.21029  -0.04775   0.06954
                   2.00000   2.00000   2.00000   2.00000   0.00000   0.00000
                  --------  --------  --------  --------  --------  --------
 0 C  s               0.1       0.5       0.4       0.0       0.2      12.0
 0 C  pz              2.6       3.9      10.4       0.2       0.3       0.6
 0 C  px              4.0       0.7       2.2       0.0       0.1       0.3
 0 C  py              2.0      10.6       0.7       0.0       0.0       1.4
 0 C  dz2             0.1       0.2       0.0       0.0       0.1       0.1
 0 C  dxz             0.4       0.0       0.1       0.0       0.0       0.0
 0 C  dyz             0.1       0.0       0.1       0.0       0.0       0.1
 0 C  dx2y2           0.0       0.2       0.1       0.0       0.0       0.0
 1 C  s               0.3       0.0       0.0       0.0       1.6       2.7
 1 C  pz              6.0       1.6      12.0       0.2       0.4       0.4
 1 C  px              9.3       3.2       7.0       0.9       2.1       1.5
 1 C  py              7.4      17.1       0.0       0.0       0.2       0.7
 1 C  dz2             0.1       0.2       0.0       0.0       0.0       0.0
 1 C  dxz             0.5       0.1       0.1       0.1       0.0       0.1
 1 C  dyz             0.1       0.3       0.2       0.0       0.0       0.0
 1 C  dx2y2           0.1       0.2       0.3       0.0       0.0       0.0
 1 C  dxy             0.2       0.0       0.0       0.0       0.0       0.1
 2 C  s               0.4       0.6       0.0       0.0       0.0       4.7
 2 C  pz              3.8       0.8       6.5       0.2       0.2       0.1
 2 C  px              4.2       3.2       1.4       0.6       0.0       0.2
 2 C  py              7.3      18.7       0.3       0.3       0.0       0.6
 2 C  dxz             0.2       0.0       0.1       0.0       0.0       0.0
 2 C  dyz             0.1       0.2       0.2       0.0       0.0       0.1
 2 C  dx2y2           0.0       0.1       0.2       0.0       0.0       0.1
 2 C  dxy             0.3       0.0       0.0       0.0       0.0       0.0
 3 C  s               0.6       0.1       0.5       0.9       0.1       6.2
 3 C  pz              0.7       0.0       9.4       2.9       0.0       2.0
 3 C  px              1.7       2.4       9.1       5.8       0.5       0.6
 3 C  py              0.1       6.6       0.1       0.6       0.0       2.6
 3 C  dz2             0.0       0.1       0.1       0.0       0.8       0.0
 3 C  dxz             0.1       0.1       0.0       0.0       0.3       0.1
 3 C  dyz             0.0       0.3       0.0       0.0       0.0       0.0
 3 C  dx2y2           0.1       0.1       0.3       0.0       0.7       0.3
 4 C  s               0.4       0.0       0.0       0.0       0.0       3.6
 4 C  pz              0.6       0.4       1.4       1.2      28.4       0.2
 4 C  px              0.3       0.2       0.6       1.9      15.9       0.8
 4 C  py              0.3       0.2       0.0       0.3       0.6       2.9
 4 C  dz2             0.0       0.0       0.2       0.3       0.2       0.1
 4 C  dxz             0.0       0.0       0.0       0.4       0.0       0.1
 4 C  dyz             0.0       0.0       0.3       0.7       0.8       0.1
 4 C  dx2y2           0.0       0.0       0.0       0.9       0.0       0.4
 4 C  dxy             0.1       0.0       0.1       1.8       0.6       0.1
 5 O  s               0.1       0.0       0.0       0.0       0.0       1.6
 5 O  pz              0.6       0.3      10.7      18.8      17.2       0.2
 5 O  px              3.7       0.9       6.1      37.5      10.6       0.0
 5 O  py              1.2       0.0       0.5       7.4       0.3       0.3
 5 O  dz2             0.0       0.0       0.0       0.1       0.9       0.4
 5 O  dyz             0.0       0.0       0.1       0.2       3.7       0.1
 5 O  dx2y2           0.0       0.0       0.0       0.3       0.0       0.7
 5 O  dxy             0.0       0.0       0.0       0.4       2.2       0.2
 6 C  s               0.0       0.1       0.0       1.5       0.0      13.6
 6 C  pz              0.2       0.6       0.1       0.4       0.1       0.4
 6 C  px              0.0       1.1       0.3       2.0       0.1       0.8
 6 C  py              0.6       0.1       0.0       6.4       0.0       2.4
 6 C  dxz             0.0       0.0       0.0       0.0       0.1       0.1
 6 C  dyz             0.0       0.0       0.0       0.0       0.8       0.0
 6 C  dx2y2           0.0       0.0       0.0       0.0       0.2       0.0
 6 C  dxy             0.0       0.0       0.0       0.0       0.4       0.3
 7 H  s               1.4       5.7       0.2       0.0       0.0       2.9
 7 H  pz              0.0       0.1       0.1       0.0       0.0       0.3
 7 H  px              0.0       0.0       0.0       0.0       0.0       0.2
 7 H  py              0.0       0.0       0.0       0.0       0.0       0.9
 8 H  s               1.3       0.5       3.9       0.0       0.0       1.9
 8 H  px              0.0       0.0       0.0       0.0       0.0       0.8
 8 H  py              0.0       0.1       0.0       0.0       0.0       0.1
 9 H  s               7.3       0.0       0.1       0.1       0.1       1.7
 9 H  pz              0.0       0.0       0.1       0.0       0.0       0.1
 9 H  px              0.0       0.0       0.1       0.0       0.1       0.5
 9 H  py              0.0       0.1       0.0       0.0       0.0       0.3
10 H  s              17.1       0.4       0.2       1.4       0.2       1.0
10 H  pz              0.1       0.0       0.1       0.0       0.0       0.2
10 H  px              0.1       0.0       0.1       0.0       0.2       0.3
10 H  py              0.0       0.2       0.0       0.0       0.0       0.1
11 H  s               0.3       4.8       3.0       0.0       0.0       1.1
11 H  pz              0.0       0.1       0.0       0.0       0.0       0.3
12 H  s               0.7       1.2       3.9       0.3       0.1       1.2
12 H  pz              0.1       0.0       0.0       0.0       0.0       0.1
12 H  px              0.0       0.0       0.0       0.0       0.0       0.3
12 H  py              0.1       0.2       0.0       0.0       0.0       0.0
13 H  s               9.0       0.3       0.2       0.5       0.0       0.4
13 H  px              0.1       0.0       0.1       0.0       0.0       0.2
13 H  py              0.0       0.2       0.0       0.0       0.0       0.0
14 H  s               0.3       4.8       0.9       0.6       0.1       3.9
14 H  px              0.0       0.0       0.1       0.1       0.0       0.0
14 H  py              0.0       0.0       0.0       0.0       0.0       1.6
15 H  s               0.0       3.1       3.5       0.1       2.2       1.3
15 H  py              0.0       0.0       0.1       0.0       0.0       0.6
16 H  s               0.1       0.2       0.3       0.3       2.2       4.9
16 H  pz              0.0       0.0       0.0       0.0       0.0       0.2
16 H  px              0.0       0.0       0.0       0.1       0.0       1.1
16 H  py              0.0       0.0       0.0       0.1       0.1       0.6
17 H  s               0.3       1.2       0.0       0.1       0.0       0.6
17 H  px              0.0       0.0       0.0       0.0       0.0       0.1
17 H  py              0.0       0.0       0.0       0.0       0.0       0.4
18 H  s               0.1       0.1       0.3       0.2       2.9       1.4
18 H  pz              0.0       0.0       0.0       0.0       0.0       0.7
18 H  py              0.0       0.0       0.0       0.1       0.1       0.0

                     30        31        32        33        34        35   
                   0.10315   0.11987   0.12310   0.13013   0.13928   0.14132
                   0.00000   0.00000   0.00000   0.00000   0.00000   0.00000
                  --------  --------  --------  --------  --------  --------
 0 C  s               0.1      11.7       0.3       2.4       0.7       4.2
 0 C  pz              3.7       6.5       1.3       1.4       0.7      16.9
 0 C  px              5.2       0.2       0.4       8.4       0.2       2.9
 0 C  py              4.2       0.7       4.6       1.8       4.3       7.9
 0 C  dz2             0.4       0.0       0.0       0.2       0.1       0.2
 0 C  dxz             0.0       0.2       0.1       0.2       0.0       0.6
 0 C  dyz             0.4       0.0       0.1       0.0       0.0       1.7
 0 C  dx2y2           0.1       0.0       0.1       0.0       0.0       0.1
 0 C  dxy             0.0       0.0       0.2       0.7       0.0       0.0
 1 C  s               9.8       0.4       1.4       0.5       1.9       5.4
 1 C  pz              3.4       2.0       2.7       0.5       0.5       6.1
 1 C  px              2.2       3.8       4.7       2.8       0.9       1.0
 1 C  py              0.6       1.8       0.2       2.7       8.5       0.1
 1 C  dz2             0.1       0.4       0.1       0.3       0.1       0.0
 1 C  dxz             0.1       0.6       0.2       0.1       0.0       0.8
 1 C  dyz             0.0       0.1       0.0       0.0       0.5       0.9
 1 C  dx2y2           0.0       0.0       0.6       0.1       0.5       0.2
 1 C  dxy             0.0       0.4       0.1       0.3       0.0       0.0
 2 C  s               4.7       0.1       0.2       0.3      23.9       0.4
 2 C  pz              0.2       0.9       0.1       1.4       0.8       4.5
 2 C  px              1.4       0.2       0.5       0.4       6.1       1.3
 2 C  py              1.6       1.9       3.7       0.3      17.6       2.9
 2 C  dz2             0.2       0.1       0.3       0.0       0.1       0.1
 2 C  dyz             0.1       0.1       0.0       0.0       0.3       0.3
 2 C  dx2y2           0.2       0.0       0.1       0.1       0.1       0.3
 2 C  dxy             0.0       0.4       0.0       0.2       0.0       0.2
 3 C  s               0.2       7.1       3.0       0.2       1.2       1.2
 3 C  pz              1.1       9.4      10.6       0.8       1.2       5.8
 3 C  px              9.0       2.1       0.1       3.3       2.2       0.8
 3 C  py              0.1       6.2       6.7       1.3       3.0       1.9
 3 C  dz2             0.0       0.0       0.2       0.1       0.0       0.5
 3 C  dxz             0.3       0.1       0.1       0.6       0.2       0.5
 3 C  dyz             0.0       0.4       0.0       0.7       0.0       0.2
 3 C  dx2y2           0.3       0.0       1.4       0.0       0.0       0.0
 3 C  dxy             0.0       0.2       0.0       0.0       0.3       0.0
 4 C  s               1.2       0.1       8.6       1.8       0.5       0.2
 4 C  pz              0.6       1.6       0.3       0.5       0.4       3.7
 4 C  px              3.1       0.6       0.0       0.4       0.3       0.6
 4 C  py              0.2       0.2       2.1       2.1       0.1       0.8
 4 C  dz2             0.3       0.0       0.4       0.2       0.0       0.1
 4 C  dxz             0.1       0.0       1.3       0.1       0.0       0.0
[...]
 4 C  pz              0.2       0.0       0.2       0.3       0.7       0.0
 4 C  px              0.3       0.0       0.8       1.1       0.3       0.0
 4 C  py              0.1       0.0       0.3       0.0       7.0       0.0
 4 C  dz2             0.4       0.0       0.5       0.4       0.9       0.0
 4 C  dxz             0.1       0.1       1.2       1.3       0.1       0.0
 4 C  dyz             0.2       1.1       1.3       2.0       1.5       0.0
 4 C  dx2y2           1.0       0.0       1.7       2.4       3.3       0.0
 4 C  dxy             0.4       0.4       5.2       2.0       0.8       0.0
 5 O  s               2.1       0.4       1.0       0.0      19.2       0.0
 5 O  pz              0.2       0.5       0.4       0.9       1.7       0.0
 5 O  px              0.4       0.6       3.1       0.3       0.9       0.0
 5 O  py              0.0       0.0       0.5       0.1      19.8       0.0
 5 O  dz2             0.1       0.2       0.3       1.0       5.1       0.0
 5 O  dxz             0.4       0.4       1.3       0.8       0.3       0.0
 5 O  dyz             0.7       0.9       0.8       2.4       7.6       0.0
 5 O  dx2y2           0.0       1.2       3.8       0.4      19.0       0.0
 5 O  dxy             0.3       0.4       5.0       1.7       4.1       0.0
 6 C  s               0.2       0.1       0.0       0.2       0.0      72.7
 6 C  pz              0.1       0.1       0.8       1.0       0.1       0.0
 6 C  px              2.4       2.1       0.1       1.0       0.0       0.0
 6 C  py              0.1       0.5       0.4       0.0       0.0       0.0
 6 C  dz2             1.0       0.5       0.0       0.1       0.0       0.0
 6 C  dxz             0.4       1.6       0.0       0.8       0.2       0.0
 6 C  dyz             2.8       1.2       0.2       0.5       0.0       0.0
 6 C  dx2y2           0.2       0.1       0.0       0.0       0.0       0.0
 6 C  dxy             0.2       0.0       2.8       1.4       0.0       0.0
 7 H  s               0.1       0.0       0.1       0.1       0.0       0.0
 7 H  px              0.3       0.1       0.1       0.0       0.0       0.0
 7 H  py              0.1       0.1       0.2       0.2       0.0       0.0
 8 H  s               3.0       0.1       0.5       0.1       0.0       0.0
 8 H  pz              1.2       0.1       0.2       0.0       0.0       0.0
 8 H  px              6.1       0.1       1.1       0.1       0.0       0.0
 8 H  py              0.2       0.0       0.1       0.0       0.0       0.0
 9 H  s               2.2       0.8       0.2       0.6       0.0       0.0
 9 H  pz              2.3       1.3       0.3       0.7       0.0       0.0
 9 H  px              1.8       0.6       0.1       0.8       0.0       0.0
 9 H  py              0.6       0.3       0.0       0.1       0.0       0.0
10 H  s               0.1       3.0       0.1       4.7       0.0       0.0
10 H  pz              0.7       2.9       0.1       4.7       0.0       0.0
10 H  px              0.0       3.5       0.0       6.8       0.0       0.0
10 H  py              0.1       1.9       0.2       1.0       0.0       0.0
11 H  s               0.4       0.2       0.6       0.1       0.0       0.0
11 H  pz              0.8       0.2       1.1       0.3       0.0       0.0
11 H  px              0.0       0.1       0.3       0.0       0.0       0.0
11 H  py              0.3       0.2       0.4       0.0       0.0       0.0
12 H  s               0.0       0.0       1.4       0.3       0.0       0.0
12 H  pz              0.1       0.0       1.3       0.1       0.0       0.0
12 H  px              0.0       0.1       1.8       0.4       0.0       0.0
12 H  py              0.0       0.0       0.0       0.1       0.0       0.0
13 H  s               0.6       0.7       3.3       0.9       0.0       0.0
13 H  pz              0.1       0.2       3.1       1.3       0.0       0.0
13 H  px              1.3       1.8       4.2       0.9       0.0       0.0
13 H  py              0.2       0.2       1.8       0.6       0.0       0.0
14 H  s               4.0       2.7       2.7       0.3       0.0       0.0
14 H  pz              0.6       1.6       0.6       0.1       0.0       0.0
14 H  px              0.0       0.0       0.3       0.1       0.0       0.0
14 H  py              9.8       4.3       6.1       0.3       0.0       0.0
15 H  s               0.2       4.6       0.3       2.4       0.0       0.0
15 H  pz              0.5       7.6       0.7       5.0       0.0       0.0
15 H  py              0.0       2.7       0.1       1.2       0.0       0.0
16 H  s               1.5       1.1       0.3       0.0       0.0       0.0
16 H  pz              0.6       0.7       0.1       0.1       0.0       0.0
16 H  px              1.2       0.4       0.6       0.0       0.0       0.0
16 H  py              2.1       1.5       0.2       0.1       0.0       0.0
17 H  s               0.6       1.3       0.2       1.1       0.1       0.0
17 H  pz              0.8       1.2       0.1       0.7       0.0       0.0
17 H  px              0.3       1.0       0.3       1.1       0.0       0.0
17 H  py              0.1       0.2       0.0       0.2       0.0       0.0
18 H  s               0.5       0.0       0.1       0.1       0.0       0.0
18 H  pz              0.8       0.0       0.0       0.1       0.0       0.0
18 H  px              0.1       0.1       0.0       0.2       0.0       0.0
18 H  py              0.4       0.0       0.1       0.1       0.0       0.0

                    192       193       194       195       196       197   
                  21.97065  22.02443  22.08669  22.11110  22.19000  43.65965
                   0.00000   0.00000   0.00000   0.00000   0.00000   0.00000
                  --------  --------  --------  --------  --------  --------
 0 C  s              16.4      66.9       0.6       3.1       5.8       0.0
 1 C  s              12.2       1.2      12.3      11.4      59.6       0.0
 2 C  s              42.9      29.3       0.0      17.0       1.0       0.0
 3 C  s               0.2       0.3      78.5      10.2       4.0       0.0
 4 C  s               5.6       1.7       4.1      57.4      29.0       0.0
 5 O  s               0.0       0.0       0.0       0.1       0.1      99.9
 6 C  s              22.3       0.2       3.9       0.4       0.1       0.0



                      *****************************
                      * MAYER POPULATION ANALYSIS *
                      *****************************

  NA   - Mulliken gross atomic population
  ZA   - Total nuclear charge
  QA   - Mulliken gross atomic charge
  VA   - Mayer's total valence
  BVA  - Mayer's bonded valence
  FA   - Mayer's free valence

  ATOM       NA         ZA         QA         VA         BVA        FA
  0 C      6.5427     6.0000    -0.5427     3.7679     3.7679     0.0000
  1 C      5.9735     6.0000     0.0265     3.5075     3.5075    -0.0000
  2 C      6.5077     6.0000    -0.5077     3.8159     3.8159     0.0000
  3 C      6.3345     6.0000    -0.3345     3.5261     3.5261     0.0000
  4 C      5.7120     6.0000     0.2880     3.6728     3.6728     0.0000
  5 O      8.3481     8.0000    -0.3481     1.9514     1.9514     0.0000
  6 C      6.5187     6.0000    -0.5187     3.8260     3.8260     0.0000
  7 H      0.8473     1.0000     0.1527     0.9593     0.9593     0.0000
  8 H      0.8496     1.0000     0.1504     0.9642     0.9642     0.0000
  9 H      0.8325     1.0000     0.1675     0.9586     0.9586     0.0000
 10 H      0.8463     1.0000     0.1537     0.9552     0.9552    -0.0000
 11 H      0.8563     1.0000     0.1437     0.9655     0.9655     0.0000
 12 H      0.8607     1.0000     0.1393     0.9636     0.9636     0.0000
 13 H      0.8092     1.0000     0.1908     0.9544     0.9544    -0.0000
 14 H      0.8407     1.0000     0.1593     0.9581     0.9581    -0.0000
 15 H      0.8287     1.0000     0.1713     0.9632     0.9632     0.0000
 16 H      0.8351     1.0000     0.1649     0.9587     0.9587     0.0000
 17 H      0.8228     1.0000     0.1772     0.9610     0.9610    -0.0000
 18 H      0.8334     1.0000     0.1666     0.9585     0.9585    -0.0000

  Mayer bond orders larger than 0.100000
B(  0-C ,  1-C ) :   0.8838 B(  0-C ,  7-H ) :   0.9788 B(  0-C ,  8-H ) :   0.9648 
B(  0-C ,  9-H ) :   0.9698 B(  1-C ,  2-C ) :   0.9462 B(  1-C ,  3-C ) :   0.8686 
B(  1-C , 10-H ) :   0.9659 B(  2-C , 11-H ) :   0.9711 B(  2-C , 12-H ) :   0.9736 
B(  2-C , 13-H ) :   0.9658 B(  3-C ,  4-C ) :   0.8548 B(  3-C , 14-H ) :   0.9657 
B(  3-C , 15-H ) :   0.9658 B(  4-C ,  5-O ) :   1.9248 B(  4-C ,  6-C ) :   0.9179 
B(  6-C , 16-H ) :   0.9463 B(  6-C , 17-H ) :   0.9876 B(  6-C , 18-H ) :   0.9452 


-------
TIMINGS
-------

Total SCF time: 0 days 0 hours 0 min 26 sec 

Total time                  ....      26.845 sec
Sum of individual times     ....      26.143 sec  ( 97.4%)

SCF preparation             ....       0.172 sec  (  0.6%)
Fock matrix formation       ....      24.868 sec  ( 92.6%)
  Startup                   ....       0.065 sec  (  0.3% of F)
  Split-RI-J                ....       4.417 sec  ( 17.8% of F)
  XC integration            ....      19.773 sec  ( 79.5% of F)
    XC Preparation          ....       0.000 sec  (  0.0% of XC)
    Basis function eval.    ....       3.689 sec  ( 18.7% of XC)
    Density eval.           ....       5.637 sec  ( 28.5% of XC)
    XC-Functional eval.     ....       2.548 sec  ( 12.9% of XC)
    XC-Potential eval.      ....       6.247 sec  ( 31.6% of XC)
Diagonalization             ....       0.000 sec  (  0.0%)
Density matrix formation    ....       0.272 sec  (  1.0%)
Total Energy calculation    ....       0.037 sec  (  0.1%)
Population analysis         ....       0.140 sec  (  0.5%)
Orbital Transformation      ....       0.056 sec  (  0.2%)
Orbital Orthonormalization  ....       0.000 sec  (  0.0%)
DIIS solution               ....       0.514 sec  (  1.9%)
  MO trafo                  ....       0.000 sec  (  0.0 % of DIIS)
  Orb grad                  ....       0.000 sec  (  0.0 % of DIIS)
  Energy W gradient         ....       0.000 sec  (  0.0 % of DIIS)
  DIIS error                ....       0.010 sec  (  1.9 % of DIIS)
  DIIS work                 ....       0.442 sec  ( 86.0 % of DIIS)
  Form Q                    ....       0.000 sec  (  0.0 % of DIIS)
  Form QpQm                 ....       0.000 sec  (  0.0 % of DIIS)
  Exp/Cayley                ....       0.000 sec  (  0.0 % of DIIS)
  Orb update                ....       0.000 sec  (  0.0 % of DIIS)
  Wake-sleep                ....       0.035 sec  (  6.8 % of DIIS)
SOSCF solution              ....       0.084 sec  (  0.3%)
  MO trafo                  ....       0.047 sec  ( 55.6 % of SOSCF)
  Orb grad                  ....       0.002 sec  (  2.0 % of SOSCF)
  Rot update                ....       0.013 sec  ( 15.5 % of SOSCF)
  Step                      ....       0.022 sec  ( 26.8 % of SOSCF)
Finished LeanSCF after  26.9 sec

Maximum memory used throughout the entire LEANSCF-calculation: 21.8 MB


-------------------------------------------------------------------------------
                          DFT DISPERSION CORRECTION                            
                                                                               
                                DFTD4 V3.4.0                                   
-------------------------------------------------------------------------------
The R2SCAN3C composite method is recognized
Using three-body term ABC
Active option DFTDOPT                   ...         5   

-------------------------   ----------------
Dispersion correction           -0.005252509
-------------------------   ----------------

------------------   -----------------
gCP correction             0.008987846
------------------   -----------------

-------------------------   --------------------
FINAL SINGLE POINT ENERGY      -311.003030417997
-------------------------   --------------------


------------------------------------------------------------------------------
                              ORCA PROPERTY CALCULATIONS
------------------------------------------------------------------------------

GBWName                                 ... sp_gas.gbw
Number of atoms                         ...     19
Number of basis functions               ...    198
Max core memory                         ...   1024 MB

Electric properties:
Dipole moment                           ... YES
Quadrupole moment                       ...  NO
Static polarizability (Dipole/Dipole)   ...  NO
Static polarizability (Dipole/Quad.)    ...  NO
Static polarizability (Quad./Quad.)     ...  NO
Static polarizability (Velocity)        ...  NO

Atomic electric properties:
Dipole moment                           ...  NO
Quadrupole moment                       ...  NO
Static polarizability                   ...  NO

Choice of electric origin               ... Center of mass
Position of electric origin             ...     0.000020     0.000016     0.000001

General magnetic properties:
Magnetizability                         ...  NO

EPR properties:
g-Tensor (aka g-matrix)                 ...  NO
Zero-Field splitting spin-orbit         ...  NO
Zero-field splitting spin-spin          ...  NO
Hyperfine couplings                     ...  NO (   0 nuclei)
Quadrupole couplings                    ...  NO (   0 nuclei)
Contact density                         ...  NO (   0 nuclei)

NMR properties:
Chemical shifts                         ...  NO (   0 nuclei)
Spin-rotation constants                 ...  NO (   0 nuclei)
Spin-spin couplings                     ...  NO (   0 nuclei,    0 pairs)

Choice of magnetic origin               ... GIAO
Position of magnetic origin             ...     0.000000     0.000000     0.000000

Properties with geometric perturbations:
SCF Hessian                             ...  NO
IR spectrum                             ...  NO
VCD spectrum                            ...  NO
X-ray spectroscopy properties:
SCF XES/XAS/RIXS spectra                ...  NO


-------------
DIPOLE MOMENT
-------------

Method             : SCF
Type of density    : Electron Density
Multiplicity       :   1
Irrep              :   0
Energy             :  -311.0067657554673701 Eh
Relativity type    : 
Basis              : AO
                                X                 Y                 Z
Electronic contribution:     -4.538551727      -2.773254565       0.871560119
Nuclear contribution   :      4.875736379       3.791291843      -0.559626576
                        -----------------------------------------
Total Dipole Moment    :      0.337184652       1.018037278       0.311933543
                        -----------------------------------------
Magnitude (a.u.)       :      1.116868804
Magnitude (Debye)      :      2.838854892



--------------------
Rotational spectrum 
--------------------
 
Rotational constants in cm-1:             0.126831             0.064989             0.054134 
Rotational constants in MHz :          3802.309443          1948.328618          1622.903382 

Dipole components along the rotational axes: 
x,y,z [a.u.] :     0.152283     0.969744     0.532732 
x,y,z [Debye]:     0.387072     2.464892     1.354097 

 

Dipole moment calculation done in   0.0 sec 

Maximum memory used throughout the entire PROP-calculation: 12.3 MB

--------------------------------
SUGGESTED CITATIONS FOR THIS RUN
--------------------------------

Below you find a list of papers that are relevant to this ORCA run
We neither can nor want to force you to cite these papers, but we appreciate if you do
You receive ORCA, which is the product of decades of hard work by many enthusiastic individuals, for free
The only thing we kindly ask in return is that you cite our papers,
We deeply appreciate it, if you show your appreciation for ORCA by not just citing the generic ORCA reference.

Please note that relegating all ORCA citations to the supporting information does *not* help us.
SI sections are not indexed - citations you put there will not count into any citation statistics
But we need these citations in order to attract the funding resources that allow us to do what we are doing

Therefore, if you are a happy ORCA user, please consider citing a few of the papers listed below in the main body of your paper

In addition to the list printed below, the program has created the file sp_gas.bibtex that contains the list in bibtex format
You can import this file easily into all common literature databanks and citation aid programs


List of essential papers. We consider these as the minimum necessary citations

  1. Neese,F.
     Software update: the ORCA program system, version 5.0
     WIRES Comput. Molec. Sci., 2022 12(1)e1606
     doi.org/10.1002/wcms.1606
  2. Grimme,S.; Hansen,A.; Ehlert,S.; Mewes,J.
     r2SCAN-3c: A 'Swiss army knife' composite electronic-structure method
     J. Chem. Phys., 2021 154 064103
     doi.org/10.1063/5.0040021

List of papers to cite with high priority. The work reported in these papers was absolutely
necessary for this run to complete.
Our perspective: the developers of density functionals and basis sets usually get cited in chemistry papers
Good! But without the algorithms to do something with them, the functionals or basis sets would not do anything.
Hence, in our opinion, the algorithm design and method developments papers are equally worthy of getting cited

  1. Neese,F.
     An improvement of the resolution of the identity approximation for the formation of the Coulomb matrix
     J. Comp. Chem., 2003 24(14)1740-1747
     doi.org/10.1002/jcc.10318
  2. Neese,F.
     The SHARK Integral Generation and Digestion System
     J. Comp. Chem., 2022  1-16
     doi.org/10.1002/jcc.26942
  3. Lehtola,S.; Steigemann,C.; Oliveira,M.; Marques,M.
     Recent developments in Libxc - A comprehensive library of functionals for density functional theory
     Software X, 2018 7 
     doi.org/10.1016/j.softx.2017.11.002
  4. Caldeweyher,E.; Bannwarth,C.; Grimme,S.
     Extension of the D3 dispersion coefficient model
     J. Chem. Phys., 2017 147 034112-XXXX
     doi.org/10.1063/1.4993215
  5. Caldeweyher,E.; Ehlert,S.; Hansen,A.; Neugebauer,H.; Spicher,S.; Bannwarth,C.; Grimme,S.
     A generally applicable atomic-charge dependent London dispersion correction
     J. Chem. Phys., 2019 150 154122-XXXX
     doi.org/10.1063/1.5090222
  6. Caldeweyher,E.; Mewes,J.; Ehlert,S.; Grimme,S.
     Extension and evaluation of the D4 London-dispersion model for periodic systems
     Phys. Chem. Chem. Phys., 2020 22(16)8499-8512
     doi.org/10.1039/D0CP00502A

List of suggested additional citations. These are papers that are important in the 'surrounding' of 
of this run, or papers that preceded the highly important papers. If you like your results we are grateful for a citation.

  1. Neese,F.
     The ORCA program system
     WIRES Comput. Molec. Sci., 2012 2(1)73-78
     doi.org/10.1002/wcms.81
  2. Neese,F.
     Software update: the ORCA program system, version 4.0
     WIRES Comput. Molec. Sci., 2018 8(1)1-6
     doi.org/10.1002/wcms.1327
  3. Neese,F.; Wennmohs,F.; Becker,U.; Riplinger,C.
     The ORCA quantum chemistry program package
     J. Chem. Phys., 2020 152 Art. No. L224108
     doi.org/10.1063/5.0004608

List of optional additional citations

  1. Neese,F.
     Approximate second-order SCF convergence for spin unrestricted wavefunctions
     Chem. Phys. Lett., 2000 325(1-3)93-98
     doi.org/10.1016/s0009-2614(00)00662-x

Timings for individual modules:

Sum of individual times          ...       28.481 sec (=   0.475 min)
Startup calculation              ...        1.156 sec (=   0.019 min)   4.1 %
SCF iterations                   ...       27.223 sec (=   0.454 min)  95.6 %
Property calculations            ...        0.102 sec (=   0.002 min)   0.4 %
                             ****ORCA TERMINATED NORMALLY****
TOTAL RUN TIME: 0 days 0 hours 0 minutes 29 seconds 288 msec
