      -----------------------------------------------------------      
     |                   =====================                   |     
     |                           x T B                           |     
     |                   =====================                   |     
     |                         S. Grimme                         |     
     |          Mulliken Center for Theoretical Chemistry        |     
     |                    University of Bonn                     |     
      -----------------------------------------------------------      

   * xtb version 6.7.1 (edcfbbe) compiled by 'albert@albert-system' on 2024-07-22

   xtb is free software: you can redistribute it and/or modify it under
   the terms of the GNU Lesser General Public License as published by
   the Free Software Foundation, either version 3 of the License, or
   (at your option) any later version.
   
   xtb is distributed in the hope that it will be useful,
   but WITHOUT ANY WARRANTY; without even the implied warranty of
   MERCHANTABILITY or FITNESS FOR A PARTICULAR PURPOSE.  See the
   GNU Lesser General Public License for more details.
   
   Cite this work as:
   * C. Bannwarth, E. Caldeweyher, S. Ehlert, A. Hansen, P. Pracht,
     J. Seibert, S. Spicher, S. Grimme, WIREs Comput. Mol. Sci., 2020, 11,
     e01493. DOI: 10.1002/wcms.1493
   
   for GFN2-xTB:
   * C. Bannwarth, S. Ehlert and S. Grimme., J. Chem. Theory Comput., 2019,
     15, 1652-1671. DOI: 10.1021/acs.jctc.8b01176
   for GFN1-xTB:
   * S. Grimme, C. Bannwarth, P. Shushkov, J. Chem. Theory Comput., 2017,
     13, 1989-2009. DOI: 10.1021/acs.jctc.7b00118
   for GFN0-xTB:
   * P. Pracht, E. Caldeweyher, S. Ehlert, S. Grimme, ChemRxiv, 2019, preprint.
     DOI: 10.26434/chemrxiv.8326202.v1
   for GFN-FF:
   * S. Spicher and S. Grimme, Angew. Chem. Int. Ed., 2020, 59, 15665-15673.
     DOI: 10.1002/anie.202004239
   
   for ALPB and GBSA implicit solvation:
   * S. Ehlert, M. Stahn, S. Spicher, S. Grimme, J. Chem. Theory Comput.,
     2021, 17, 4250-4261. DOI: 10.1021/acs.jctc.1c00471
   
   for ddCOSMO and CPCM-X implicit solvation:
   * M. Stahn, S. Ehlert, S. Grimme, J. Phys. Chem. A,
     2023, XX, XXXX-XXXX. DOI: 10.1021/acs.jpca.3c04382
   
   for DFT-D4:
   * E. Caldeweyher, C. Bannwarth and S. Grimme, J. Chem. Phys., 2017,
     147, 034112. DOI: 10.1063/1.4993215
   * E. Caldeweyher, S. Ehlert, A. Hansen, H. Neugebauer, S. Spicher,
     C. Bannwarth and S. Grimme, J. Chem. Phys., 2019, 150, 154122.
     DOI: 10.1063/1.5090222
   * E. Caldeweyher, J.-M. Mewes, S. Ehlert and S. Grimme, Phys. Chem. Chem. Phys.
     2020, 22, 8499-8512. DOI: 10.1039/D0CP00502A
   
   for sTDA-xTB:
   * S. Grimme and C. Bannwarth, J. Chem. Phys., 2016, 145, 054103.
     DOI: 10.1063/1.4959605
   
   in the mass-spec context:
   * V. Asgeirsson, C. Bauer and S. Grimme, Chem. Sci., 2017, 8, 4879.
     DOI: 10.1039/c7sc00601b
   * J. Koopman and S. Grimme, ACS Omega 2019, 4, 12, 15120-15133.
     DOI: 10.1021/acsomega.9b02011
   
   for metadynamics refer to:
   * S. Grimme, J. Chem. Theory Comput., 2019, 155, 2847-2862
     DOI: 10.1021/acs.jctc.9b00143
   
   for SPH calculations refer to:
   * S. Spicher and S. Grimme, J. Chem. Theory Comput., 2021, 17, 1701-1714
     DOI: 10.1021/acs.jctc.0c01306
   
   for ONIOM refer to:
   * C. Plett, A. Katbashev, S. Ehlert, S. Grimme, M. Bursch,
     Phys. Chem. Chem. Phys., 2023, 25, 17860-17868. DOI: 10.1039/D3CP02178E
   
   for DIPRO refer to:
   * J. Kohn, N. Gildemeister, S. Grimme, D. Fazzi, A. Hansen,
     J. Chem. Phys., 2023, just accepted.
   
   for PTB refer to:
   * S. Grimme, M. Mueller, A. Hansen, J. Chem. Phys., 2023, 158, 124111.
     DOI: 10.1063/5.0137838
   
   with help from (in alphabetical order)
   P. Atkinson, C. Bannwarth, F. Bohle, G. Brandenburg, E. Caldeweyher
   M. Checinski, S. Dohm, S. Ehlert, S. Ehrlich, I. Gerasimov, C. Hölzer
   A. Katbashev, J. Kohn, J. Koopman, C. Lavigne, S. Lehtola, F. März, M. Müller,
   F. Musil, H. Neugebauer, J. Pisarek, C. Plett, P. Pracht, F. Pultar,
   J. Seibert, P. Shushkov, S. Spicher, M. Stahn, M. Steiner, T. Strunk,
   J. Stückrath, T. Rose, and J. Unsleber
   
 * started run on 2025/04/11 at 11:49:46.941     
   ID    Z sym.   atoms
    1    6 C      1-4, 7
    2    8 O      5, 6
    3    1 H      8-17

           -------------------------------------------------
          |                Calculation Setup                |
           -------------------------------------------------

          program call               : /srv/scratch/z5358697/.xtb/bin/xtb solv.coord --gfn2 --sp --chrg 0 --norestart --parallel 1 --alpb water reference -I xtb_sp-xcontrol-inp
          hostname                   : k064
          coordinate file            : solv.coord
          omp threads                :                     1


           -------------------------------------------------
          |                 G F N 2 - x T B                 |
           -------------------------------------------------

        Reference                      10.1021/acs.jctc.8b01176
      * Hamiltonian:
        H0-scaling (s, p, d)           1.850000    2.230000    2.230000
        zeta-weighting                 0.500000
      * Dispersion:
        s8                             2.700000
        a1                             0.520000
        a2                             5.000000
        s9                             5.000000
      * Repulsion:
        kExp                           1.500000    1.000000
        rExp                           1.000000
      * Coulomb:
        alpha                          2.000000
        third order                    shell-resolved
        anisotropic                    true
        a3                             3.000000
        a5                             4.000000
        cn-shift                       1.200000
        cn-exp                         4.000000
        max-rad                        5.000000

      * Solvation model:               ALPB
        Solvent                        water
        Parameter file                 internal GFN2-xTB/ALPB
        Dielectric constant                8.0200E+01
        Reference state                gsolv=reference [X=1]
        Free energy shift                  2.8945E-03 Eh       1.8164E+00 kcal/mol
        Temperature                        2.9815E+02 K
        Density                            1.0000E+00 kg/L
        Solvent mass                       1.8000E+01 g/mol
        Interaction kernel             P16
        Born radius scaling (c1)           1.4744E+00
        Born radii integrator          GBOBC
        Born offset                        0.0000E+00 a0       0.0000E+00 AA
        H-bond correction              true
        Ion screening                  false
        Surface tension                    1.0000E-05 Eh       1.5569E+01 dyn/cm
        Grid points                               974 per atom

          ...................................................
          :                      SETUP                      :
          :.................................................:
          :  # basis functions                  38          :
          :  # atomic orbitals                  38          :
          :  # shells                           24          :
          :  # electrons                        42          :
          :  max. iterations                   250          :
          :  Hamiltonian                  GFN2-xTB          :
          :  restarted?                      false          :
          :  GBSA solvation                   true          :
          :  PC potential                    false          :
          :  electronic temp.          300.0000000     K    :
          :  accuracy                    1.0000000          :
          :  -> integral cutoff          0.2500000E+02      :
          :  -> integral neglect         0.1000000E-07      :
          :  -> SCF convergence          0.1000000E-05 Eh   :
          :  -> wf. convergence          0.1000000E-03 e    :
          :  Broyden damping             0.4000000          :
          :  net charge                          0          :
          :  unpaired electrons                  0          :
          ...................................................

 iter      E             dE          RMSdq      gap      omega  full diag
   1    -24.1637168 -0.241637E+02  0.413E+00    5.80       0.0  T
   2    -24.2181692 -0.544524E-01  0.207E+00    4.88       1.0  T
   3    -24.2197480 -0.157878E-02  0.105E+00    5.18       1.0  T
   4    -24.2211389 -0.139093E-02  0.162E-01    4.95       1.0  T
   5    -24.2213100 -0.171063E-03  0.702E-02    5.00       1.0  T
   6    -24.2213115 -0.155501E-05  0.208E-02    5.00       1.2  T
   7    -24.2213123 -0.742988E-06  0.431E-03    5.00       5.6  T
   8    -24.2213123 -0.335378E-07  0.248E-03    5.00       9.8  T
   9    -24.2213123 -0.850845E-08  0.451E-04    5.00      53.8  T
  10    -24.2213123 -0.770292E-09  0.195E-04    5.00     124.3  T

   *** convergence criteria satisfied after 10 iterations ***

         #    Occupation            Energy/Eh            Energy/eV
      -------------------------------------------------------------
         1        2.0000           -0.7512592             -20.4428
       ...           ...                  ...                  ...
        15        2.0000           -0.4814789             -13.1017
        16        2.0000           -0.4724388             -12.8557
        17        2.0000           -0.4512756             -12.2798
        18        2.0000           -0.4488209             -12.2130
        19        2.0000           -0.4454419             -12.1211
        20        2.0000           -0.4370301             -11.8922
        21        2.0000           -0.4215222             -11.4702 (HOMO)
        22                         -0.2378263              -6.4716 (LUMO)
        23                          0.0023468               0.0639
        24                          0.0967358               2.6323
        25                          0.1233692               3.3570
        26                          0.1275607               3.4711
       ...                                ...                  ...
        38                          0.6174866              16.8027
      -------------------------------------------------------------
                  HL-Gap            0.1836959 Eh            4.9986 eV
             Fermi-level           -0.3296742 Eh           -8.9709 eV

 SCC (total)                   0 d,  0 h,  0 min,  0.026 sec
 SCC setup                      ...        0 min,  0.002 sec (  6.588%)
 Dispersion                     ...        0 min,  0.000 sec (  0.463%)
 classical contributions        ...        0 min,  0.000 sec (  0.110%)
 integral evaluation            ...        0 min,  0.002 sec (  8.343%)
 iterations                     ...        0 min,  0.017 sec ( 66.013%)
 molecular gradient             ...        0 min,  0.005 sec ( 17.648%)
 printout                       ...        0 min,  0.000 sec (  0.758%)

         :::::::::::::::::::::::::::::::::::::::::::::::::::::
         ::                     SUMMARY                     ::
         :::::::::::::::::::::::::::::::::::::::::::::::::::::
         :: total energy             -23.952886764331 Eh    ::
         :: total w/o Gsasa/hb       -23.954917055703 Eh    ::
         :: gradient norm              0.000075847015 Eh/a0 ::
         :: HOMO-LUMO gap              4.998621001100 eV    ::
         ::.................................................::
         :: SCC energy               -24.221285496468 Eh    ::
         :: -> isotropic ES            0.057609739114 Eh    ::
         :: -> anisotropic ES          0.000724785966 Eh    ::
         :: -> anisotropic XC          0.006415184261 Eh    ::
         :: -> dispersion             -0.009481567518 Eh    ::
         :: -> Gsolv                  -0.007004922659 Eh    ::
         ::    -> Gelec               -0.009035214031 Eh    ::
         ::    -> Gsasa                0.001471106630 Eh    ::
         ::    -> Ghb                 -0.002335364418 Eh    ::
         ::    -> Gshift               0.002894549160 Eh    ::
         :: repulsion energy           0.268398732136 Eh    ::
         :: add. restraining           0.000000000000 Eh    ::
         :: total charge              -0.000000000000 e     ::
         :::::::::::::::::::::::::::::::::::::::::::::::::::::

           -------------------------------------------------
          |                Property Printout                |
           -------------------------------------------------

    * Orbital Energies and Occupations

         #    Occupation            Energy/Eh            Energy/eV
      -------------------------------------------------------------
         1        2.0000           -0.7512592             -20.4428
       ...           ...                  ...                  ...
         9        2.0000           -0.5682225             -15.4621
        10        2.0000           -0.5499543             -14.9650
        11        2.0000           -0.5235315             -14.2460
        12        2.0000           -0.5152804             -14.0215
        13        2.0000           -0.5003286             -13.6146
        14        2.0000           -0.4912144             -13.3666
        15        2.0000           -0.4814789             -13.1017
        16        2.0000           -0.4724388             -12.8557
        17        2.0000           -0.4512756             -12.2798
        18        2.0000           -0.4488209             -12.2130
        19        2.0000           -0.4454419             -12.1211
        20        2.0000           -0.4370301             -11.8922
        21        2.0000           -0.4215222             -11.4702 (HOMO)
        22                         -0.2378263              -6.4716 (LUMO)
        23                          0.0023468               0.0639
        24                          0.0967358               2.6323
        25                          0.1233692               3.3570
        26                          0.1275607               3.4711
        27                          0.1401970               3.8150
        28                          0.1532989               4.1715
        29                          0.1587210               4.3190
        30                          0.1782518               4.8505
        31                          0.1927326               5.2445
        32                          0.2046653               5.5692
       ...                                ...                  ...
        38                          0.6174866              16.8027
      -------------------------------------------------------------
                  HL-Gap            0.1836959 Eh            4.9986 eV
             Fermi-level           -0.3296742 Eh           -8.9709 eV

     #   Z          covCN         q      C6AA      α(0)
     1   6 C        3.752    -0.113    22.718     6.797
     2   6 C        3.802    -0.057    21.600     6.617
     3   6 C        3.804    -0.102    22.445     6.745
     4   6 C        2.714     0.366    20.785     7.463
     5   8 O        0.856    -0.486    23.483     6.497
     6   8 O        1.704    -0.268    18.441     5.798
     7   6 C        3.646     0.008    20.789     6.553
     8   1 H        0.925     0.049     2.336     2.390
     9   1 H        0.925     0.049     2.335     2.390
    10   1 H        0.925     0.028     2.615     2.529
    11   1 H        0.925     0.058     2.225     2.332
    12   1 H        0.924     0.048     2.350     2.397
    13   1 H        0.925     0.079     1.986     2.204
    14   1 H        0.924     0.088     1.901     2.156
    15   1 H        0.925     0.099     1.792     2.094
    16   1 H        0.924     0.074     2.037     2.232
    17   1 H        0.925     0.080     1.974     2.197

 Mol. C6AA /au·bohr⁶  :       2203.598909
 Mol. C8AA /au·bohr⁸  :      46933.993246
 Mol. α(0) /au        :         69.390434


Wiberg/Mayer (AO) data.
largest (>0.10) Wiberg bond orders for each atom

 ---------------------------------------------------------------------------
     #   Z sym  total        # sym  WBO       # sym  WBO       # sym  WBO
 ---------------------------------------------------------------------------
     1   6 C    3.996 --     2 C    1.021    10 H    0.988     8 H    0.986
                             9 H    0.986
     2   6 C    3.992 --     1 C    1.021     3 C    0.990    12 H    0.977
                            11 H    0.976
     3   6 C    3.989 --     2 C    0.990     4 C    0.979    13 H    0.971
                            14 H    0.945
     4   6 C    3.903 --     5 O    1.695     6 O    1.163     3 C    0.979
     5   8 O    1.976 --     4 C    1.695     6 O    0.171
     6   8 O    2.318 --     4 C    1.163     7 C    0.938     5 O    0.171
     7   6 C    3.904 --    16 H    0.977    15 H    0.976    17 H    0.974
                             6 O    0.938
     8   1 H    0.998 --     1 C    0.986
     9   1 H    0.998 --     1 C    0.986
    10   1 H    0.999 --     1 C    0.988
    11   1 H    0.996 --     2 C    0.976
    12   1 H    0.998 --     2 C    0.977
    13   1 H    0.994 --     3 C    0.971
    14   1 H    0.992 --     3 C    0.945
    15   1 H    0.990 --     7 C    0.976
    16   1 H    0.994 --     7 C    0.977
    17   1 H    0.994 --     7 C    0.974
 ---------------------------------------------------------------------------

Topologies differ in total number of bonds
Writing topology from bond orders to xtbtopo.mol

molecular dipole:
                 x           y           z       tot (Debye)
 q only:        0.028       0.757      -0.754
   full:        0.079       0.748      -0.770       2.737
molecular quadrupole (traceless):
                xx          xy          yy          xz          yz          zz
 q only:        8.053       3.389      -4.470       0.958       3.660      -3.583
  q+dip:        6.599       2.892      -3.713       0.542       4.159      -2.887
   full:        7.033       2.764      -3.884       0.446       4.808      -3.149


           -------------------------------------------------
          | TOTAL ENERGY              -23.952886764331 Eh   |
          | GRADIENT NORM               0.000075847015 Eh/α |
          | HOMO-LUMO GAP               4.998621001100 eV   |
           -------------------------------------------------

------------------------------------------------------------------------
 * finished run on 2025/04/11 at 11:49:47.012     
------------------------------------------------------------------------
 total:
 * wall-time:     0 d,  0 h,  0 min,  0.070 sec
 *  cpu-time:     0 d,  0 h,  0 min,  0.030 sec
 * ratio c/w:     0.423 speedup
 SCF:
 * wall-time:     0 d,  0 h,  0 min,  0.026 sec
 *  cpu-time:     0 d,  0 h,  0 min,  0.019 sec
 * ratio c/w:     0.715 speedup

