
                                 *****************
                                 * O   R   C   A *
                                 *****************

                                            #,                                       
                                            ###                                      
                                            ####                                     
                                            #####                                    
                                            ######                                   
                                           ########,                                 
                                     ,,################,,,,,                         
                               ,,#################################,,                 
                          ,,##########################################,,             
                       ,#########################################, ''#####,          
                    ,#############################################,,   '####,        
                  ,##################################################,,,,####,       
                ,###########''''           ''''###############################       
              ,#####''   ,,,,##########,,,,          '''####'''          '####       
            ,##' ,,,,###########################,,,                        '##       
           ' ,,###''''                  '''############,,,                           
         ,,##''                                '''############,,,,        ,,,,,,###''
      ,#''                                            '''#######################'''  
     '                                                          ''''####''''         
             ,#######,   #######,   ,#######,      ##                                
            ,#'     '#,  ##    ##  ,#'     '#,    #''#        ,####,   ,####,        
            ##       ##  ##   ,#'  ##            #'  '#       #'       #'  '#        
            ##       ##  #######   ##           ,######,      #####,   #    #        
            '#,     ,#'  ##    ##  '#,     ,#' ,#      #,     #,   #   #,  ,#        
             '#######'   ##     ##  '#######'  #'      '#     '####' # '####'        



                #########################################################
                #                        -***-                          #
                #          Department of theory and spectroscopy        #
                #                                                       #
                #                      Frank Neese                      #
                #                                                       #
                #     Directorship, Architecture, Infrastructure        #
                #                    SHARK, DRIVERS                     #
                #        Core code/Algorithms in most modules           #
                #                                                       #
                #        Max Planck Institute fuer Kohlenforschung      #
                #                Kaiser Wilhelm Platz 1                 #
                #                 D-45470 Muelheim/Ruhr                 #
                #                      Germany                          #
                #                                                       #
                #                  All rights reserved                  #
                #                        -***-                          #
                #########################################################


                         Program Version 6.0.0  -   RELEASE  -


 With contributions from (in alphabetic order):
   Daniel Aravena         : Magnetic Suceptibility
   Michael Atanasov       : Ab Initio Ligand Field Theory (pilot matlab implementation)
   Alexander A. Auer      : GIAO ZORA, VPT2 properties, NMR spectrum
   Ute Becker             : All parallelization in ORCA, NUMFREQ, NUMCALC
   Giovanni Bistoni       : ED, misc. LED, open-shell LED, HFLD
   Martin Brehm           : Molecular dynamics
   Dmytro Bykov           : pre 5.0 version of the SCF Hessian
   Marcos Casanova-Páez   : Triplet and SCS-CIS(D). UHF-(DLPNO)-IP/EA/STEOM-CCSD. UHF-CVS-IP/STEOM-CCSD
   Vijay G. Chilkuri      : MRCI spin determinant printing, contributions to CSF-ICE
   Pauline Colinet        : FMM embedding
   Dipayan Datta          : RHF DLPNO-CCSD density
   Achintya Kumar Dutta   : EOM-CC, STEOM-CC
   Nicolas Foglia         : Exact transition moments, OPA infrastructure, MCD improvements
   Dmitry Ganyushin       : Spin-Orbit,Spin-Spin,Magnetic field MRCI
   Miquel Garcia          : C-PCM and meta-GGA Hessian, CCSD/C-PCM, Gaussian charge scheme
   Tiago L. C. Gouveia    : GS-ROHF, GS-ROCIS
   Yang Guo               : DLPNO-NEVPT2, F12-NEVPT2, CIM, IAO-localization
   Andreas Hansen         : Spin unrestricted coupled pair/coupled cluster methods
   Ingolf Harden          : AUTO-CI MPn and infrastructure 
   Benjamin Helmich-Paris : MC-RPA, TRAH-(SCF,CASSCF), AVAS, COSX integrals, SCF dyn. polar.
   Lee Huntington         : MR-EOM, pCC
   Robert Izsak           : Overlap fitted RIJCOSX, COSX-SCS-MP3, EOM
   Riya Kayal             : Wick's Theorem for AUTO-CI, AUTO-CI UHF-CCSDT
   Emily Kempfer          : AUTO-CI, RHF CISDT and CCSDT
   Christian Kollmar      : KDIIS, OOCD, Brueckner-CCSD(T), CCSD density, CASPT2, CASPT2-K, improved NEVPT2
   Axel Koslowski         : Symmetry handling
   Simone Kossmann        : Meta GGA functionals, TD-DFT gradient, OOMP2, (MP2 Hessian; deprecated post 5.0)
   Lucas Lang             : DCDCAS
   Marvin Lechner         : AUTO-CI (C++ implementation), FIC-MRCC
   Spencer Leger          : CASSCF response
   Dagmar Lenk            : GEPOL surface, SMD, ORCA-2-JSON
   Dimitrios Liakos       : Extrapolation schemes; Compound Job, initial MDCI parallelization
   Dimitrios Manganas     : Further ROCIS development; embedding schemes. LFT, Crystal Embedding
   Dimitrios Pantazis     : SARC Basis sets
   Anastasios Papadopoulos: AUTO-CI, single reference methods and gradients
   Taras Petrenko         : pre 6.0 DFT Hessian and TD-DFT gradient, (ASA, deprecated), ECA, 1-Electron XAS/XES, NRVS
   Peter Pinski           : DLPNO-MP2, DLPNO-MP2 Gradient
   Christoph Reimann      : Effective Core Potentials
   Marius Retegan         : Local ZFS, SOC
   Christoph Riplinger    : Optimizer, TS searches, QM/MM, DLPNO-CCSD(T), (RO)-DLPNO pert. Triples
   Michael Roemelt        : Original ROCIS implementation
   Masaaki Saitow         : Open-shell DLPNO-CCSD energy and density
   Barbara Sandhoefer     : DKH picture change effects
   Kantharuban Sivalingam : CASSCF convergence/infrastructure, NEVPT2 and variants, FIC-MRCI
   Bernardo de Souza      : ESD, SOC TD-DFT
   Georgi Stoychev        : AutoAux, RI-MP2 NMR, DLPNO-MP2 response, X2C
   Van Anh Tran           : RI-MP2 g-tensors
   Willem Van den Heuvel  : Paramagnetic NMR
   Zikuan Wang            : NOTCH, Electric field optimization 
   Frank Wennmohs         : Technical directorship and infrastructure
   Hang Xu                : AUTO-CI-Response properties 


 We gratefully acknowledge several colleagues who have allowed us to
 interface, adapt or use parts of their codes:
   Stefan Grimme, W. Hujo, H. Kruse, P. Pracht,  : VdW corrections, initial TS optimization,
                  C. Bannwarth, S. Ehlert,         DFT functionals, gCP, sTDA/sTD-DF
                  L. Wittmann, M. Mueller
   Ed Valeev, F. Pavosevic, A. Kumar             : LibInt (2-el integral package), F12 methods
   Garnet Chan, S. Sharma, J. Yang, R. Olivares  : DMRG
   Ulf Ekstrom                                   : XCFun DFT Library
   Mihaly Kallay                                 : mrcc  (arbitrary order and MRCC methods)
   Frank Weinhold                                : gennbo (NPA and NBO analysis)
   Simon Mueller                                 : openCOSMO-RS
   Christopher J. Cramer and Donald G. Truhlar   : smd solvation model
   Lars Goerigk                                  : TD-DFT with DH, B97 family of functionals
   V. Asgeirsson, H. Jonsson                     : NEB implementation
   FAccTs GmbH                                   : IRC, NEB, NEB-TS, DLPNO-Multilevel, CI-OPT
                                                   MM, QMMM, 2- and 3-layer-ONIOM, Crystal-QMMM,
                                                   LR-CPCM, SF, NACMEs, symmetry and pop. for TD-DFT,
                                                   nearIR, NL-DFT gradient (VV10), updates on ESD,
                                                   ML-optimized integration grids, MBIS, APM,
                                                   GOAT, DOCKER, SOLVATOR, interface openCOSMO-RS
   S Lehtola, MJT Oliveira, MAL Marques          : LibXC Library
   Liviu Ungur et al                             : ANISO software


 Your calculation uses the libint2 library for the computation of 2-el integrals
 For citations please refer to: http://libint.valeyev.net

 Your ORCA version has been built with support for libXC version: 6.2.2
 For citations please refer to: https://libxc.gitlab.io

 This ORCA versions uses:
   CBLAS   interface :  Fast vector & matrix operations
   LAPACKE interface :  Fast linear algebra routines
   SCALAPACK package :  Parallel linear algebra routines
   Shared memory     :  Shared parallel matrices
   BLAS/LAPACK       :  OpenBLAS 0.3.27  USE64BITINT DYNAMIC_ARCH NO_AFFINITY SkylakeX SINGLE_THREADED
        Core in use  :  SkylakeX
   Copyright (c) 2011-2014, The OpenBLAS Project


Your calculation utilizes the geometrical counterpoise correction gCP
Please cite in your paper:
H.Kruse, S. Grimme J.Chem.Phys., 136, (2012), 154101 
   

Your calculation utilizes the atom-pairwise dispersion correction
based on EEQ partial charges (D4)


================================================================================

----- Orbital basis set information -----
Your calculation utilizes the basis: def2-mTZVPP
   Stefan Grimme, Andreas Hansen, Sebastian Ehlert, and Jan-Michael Mewes 
   J. Chem. Phys. 154, 064103 (2021). DOI: 10.1063/5.0040021

----- AuxJ basis set information -----
Your calculation utilizes the auxiliary basis: def2/J
   F. Weigend, Phys. Chem. Chem. Phys. 8, 1057 (2006).

================================================================================
                                        WARNINGS
                       Please study these warnings very carefully!
================================================================================

Using LibXC functional ID 497 : Re-regularized SCAN exchange by Furness et al
[ 1]  J. W. Furness, A. D. Kaplan, J. Ning, J. P. Perdew, and J. Sun.,  J. Phys. Chem. Lett. 11, 8208-8215 (2020)
[ 2]  J. W. Furness, A. D. Kaplan, J. Ning, J. P. Perdew, and J. Sun.,  J. Phys. Chem. Lett. 11, 9248-9248 (2020)
Using LibXC functional ID 498 : Re-regularized SCAN correlation by Furness et al
[ 1]  J. W. Furness, A. D. Kaplan, J. Ning, J. P. Perdew, and J. Sun.,  J. Phys. Chem. Lett. 11, 8208-8215 (2020)
[ 2]  J. W. Furness, A. D. Kaplan, J. Ning, J. P. Perdew, and J. Sun.,  J. Phys. Chem. Lett. 11, 9248-9248 (2020)
Using LibXC functional ID 497 : Re-regularized SCAN exchange by Furness et al
[ 1]  J. W. Furness, A. D. Kaplan, J. Ning, J. P. Perdew, and J. Sun.,  J. Phys. Chem. Lett. 11, 8208-8215 (2020)
[ 2]  J. W. Furness, A. D. Kaplan, J. Ning, J. P. Perdew, and J. Sun.,  J. Phys. Chem. Lett. 11, 9248-9248 (2020)
Using LibXC functional ID 498 : Re-regularized SCAN correlation by Furness et al
[ 1]  J. W. Furness, A. D. Kaplan, J. Ning, J. P. Perdew, and J. Sun.,  J. Phys. Chem. Lett. 11, 8208-8215 (2020)
[ 2]  J. W. Furness, A. D. Kaplan, J. Ning, J. P. Perdew, and J. Sun.,  J. Phys. Chem. Lett. 11, 9248-9248 (2020)

================================================================================
                                       INPUT FILE
================================================================================
NAME = sp_gas.inp
|  1> ! r2scan-3c def2/J RI DEFGRID2 scfconv6 printgap
|  2> %output
|  3>     printlevel normal
|  4> end
|  5> * xyz 0 1
|  6> C -3.2863395526 0.7455025796 0.4349247698
|  7> C -2.2568754752 1.5195805772 -0.0751682649
|  8> C -1.0901922647 0.9198107066 -0.5133473332
|  9> C -0.9390916631 -0.4597796793 -0.4413964999
| 10> C -1.9719360697 -1.2291136092 0.0749248236
| 11> C -3.142536168 -0.6292781492 0.507586611
| 12> C 0.3444910202 -1.1021107453 -0.913555971
| 13> N 1.4925460429 -0.4821215501 -0.2998309931
| 14> C 1.8322024835 -0.5540753615 1.0201868352
| 15> C 2.9408038588 0.2276927568 1.1684419967
| 16> N 3.2841491036 0.780682446 -0.0271941559
| 17> C 2.3935310242 0.3384201891 -0.8780837154
| 18> H -4.1968993176 1.2138759056 0.7759686603
| 19> H -2.3628997743 2.5922599903 -0.1329406927
| 20> H -0.2865557768 1.5256182466 -0.907591175
| 21> H -1.8630676996 -2.3019112799 0.1369099933
| 22> H -3.9409661506 -1.236548096 0.9060478888
| 23> H 0.340017613 -2.1681507026 -0.6700679074
| 24> H 0.4432885416 -0.9889569887 -1.9968724089
| 25> H 1.2724950172 -1.1366601419 1.7214190262
| 26> H 3.5145846437 0.4286172949 2.0507677479
| 27> H 2.3796488421 0.5844193004 -1.9211900116
| 28> *
| 29> 
| 30>                          ****END OF INPUT****
================================================================================

                       ****************************
                       * Single Point Calculation *
                       ****************************

---------------------------------
CARTESIAN COORDINATES (ANGSTROEM)
---------------------------------
  C     -3.286340    0.745503    0.434925
  C     -2.256875    1.519581   -0.075168
  C     -1.090192    0.919811   -0.513347
  C     -0.939092   -0.459780   -0.441396
  C     -1.971936   -1.229114    0.074925
  C     -3.142536   -0.629278    0.507587
  C      0.344491   -1.102111   -0.913556
  N      1.492546   -0.482122   -0.299831
  C      1.832202   -0.554075    1.020187
  C      2.940804    0.227693    1.168442
  N      3.284149    0.780682   -0.027194
  C      2.393531    0.338420   -0.878084
  H     -4.196899    1.213876    0.775969
  H     -2.362900    2.592260   -0.132941
  H     -0.286556    1.525618   -0.907591
  H     -1.863068   -2.301911    0.136910
  H     -3.940966   -1.236548    0.906048
  H      0.340018   -2.168151   -0.670068
  H      0.443289   -0.988957   -1.996872
  H      1.272495   -1.136660    1.721419
  H      3.514585    0.428617    2.050768
  H      2.379649    0.584419   -1.921190

----------------------------
CARTESIAN COORDINATES (A.U.)
----------------------------
  NO LB      ZA    FRAG     MASS         X           Y           Z
   0 C     6.0000    0    12.011   -6.210282    1.408796    0.821889
   1 C     6.0000    0    12.011   -4.264877    2.871591   -0.142047
   2 C     6.0000    0    12.011   -2.060165    1.738190   -0.970086
   3 C     6.0000    0    12.011   -1.774626   -0.868858   -0.834119
   4 C     6.0000    0    12.011   -3.726419   -2.322688    0.141587
   5 C     6.0000    0    12.011   -5.938533   -1.189163    0.959200
   6 C     6.0000    0    12.011    0.650994   -2.082687   -1.726371
   7 N     7.0000    0    14.007    2.820503   -0.911078   -0.566598
   8 C     6.0000    0    12.011    3.462361   -1.047051    1.927874
   9 C     6.0000    0    12.011    5.557314    0.430277    2.208035
  10 N     7.0000    0    14.007    6.206142    1.475276   -0.051390
  11 C     6.0000    0    12.011    4.523118    0.639521   -1.659338
  12 H     1.0000    0     1.008   -7.930990    2.293893    1.466368
  13 H     1.0000    0     1.008   -4.465233    4.898661   -0.251222
  14 H     1.0000    0     1.008   -0.541512    2.883001   -1.715099
  15 H     1.0000    0     1.008   -3.520688   -4.349982    0.258722
  16 H     1.0000    0     1.008   -7.447347   -2.336737    1.712182
  17 H     1.0000    0     1.008    0.642540   -4.097211   -1.266245
  18 H     1.0000    0     1.008    0.837694   -1.868858   -3.773542
  19 H     1.0000    0     1.008    2.404667   -2.147976    3.253011
  20 H     1.0000    0     1.008    6.641602    0.809969    3.875389
  21 H     1.0000    0     1.008    4.496885    1.104392   -3.630523

--------------------------------
INTERNAL COORDINATES (ANGSTROEM)
--------------------------------
 C      0   0   0     0.000000000000     0.00000000     0.00000000
 C      1   0   0     1.385347587097     0.00000000     0.00000000
 C      2   1   0     1.383067065344   120.07902023     0.00000000
 C      3   2   1     1.389704266052   120.38519541   359.76408176
 C      4   3   2     1.387526566607   119.25910519     0.00000000
 C      1   2   3     1.384189730084   119.80764861     0.15106734
 C      4   3   2     1.510995787342   119.88075366   180.46704998
 N      7   4   3     1.441899887582   111.13615391    52.00179114
 C      8   7   4     1.364914252122   125.95176790    68.22473005
 C      9   8   7     1.364601770854   106.08320609   182.99112348
 N     10   9   8     1.361333670667   110.01050595     0.26412990
 C     11  10   9     1.308743485064   105.19575242     0.09150956
 H      1   2   3     1.079260669807   120.05398176   180.05149240
 H      2   1   3     1.079453532442   120.13057459   179.93525609
 H      3   2   1     1.080861964824   119.97969687   180.23001701
 H      5   4   3     1.080087647152   119.80483092   180.13193582
 H      6   1   2     1.079369545294   120.08740212   179.87766564
 H      7   4   3     1.093502464125   109.96056268   172.94283229
 H      7   4   3     1.093681501851   110.01571781   292.72263352
 H      9   8   7     1.069768227178   122.17102036     2.90298584
 H     10   9   8     1.071491386042   129.19254455   180.37222326
 H     12  11  10     1.071811094789   124.33280475   180.28780001

---------------------------
INTERNAL COORDINATES (A.U.)
---------------------------
 C      0   0   0     0.000000000000     0.00000000     0.00000000
 C      1   0   0     2.617927539902     0.00000000     0.00000000
 C      2   1   0     2.613617978346   120.07902023     0.00000000
 C      3   2   1     2.626160469981   120.38519541   359.76408176
 C      4   3   2     2.622045214428   119.25910519     0.00000000
 C      1   2   3     2.615739507244   119.80764861     0.15106734
 C      4   3   2     2.855368227585   119.88075366   180.46704998
 N      7   4   3     2.724795900062   111.13615391    52.00179114
 C      8   7   4     2.579314132797   125.95176790    68.22473005
 C      9   8   7     2.578723628779   106.08320609   182.99112348
 N     10   9   8     2.572547814447   110.01050595     0.26412990
 C     11  10   9     2.473166766325   105.19575242     0.09150956
 H      1   2   3     2.039507093048   120.05398176   180.05149240
 H      2   1   3     2.039871550610   120.13057459   179.93525609
 H      3   2   1     2.042533102089   119.97969687   180.23001701
 H      5   4   3     2.041069853749   119.80483092   180.13193582
 H      6   1   2     2.039712837900   120.08740212   179.87766564
 H      7   4   3     2.066420183965   109.96056268   172.94283229
 H      7   4   3     2.066758516235   110.01571781   292.72263352
 H      9   8   7     2.021568976138   122.17102036     2.90298584
 H     10   9   8     2.024825274475   129.19254455   180.37222326
 H     12  11  10     2.025429436449   124.33280475   180.28780001

---------------------
BASIS SET INFORMATION
---------------------
There are 3 groups of distinct atoms

 Group   1 Type C   : 11s6p1d contracted to 5s3p1d pattern {62111/411/1}
 Group   2 Type N   : 11s6p2d contracted to 5s3p2d pattern {62111/411/11}
 Group   3 Type H   : 4s1p contracted to 2s1p pattern {31/1}

Atom   0C    basis set group =>   1
Atom   1C    basis set group =>   1
Atom   2C    basis set group =>   1
Atom   3C    basis set group =>   1
Atom   4C    basis set group =>   1
Atom   5C    basis set group =>   1
Atom   6C    basis set group =>   1
Atom   7N    basis set group =>   2
Atom   8C    basis set group =>   1
Atom   9C    basis set group =>   1
Atom  10N    basis set group =>   2
Atom  11C    basis set group =>   1
Atom  12H    basis set group =>   3
Atom  13H    basis set group =>   3
Atom  14H    basis set group =>   3
Atom  15H    basis set group =>   3
Atom  16H    basis set group =>   3
Atom  17H    basis set group =>   3
Atom  18H    basis set group =>   3
Atom  19H    basis set group =>   3
Atom  20H    basis set group =>   3
Atom  21H    basis set group =>   3
---------------------------------
AUXILIARY/J BASIS SET INFORMATION
---------------------------------
There are 3 groups of distinct atoms

 Group   1 Type C   : 12s5p4d2f1g contracted to 6s4p3d1f1g pattern {711111/2111/211/2/1}
 Group   2 Type N   : 12s5p4d2f1g contracted to 6s4p3d1f1g pattern {711111/2111/211/2/1}
 Group   3 Type H   : 5s2p1d contracted to 3s1p1d pattern {311/2/1}

Atom   0C    basis set group =>   1
Atom   1C    basis set group =>   1
Atom   2C    basis set group =>   1
Atom   3C    basis set group =>   1
Atom   4C    basis set group =>   1
Atom   5C    basis set group =>   1
Atom   6C    basis set group =>   1
Atom   7N    basis set group =>   2
Atom   8C    basis set group =>   1
Atom   9C    basis set group =>   1
Atom  10N    basis set group =>   2
Atom  11C    basis set group =>   1
Atom  12H    basis set group =>   3
Atom  13H    basis set group =>   3
Atom  14H    basis set group =>   3
Atom  15H    basis set group =>   3
Atom  16H    basis set group =>   3
Atom  17H    basis set group =>   3
Atom  18H    basis set group =>   3
Atom  19H    basis set group =>   3
Atom  20H    basis set group =>   3
Atom  21H    basis set group =>   3

Checking for AutoStart:
The File: sp_gas.gbw exists
Trying to determine its content:
     ... Fine, the file contains calculation information
     ... Fine, the calculation information was read
     ... Fine, the file contains a basis set
     ... Fine, the basis set was read
     ... Fine, the file contains a geometry
     ... Fine, the geometry was read
     ... Fine, the file contains a set of orbitals
     ... Fine, the orbitals can be read
     => possible old guess file was deleted
     => GBW file was renamed to GES file
     => GES file is set as startup file
     => Guess is set to MORead
     ... now leaving AutoStart

------------------------------------------------------------------------------
                             ORCA STARTUP CALCULATIONS
                           -- RI-GTO INTEGRALS CHOSEN --
------------------------------------------------------------------------------
------------------------------------------------------------------------------
                   ___                                                        
                  /   \      - P O W E R E D   B Y -                         
                 /     \                                                     
                 |  |  |   _    _      __       _____    __    __             
                 |  |  |  | |  | |    /  \     |  _  \  |  |  /  |          
                  \  \/   | |  | |   /    \    | | | |  |  | /  /          
                 / \  \   | |__| |  /  /\  \   | |_| |  |  |/  /          
                |  |  |   |  __  | /  /__\  \  |    /   |      \           
                |  |  |   | |  | | |   __   |  |    \   |  |\   \          
                \     /   | |  | | |  |  |  |  | |\  \  |  | \   \       
                 \___/    |_|  |_| |__|  |__|  |_| \__\ |__|  \__/        
                                                                              
                      - O R C A' S   B I G   F R I E N D -                    
                                      &                                       
                       - I N T E G R A L  F E E D E R -                       
                                                                              
 v1 FN, 2020, v2 2021, v3 2022-2024                                           
------------------------------------------------------------------------------


----------------------
SHARK INTEGRAL PACKAGE
----------------------

Number of atoms                             ...     22
Number of basis functions                   ...    288
Number of shells                            ...    140
Maximum angular momentum                    ...      2
Integral batch strategy                     ... SHARK/LIBINT Hybrid
RI-J (if used) integral strategy            ... SPLIT-RIJ (Revised 2003 algorithm where possible)
Printlevel                                  ...      1
Contraction scheme used                     ... SEGMENTED contraction
Prescreening option                         ... SCHWARTZ
   Thresh                                   ... 1.000e-10
   Tcut                                     ... 1.000e-11
   Tpresel                                  ... 1.000e-11 
Coulomb Range Separation                    ... NOT USED
Exchange Range Separation                   ... NOT USED
Multipole approximations                    ... NOT USED
Finite Nucleus Model                        ... NOT USED
CABS basis                                  ... NOT available
Auxiliary Coulomb fitting basis             ... AVAILABLE
   # of basis functions in Aux-J            ...    698
   # of shells in Aux-J                     ...    230
   Maximum angular momentum in Aux-J        ...      4
Auxiliary J/K fitting basis                 ... NOT available
Auxiliary Correlation fitting basis         ... NOT available
Auxiliary 'external' fitting basis          ... NOT available

Checking pre-screening integrals            ... done (  0.0 sec) Dimension = 140
Check shell pair data                       ... done (  0.0 sec)
Shell pair information
Shell pair cut-off parameter TPreSel        ...   1.0e-11
Total number of shell pairs                 ...      9870
Shell pairs after pre-screening             ...      8286
Total number of primitive shell pairs       ...     36340
Primitive shell pairs kept                  ...     20658
          la=0 lb=0:   2625 shell pairs
          la=1 lb=0:   3134 shell pairs
          la=1 lb=1:    964 shell pairs
          la=2 lb=0:    919 shell pairs
          la=2 lb=1:    557 shell pairs
          la=2 lb=2:     87 shell pairs

Calculating one electron integrals          ... done (  0.0 sec)
Calculating RI/J V-Matrix + Cholesky decomp.... done (  0.1 sec)
Calculating Nuclear repulsion               ... done (  0.0 sec) ENN=    640.303932475273 Eh

Diagonalization of the overlap matrix:
Smallest eigenvalue                        ... 3.026e-05
Time for diagonalization                   ...    0.009 sec
Threshold for overlap eigenvalues          ... 1.000e-07
Number of eigenvalues below threshold      ... 0
Time for construction of square roots      ...    0.019 sec
Total time needed                          ...    0.038 sec

-------------------
DFT GRID GENERATION
-------------------

General Integration Accuracy     IntAcc      ... 4.388
Radial Grid Type                 RadialGrid  ... OptM3 with GC (2021)
Angular Grid (max. ang.)         AngularGrid ... 4 (Lebedev-302)
Angular grid pruning method      GridPruning ... 4 (adaptive)
Weight generation scheme         WeightScheme... mBecke (2022)
Basis function cutoff            BFCut       ... 1.0000e-10
Integration weight cutoff        WCut        ... 1.0000e-14
Partially contracted basis set               ... off
Rotationally invariant grid construction     ... off
Angular grids for H and He will be reduced by one unit

Total number of grid points                  ...   104027
Total number of batches                      ...     1636
Average number of points per batch           ...       63
Average number of grid points per atom       ...     4728
Initializing property integral containers    ... done (  0.0 sec)

SHARK setup successfully completed in   1.8 seconds

Maximum memory used throughout the entire STARTUP-calculation: 49.0 MB
-------------------------------------------------------------------------------
                                 ORCA GUESS
                   Start orbitals & Density for SCF / CASSCF
-------------------------------------------------------------------------------

------------
SCF SETTINGS
------------
Hamiltonian:
 Density Functional     Method          .... DFT(GTOs)
  Functional kind                       .... Exchange
  Functional name                       .... Re-regularized SCAN exchange by Furness et al
  Functional family                     .... MGGA
  Functional refs                              
    [ 0] J. W. Furness, A. D. Kaplan, J. Ning, J. P. Perdew, and J. Sun.,  J. Phys. Chem. Lett. 11, 8208-8215 (2020), doi: 10.1021/acs.jpclett.0c02405
    [ 1] J. W. Furness, A. D. Kaplan, J. Ning, J. P. Perdew, and J. Sun.,  J. Phys. Chem. Lett. 11, 9248-9248 (2020), doi: 10.1021/acs.jpclett.0c03077
  Functional external parameters        .... 6
    Parameter  0 _c1        =  6.670000e-01 : c1 parameter        
    Parameter  1 _c2        =  8.000000e-01 : c2 parameter        
    Parameter  2 _d         =  1.240000e+00 : d parameter         
    Parameter  3 _k1        =  6.500000e-02 : k1 parameter        
    Parameter  4 _eta       =  1.000000e-03 : eta parameter       
    Parameter  5 _dp2       =  3.610000e-01 : dp2 parameter       
  Functional kind                       .... Correlation
  Functional name                       .... Re-regularized SCAN correlation by Furness et al
  Functional family                     .... MGGA
  Functional refs                              
    [ 0] J. W. Furness, A. D. Kaplan, J. Ning, J. P. Perdew, and J. Sun.,  J. Phys. Chem. Lett. 11, 8208-8215 (2020), doi: 10.1021/acs.jpclett.0c02405
    [ 1] J. W. Furness, A. D. Kaplan, J. Ning, J. P. Perdew, and J. Sun.,  J. Phys. Chem. Lett. 11, 9248-9248 (2020), doi: 10.1021/acs.jpclett.0c03077
  Functional external parameters        .... 1
    Parameter  0 _eta       =  1.000000e-03 : Regularization parameter
 Gradients option       PostSCFGGA      .... off
 RI-approximation to the Coulomb term is turned on
   Number of AuxJ basis functions       .... 698


General Settings:
 Integral files         IntName         .... sp_gas
 Hartree-Fock type      HFTyp           .... RHF
 Total Charge           Charge          ....    0
 Multiplicity           Mult            ....    1
 Number of Electrons    NEL             ....   84
 Basis Dimension        Dim             ....  288
 Nuclear Repulsion      ENuc            ....    640.3039324753 Eh

Convergence Acceleration:
 AO-DIIS                CNVDIIS         .... on
   Start iteration      DIISMaxIt       ....    12
   Startup error        DIISStart       ....  0.200000
   # of expansion vecs  DIISMaxEq       ....     5
   Bias factor          DIISBfac        ....   1.050
   Max. coefficient     DIISMaxC        ....  10.000
 MO-DIIS                CNVKDIIS        .... off
 Trust-Rad. Augm. Hess. CNVTRAH         .... auto
   Auto Start mean grad. ratio tolernc. ....  1.125000
   Auto Start start iteration           ....     1
   Auto Start num. interpolation iter.  ....    10
   Max. Number of Micro iterations      ....    24
   Max. Number of Macro iterations      .... Maxiter - #DIIS iter
   Number of Davidson start vectors     ....     2
   Converg. threshold    (grad. norm)   ....   3.330e-04
   Grad. Scal. Fac. for Micro threshold ....   0.100
   Minimum threshold for Micro iter.    ....   1.000e-02
   NR start threshold (gradient norm)   ....   1.000e-04
   Initial trust radius                 ....   0.400
   Minimum AH scaling param. (alpha)    ....   1.000
   Maximum AH scaling param. (alpha)    .... 1000.000
   Quad. conv. algorithm                .... NR
   White noise on init. David. guess    .... on
   Maximum white noise                  ....   0.010
   Pseudo random numbers                .... off
   Inactive MOs                         .... canonical
   Orbital update algorithm             .... Taylor
   Preconditioner                       .... Diag
   Full preconditioner red. dimension   ....   250
   COSX micro iterations for RIJONX calc.... off
 SOSCF                  CNVSOSCF        .... on
   Start iteration      SOSCFMaxIt      ....   150
   Startup grad/error   SOSCFStart      ....  0.003300
   Hessian update       SOSCFHessUp     .... L-BFGS
 Level Shifting         CNVShift        .... on
   Level shift para.    LevelShift      ....    0.2500
   Turn off err/grad.   ShiftErr        ....    0.0010
 Zerner damping         CNVZerner       .... off
 Static damping         CNVDamp         .... on
   Fraction old density DampFac         ....    0.7000
   Max. Damping (<1)    DampMax         ....    0.9800
   Min. Damping (>=0)   DampMin         ....    0.0000
   Turn off err/grad.   DampErr         ....    0.1000

SCF Procedure:
 Maximum # iterations   MaxIter         ....   125
 SCF integral mode      SCFMode         .... Direct
   Integral package                     .... SHARK and LIBINT hybrid scheme
 Reset frequency        DirectResetFreq ....    20
 Integral Threshold     Thresh          ....  1.000e-10 Eh
 Primitive CutOff       TCut            ....  1.000e-11 Eh

Convergence Tolerance:
 Convergence Check Mode ConvCheckMode   .... Total+1el-Energy
 Convergence forced     ConvForced      .... 0
 Energy Change          TolE            ....  1.000e-06 Eh
 1-El. energy change                    ....  1.000e-03 Eh
 Orbital Gradient       TolG            ....  3.330e-04
 Orbital Rotation angle TolX            ....  3.330e-04
 DIIS Error             TolErr          ....  1.000e-06

---------------------
INITIAL GUESS: MOREAD
---------------------
Guess MOs are being read from file: sp_gas.ges
Input Geometry matches current geometry (good)
Atom 0: N(Shells)= 9 and 6 - projection required
Input basis set needs projection
NBasis(read)= 188
NBasis(calc)= 288
Basis set overlap was calculated
Using GuessMode=FMatrix for the initial guess
C*T matrix was formed
Effective Fockian was calculated
Effective Fockian was diagonalized
Initial density was built
                      ------------------
                      INITIAL GUESS DONE (   0.1 sec)
                      ------------------
             **** ENERGY FILE WAS UPDATED (sp_gas.en.tmp) ****
Finished Guess after   0.3 sec
Maximum memory used throughout the entire GUESS-calculation: 22.6 MB

-------------------------------------------------------------------------------------------
                                      ORCA LEAN-SCF
                              memory conserving SCF solver
-------------------------------------------------------------------------------------------

----------------------------------------D-I-I-S--------------------------------------------
Iteration    Energy (Eh)           Delta-E    RMSDP     MaxDP     DIISErr   Damp  Time(sec)
-------------------------------------------------------------------------------------------
               ***  Starting incremental Fock matrix formation  ***
    1    -496.2187487101540455     0.00e+00  8.33e-03  3.38e-01  4.39e-01  0.700   5.0
    2    -496.2864079509248540    -6.77e-02  6.24e-03  2.45e-01  3.08e-01  0.700   4.4
    3    -496.3341583691354799    -4.78e-02  4.45e-03  1.72e-01  2.16e-01  0.700   4.3
                               ***Turning on AO-DIIS***
    4    -496.3676633625517525    -3.35e-02  3.15e-03  1.20e-01  1.51e-01  0.700   4.2
    5    -496.3911536279148322    -2.35e-02  2.22e-03  8.43e-02  1.06e-01  0.700   4.2
    6    -496.4076198539438565    -1.65e-02  1.56e-03  5.90e-02  7.40e-02  0.700   4.1
    7    -496.4191578730975607    -1.15e-02  3.64e-03  1.38e-01  5.18e-02  0.000   4.0
                              *** Initializing SOSCF ***
---------------------------------------S-O-S-C-F--------------------------------------
Iteration    Energy (Eh)           Delta-E    RMSDP     MaxDP     MaxGrad    Time(sec)
--------------------------------------------------------------------------------------
    8    -496.4461170821954283    -2.70e-02  1.77e-05  7.68e-04  2.10e-04     4.2
               *** Restarting incremental Fock matrix formation ***
    9    -496.4461172990589830    -2.17e-07  1.24e-05  3.35e-04  7.12e-05     4.9
                  *** Gradient check signals convergence ***

               *****************************************************
               *                     SUCCESS                       *
               *           SCF CONVERGED AFTER   9 CYCLES          *
               *****************************************************

             **** ENERGY FILE WAS UPDATED (sp_gas.en.tmp) ****

----------------
TOTAL SCF ENERGY
----------------

Total Energy       :       -496.44611729905898 Eh          -13508.98564 eV

Components:
Nuclear Repulsion  :        640.30393247527252 Eh           17423.55580 eV
Electronic Energy  :      -1136.75004977433127 Eh          -30932.54143 eV
One Electron Energy:      -1939.44442365579675 Eh          -52774.96580 eV
Two Electron Energy:        802.69437388146537 Eh           21842.42436 eV

Virial components:
Potential Energy   :       -991.03646348514621 Eh          -26967.47317 eV
Kinetic Energy     :        494.59034618608717 Eh           13458.48754 eV
Virial Ratio       :          2.00375213775862

DFT components:
N(Alpha)           :       41.999979866625 electrons
N(Beta)            :       41.999979866625 electrons
N(Total)           :       83.999959733249 electrons
E(X)               :      -68.993161964938 Eh       
E(C)               :       -2.730892318310 Eh       
E(XC)              :      -71.724054283248 Eh       

---------------
SCF CONVERGENCE
---------------

  Last Energy change         ...    2.1686e-07  Tolerance :   1.0000e-06
  Last MAX-Density change    ...    3.3521e-04  Tolerance :   1.0000e-05
  Last RMS-Density change    ...    1.2369e-05  Tolerance :   1.0000e-06
  Last DIIS Error            ...    2.0953e-04  Tolerance :   1.0000e-06
  Last Orbital Gradient      ...    7.1192e-05  Tolerance :   3.3300e-04
  Last Orbital Rotation      ...    2.8326e-04  Tolerance :   3.3300e-04


----------------
ORBITAL ENERGIES
----------------

  NO   OCC          E(Eh)            E(eV) 
   0   2.0000     -14.222978      -387.0269 
   1   2.0000     -14.131902      -384.5486 
   2   2.0000     -10.096914      -274.7510 
   3   2.0000     -10.074834      -274.1502 
   4   2.0000     -10.058229      -273.6983 
   5   2.0000     -10.051347      -273.5111 
   6   2.0000     -10.047929      -273.4181 
   7   2.0000     -10.046430      -273.3773 
   8   2.0000     -10.045842      -273.3613 
   9   2.0000     -10.045097      -273.3410 
  10   2.0000     -10.044625      -273.3281 
  11   2.0000     -10.037127      -273.1241 
  12   2.0000      -0.993479       -27.0339 
  13   2.0000      -0.865625       -23.5549 
  14   2.0000      -0.836032       -22.7496 
  15   2.0000      -0.752884       -20.4870 
  16   2.0000      -0.728936       -19.8354 
  17   2.0000      -0.713141       -19.4056 
  18   2.0000      -0.676402       -18.4058 
  19   2.0000      -0.591060       -16.0836 
  20   2.0000      -0.578514       -15.7422 
  21   2.0000      -0.566604       -15.4181 
  22   2.0000      -0.544296       -14.8110 
  23   2.0000      -0.513191       -13.9646 
  24   2.0000      -0.494954       -13.4684 
  25   2.0000      -0.454966       -12.3803 
  26   2.0000      -0.440350       -11.9825 
  27   2.0000      -0.419863       -11.4251 
  28   2.0000      -0.413163       -11.2427 
  29   2.0000      -0.401776       -10.9329 
  30   2.0000      -0.401085       -10.9141 
  31   2.0000      -0.385538       -10.4910 
  32   2.0000      -0.376226       -10.2376 
  33   2.0000      -0.371326       -10.1043 
  34   2.0000      -0.350759        -9.5446 
  35   2.0000      -0.328482        -8.9384 
  36   2.0000      -0.322382        -8.7725 
  37   2.0000      -0.256073        -6.9681 
  38   2.0000      -0.249926        -6.8008 
  39   2.0000      -0.239245        -6.5102 
  40   2.0000      -0.233085        -6.3426 
  41   2.0000      -0.208238        -5.6665 
  42   0.0000      -0.048050        -1.3075 
  43   0.0000      -0.043360        -1.1799 
  44   0.0000      -0.002036        -0.0554 
  45   0.0000       0.034480         0.9383 
  46   0.0000       0.067289         1.8310 
  47   0.0000       0.084110         2.2887 
  48   0.0000       0.088040         2.3957 
  49   0.0000       0.103049         2.8041 
  50   0.0000       0.105373         2.8674 
  51   0.0000       0.115429         3.1410 
  52   0.0000       0.120233         3.2717 
*Only the first 10 virtual orbitals were printed.

                    ********************************
                    * MULLIKEN POPULATION ANALYSIS *
                    ********************************

-----------------------
MULLIKEN ATOMIC CHARGES
-----------------------
   0 C :   -0.135227
   1 C :   -0.177740
   2 C :   -0.159632
   3 C :    0.208487
   4 C :   -0.222608
   5 C :   -0.153895
   6 C :   -0.383340
   7 N :    0.214366
   8 C :   -0.186224
   9 C :   -0.125010
  10 N :   -0.185460
  11 C :   -0.176289
  12 H :    0.148180
  13 H :    0.147810
  14 H :    0.154618
  15 H :    0.145073
  16 H :    0.147200
  17 H :    0.165010
  18 H :    0.172075
  19 H :    0.137210
  20 H :    0.133130
  21 H :    0.132265
Sum of atomic charges:   -0.0000000

--------------------------------
MULLIKEN REDUCED ORBITAL CHARGES
--------------------------------
  0 C s       :     3.181550  s :     3.181550
      pz      :     0.984047  p :     2.916158
      px      :     1.004039
      py      :     0.928072
      dz2     :     0.003758  d :     0.037518
      dxz     :     0.004048
      dyz     :     0.006927
      dx2y2   :     0.011114
      dxy     :     0.011671

  1 C s       :     3.215385  s :     3.215385
      pz      :     0.970412  p :     2.924623
      px      :     0.927068
      py      :     1.027142
      dz2     :     0.004642  d :     0.037732
      dxz     :     0.006776
      dyz     :     0.003836
      dx2y2   :     0.012148
      dxy     :     0.010331

  2 C s       :     3.186064  s :     3.186064
      pz      :     0.995034  p :     2.936389
      px      :     0.995776
      py      :     0.945579
      dz2     :     0.003475  d :     0.037179
      dxz     :     0.004678
      dyz     :     0.006344
      dx2y2   :     0.010961
      dxy     :     0.011722

  3 C s       :     3.113579  s :     3.113579
      pz      :     0.963343  p :     2.631443
      px      :     0.802864
      py      :     0.865237
      dz2     :     0.005089  d :     0.046490
      dxz     :     0.006133
      dyz     :     0.007615
      dx2y2   :     0.013559
      dxy     :     0.014094

  4 C s       :     3.194767  s :     3.194767
      pz      :     0.997230  p :     2.990365
      px      :     0.946920
      py      :     1.046215
      dz2     :     0.004658  d :     0.037476
      dxz     :     0.006864
      dyz     :     0.003644
      dx2y2   :     0.012087
      dxy     :     0.010224

  5 C s       :     3.192074  s :     3.192074
      pz      :     0.986595  p :     2.924172
      px      :     0.987641
      py      :     0.949936
      dz2     :     0.003482  d :     0.037649
      dxz     :     0.004657
      dyz     :     0.006613
      dx2y2   :     0.010786
      dxy     :     0.012111

  6 C s       :     3.364206  s :     3.364206
      pz      :     1.051766  p :     2.970742
      px      :     0.873501
      py      :     1.045475
      dz2     :     0.010178  d :     0.048392
      dxz     :     0.009278
      dyz     :     0.004050
      dx2y2   :     0.014225
      dxy     :     0.010662

  7 N s       :     3.186976  s :     3.186976
      pz      :     0.996057  p :     3.406344
      px      :     1.119543
      py      :     1.290744
      dz2     :     0.051525  d :     0.192313
      dxz     :     0.050394
      dyz     :     0.038358
      dx2y2   :     0.031778
      dxy     :     0.020258

  8 C s       :     3.259400  s :     3.259400
      pz      :     0.852528  p :     2.878554
      px      :     0.979562
      py      :     1.046464
      dz2     :     0.014754  d :     0.048270
      dxz     :     0.010971
      dyz     :     0.009714
      dx2y2   :     0.005683
      dxy     :     0.007148

  9 C s       :     3.229377  s :     3.229377
      pz      :     0.922085  p :     2.843211
      px      :     0.951074
      py      :     0.970052
      dz2     :     0.014865  d :     0.052422
      dxz     :     0.013048
      dyz     :     0.009477
      dx2y2   :     0.008046
      dxy     :     0.006987

 10 N s       :     3.501418  s :     3.501418
      pz      :     0.968623  p :     3.639792
      px      :     1.358425
      py      :     1.312745
      dz2     :    -0.000081  d :     0.044250
      dxz     :     0.011473
      dyz     :     0.008101
      dx2y2   :     0.018123
      dxy     :     0.006635

 11 C s       :     3.295716  s :     3.295716
      pz      :     0.970980  p :     2.811409
      px      :     0.894849
      py      :     0.945581
      dz2     :     0.018302  d :     0.069163
      dxz     :     0.014983
      dyz     :     0.009692
      dx2y2   :     0.013896
      dxy     :     0.012291

 12 H s       :     0.832296  s :     0.832296
      pz      :     0.004895  p :     0.019524
      px      :     0.009775
      py      :     0.004854

 13 H s       :     0.832693  s :     0.832693
      pz      :     0.003952  p :     0.019497
      px      :     0.003358
      py      :     0.012187

 14 H s       :     0.825598  s :     0.825598
      pz      :     0.005085  p :     0.019784
      px      :     0.008633
      py      :     0.006067

 15 H s       :     0.835262  s :     0.835262
      pz      :     0.004141  p :     0.019664
      px      :     0.003381
      py      :     0.012142

 16 H s       :     0.833274  s :     0.833274
      pz      :     0.005225  p :     0.019527
      px      :     0.008295
      py      :     0.006007

 17 H s       :     0.817377  s :     0.817377
      pz      :     0.003554  p :     0.017613
      px      :     0.002799
      py      :     0.011261

 18 H s       :     0.810125  s :     0.810125
      pz      :     0.011467  p :     0.017800
      px      :     0.002994
      py      :     0.003339

 19 H s       :     0.841346  s :     0.841346
      pz      :     0.007719  p :     0.021444
      px      :     0.006373
      py      :     0.007353

 20 H s       :     0.846485  s :     0.846485
      pz      :     0.009771  p :     0.020385
      px      :     0.006361
      py      :     0.004253

 21 H s       :     0.846949  s :     0.846949
      pz      :     0.012926  p :     0.020787
      px      :     0.003238
      py      :     0.004622


------------------------
MULLIKEN OVERLAP CHARGES
------------------------
B(  0-C ,  1-C ) :   0.9662 B(  0-C ,  2-C ) :  -0.1514 B(  0-C ,  3-C ) :  -0.0937 
B(  0-C ,  4-C ) :  -0.1336 B(  0-C ,  5-C ) :   1.0101 B(  0-C , 12-H ) :   0.8031 
B(  0-C , 13-H ) :  -0.0723 B(  0-C , 16-H ) :  -0.0592 B(  1-C ,  2-C ) :   0.9746 
B(  1-C ,  3-C ) :  -0.1119 B(  1-C ,  4-C ) :  -0.1584 B(  1-C ,  5-C ) :  -0.1226 
B(  1-C , 12-H ) :  -0.0642 B(  1-C , 13-H ) :   0.8087 B(  1-C , 14-H ) :  -0.0550 
B(  2-C ,  3-C ) :   1.0028 B(  2-C ,  5-C ) :  -0.1038 B(  2-C ,  6-C ) :  -0.1074 
B(  2-C , 13-H ) :  -0.0610 B(  2-C , 14-H ) :   0.8167 B(  3-C ,  4-C ) :   0.9275 
B(  3-C ,  5-C ) :  -0.1315 B(  3-C ,  6-C ) :   0.1415 B(  3-C ,  7-N ) :  -0.1152 
B(  3-C , 14-H ) :  -0.1016 B(  3-C , 15-H ) :  -0.0873 B(  3-C , 17-H ) :  -0.1944 
B(  3-C , 18-H ) :  -0.0541 B(  4-C ,  5-C ) :   0.8694 B(  4-C ,  6-C ) :  -0.1527 
B(  4-C , 15-H ) :   0.7907 B(  4-C , 16-H ) :  -0.0533 B(  5-C , 12-H ) :  -0.0656 
B(  5-C , 16-H ) :   0.7938 B(  6-C ,  7-N ) :   0.4289 B(  6-C ,  8-C ) :  -0.1160 
B(  6-C , 11-C ) :  -0.0980 B(  6-C , 17-H ) :   0.9145 B(  6-C , 18-H ) :   0.8060 
B(  7-N ,  8-C ) :   0.9753 B(  7-N ,  9-C ) :  -0.2648 B(  7-N , 10-N ) :  -0.2115 
B(  7-N , 11-C ) :   0.8132 B(  7-N , 17-H ) :  -0.0651 B(  7-N , 18-H ) :  -0.0793 
B(  7-N , 19-H ) :  -0.0619 B(  7-N , 21-H ) :  -0.0907 B(  8-C ,  9-C ) :   0.8369 
B(  8-C , 10-N ) :  -0.2281 B(  8-C , 11-C ) :  -0.2742 B(  8-C , 19-H ) :   0.7949 
B(  8-C , 20-H ) :  -0.1042 B(  9-C , 10-N ) :   0.8994 B(  9-C , 11-C ) :  -0.2981 
B(  9-C , 20-H ) :   0.8642 B( 10-N , 11-C ) :   1.1189 B( 10-N , 20-H ) :  -0.0751 
B( 10-N , 21-H ) :  -0.0604 B( 11-C , 21-H ) :   0.8276 


                     *******************************
                     * LOEWDIN POPULATION ANALYSIS *
                     *******************************

----------------------
LOEWDIN ATOMIC CHARGES
----------------------
   0 C :   -0.161425
   1 C :   -0.152903
   2 C :   -0.137727
   3 C :   -0.067173
   4 C :   -0.160679
   5 C :   -0.157562
   6 C :    0.020429
   7 N :   -0.777960
   8 C :    0.069743
   9 C :    0.056832
  10 N :   -0.567207
  11 C :    0.215061
  12 H :    0.168449
  13 H :    0.169541
  14 H :    0.178943
  15 H :    0.169315
  16 H :    0.168563
  17 H :    0.193131
  18 H :    0.201269
  19 H :    0.190097
  20 H :    0.181673
  21 H :    0.199589

-------------------------------
LOEWDIN REDUCED ORBITAL CHARGES
-------------------------------
  0 C s       :     2.904339  s :     2.904339
      pz      :     0.993543  p :     3.175309
      px      :     1.082808
      py      :     1.098959
      dz2     :     0.006566  d :     0.081777
      dxz     :     0.007669
      dyz     :     0.013812
      dx2y2   :     0.026266
      dxy     :     0.027463

  1 C s       :     2.903615  s :     2.903615
      pz      :     0.986784  p :     3.166998
      px      :     1.077711
      py      :     1.102502
      dz2     :     0.008329  d :     0.082290
      dxz     :     0.013629
      dyz     :     0.007277
      dx2y2   :     0.028968
      dxy     :     0.024088

  2 C s       :     2.894967  s :     2.894967
      pz      :     0.997274  p :     3.161386
      px      :     1.079213
      py      :     1.084898
      dz2     :     0.006063  d :     0.081374
      dxz     :     0.008949
      dyz     :     0.012649
      dx2y2   :     0.025639
      dxy     :     0.028075

  3 C s       :     2.864201  s :     2.864201
      pz      :     0.984489  p :     3.106910
      px      :     1.018520
      py      :     1.103901
      dz2     :     0.009174  d :     0.096061
      dxz     :     0.011339
      dyz     :     0.015054
      dx2y2   :     0.029291
      dxy     :     0.031203

  4 C s       :     2.897277  s :     2.897277
      pz      :     1.006615  p :     3.181134
      px      :     1.075184
      py      :     1.099335
      dz2     :     0.008426  d :     0.082269
      dxz     :     0.013806
      dyz     :     0.007044
      dx2y2   :     0.029034
      dxy     :     0.023958

  5 C s       :     2.903676  s :     2.903676
      pz      :     0.990933  p :     3.171791
      px      :     1.079164
      py      :     1.101695
      dz2     :     0.006068  d :     0.082095
      dxz     :     0.008908
      dyz     :     0.013091
      dx2y2   :     0.025191
      dxy     :     0.028836

  6 C s       :     2.825045  s :     2.825045
      pz      :     1.056078  p :     3.046558
      px      :     0.940894
      py      :     1.049586
      dz2     :     0.026018  d :     0.107969
      dxz     :     0.019252
      dyz     :     0.007304
      dx2y2   :     0.032788
      dxy     :     0.022607

  7 N s       :     3.071628  s :     3.071628
      pz      :     1.253460  p :     3.876633
      px      :     1.263121
      py      :     1.360052
      dz2     :     0.195125  d :     0.829700
      dxz     :     0.202624
      dyz     :     0.158171
      dx2y2   :     0.140168
      dxy     :     0.133612

  8 C s       :     2.818889  s :     2.818889
      pz      :     0.949877  p :     3.003467
      px      :     1.024423
      py      :     1.029167
      dz2     :     0.035654  d :     0.107901
      dxz     :     0.025898
      dyz     :     0.021056
      dx2y2   :     0.010553
      dxy     :     0.014740

  9 C s       :     2.831954  s :     2.831954
      pz      :     1.021918  p :     2.997176
      px      :     0.999813
      py      :     0.975445
      dz2     :     0.033010  d :     0.114038
      dxz     :     0.028766
      dyz     :     0.020123
      dx2y2   :     0.016013
      dxy     :     0.016125

 10 N s       :     3.251315  s :     3.251315
      pz      :     1.193535  p :     3.867770
      px      :     1.370551
      py      :     1.303684
      dz2     :     0.122493  d :     0.448121
      dxz     :     0.116408
      dyz     :     0.107100
      dx2y2   :     0.044678
      dxy     :     0.057442

 11 C s       :     2.765891  s :     2.765891
      pz      :     1.021482  p :     2.864220
      px      :     0.932623
      py      :     0.910115
      dz2     :     0.039606  d :     0.154829
      dxz     :     0.034560
      dyz     :     0.020529
      dx2y2   :     0.028925
      dxy     :     0.031208

 12 H s       :     0.786808  s :     0.786808
      pz      :     0.010823  p :     0.044743
      px      :     0.022770
      py      :     0.011149

 13 H s       :     0.785825  s :     0.785825
      pz      :     0.008554  p :     0.044634
      px      :     0.007481
      py      :     0.028598

 14 H s       :     0.775690  s :     0.775690
      pz      :     0.011477  p :     0.045367
      px      :     0.019943
      py      :     0.013947

 15 H s       :     0.785873  s :     0.785873
      pz      :     0.009014  p :     0.044812
      px      :     0.007456
      py      :     0.028342

 16 H s       :     0.786758  s :     0.786758
      pz      :     0.011590  p :     0.044678
      px      :     0.019184
      py      :     0.013905

 17 H s       :     0.766681  s :     0.766681
      pz      :     0.008238  p :     0.040187
      px      :     0.005922
      py      :     0.026027

 18 H s       :     0.758282  s :     0.758282
      pz      :     0.026263  p :     0.040448
      px      :     0.006743
      py      :     0.007442

 19 H s       :     0.764195  s :     0.764195
      pz      :     0.015134  p :     0.045707
      px      :     0.014413
      py      :     0.016160

 20 H s       :     0.774980  s :     0.774980
      pz      :     0.019721  p :     0.043348
      px      :     0.014235
      py      :     0.009392

 21 H s       :     0.758565  s :     0.758565
      pz      :     0.025353  p :     0.041846
      px      :     0.006833
      py      :     0.009660


---------------------------------
LOEWDIN BOND ORDERS (THRESH 0.050000)
---------------------------------
B(  0-C ,  1-C ) :   1.4974 B(  0-C ,  2-C ) :   0.0895 B(  0-C ,  3-C ) :   0.1255 
B(  0-C ,  4-C ) :   0.0878 B(  0-C ,  5-C ) :   1.5149 B(  0-C , 12-H ) :   0.8749 
B(  0-C , 13-H ) :   0.0537 B(  0-C , 16-H ) :   0.0540 B(  1-C ,  2-C ) :   1.5212 
B(  1-C ,  3-C ) :   0.0905 B(  1-C ,  4-C ) :   0.1280 B(  1-C ,  5-C ) :   0.0876 
B(  1-C , 12-H ) :   0.0540 B(  1-C , 13-H ) :   0.8727 B(  1-C , 14-H ) :   0.0531 
B(  2-C ,  3-C ) :   1.4248 B(  2-C ,  4-C ) :   0.0847 B(  2-C ,  5-C ) :   0.1325 
B(  2-C ,  6-C ) :   0.0792 B(  2-C , 13-H ) :   0.0554 B(  2-C , 14-H ) :   0.8566 
B(  3-C ,  4-C ) :   1.4505 B(  3-C ,  5-C ) :   0.0914 B(  3-C ,  6-C ) :   0.9830 
B(  3-C ,  7-N ) :   0.1499 B(  3-C , 14-H ) :   0.0519 B(  3-C , 15-H ) :   0.0532 
B(  4-C ,  5-C ) :   1.5007 B(  4-C ,  6-C ) :   0.0917 B(  4-C , 15-H ) :   0.8666 
B(  4-C , 16-H ) :   0.0552 B(  5-C , 12-H ) :   0.0541 B(  5-C , 15-H ) :   0.0533 
B(  5-C , 16-H ) :   0.8733 B(  6-C ,  7-N ) :   1.2810 B(  6-C ,  8-C ) :   0.0695 
B(  6-C , 11-C ) :   0.0786 B(  6-C , 17-H ) :   0.8098 B(  6-C , 18-H ) :   0.8010 
B(  7-N ,  8-C ) :   1.5116 B(  7-N ,  9-C ) :   0.2932 B(  7-N , 10-N ) :   0.4777 
B(  7-N , 11-C ) :   1.4642 B(  7-N , 17-H ) :   0.0929 B(  7-N , 18-H ) :   0.0952 
B(  7-N , 19-H ) :   0.0958 B(  7-N , 21-H ) :   0.0930 B(  8-C ,  9-C ) :   1.4014 
B(  8-C , 10-N ) :   0.2528 B(  8-C , 11-C ) :   0.1674 B(  8-C , 19-H ) :   0.8175 
B(  8-C , 20-H ) :   0.0549 B(  9-C , 10-N ) :   1.6485 B(  9-C , 11-C ) :   0.1364 
B(  9-C , 19-H ) :   0.0533 B(  9-C , 20-H ) :   0.8279 B( 10-N , 11-C ) :   1.8011 
B( 10-N , 20-H ) :   0.0960 B( 10-N , 21-H ) :   0.0905 B( 11-C , 21-H ) :   0.7706 


------------------------------------------
LOEWDIN REDUCED ORBITAL POPULATIONS PER MO
-------------------------------------------
THRESHOLD FOR PRINTING IS 0.1%%
                      0         1         2         3         4         5   
                 -14.22298 -14.13190 -10.09691 -10.07483 -10.05823 -10.05135
                   2.00000   2.00000   2.00000   2.00000   2.00000   2.00000
                  --------  --------  --------  --------  --------  --------
 2 C  py              0.0       0.0       0.0       0.0       0.1       0.0
 3 C  s               0.0       0.0       0.0       0.0      99.5       0.0
 6 C  s               0.0       0.0      99.4       0.0       0.0       0.0
 7 N  s              99.7       0.0       0.0       0.0       0.0       0.0
 7 N  pz              0.0       0.0       0.0       0.0       0.0       0.1
 7 N  dz2             0.0       0.0       0.0       0.0       0.0       0.3
 7 N  dxy             0.0       0.0       0.1       0.2       0.0       0.0
 8 C  s               0.0       0.0       0.0       0.0       0.0      99.2
10 N  s               0.0      99.8       0.0       0.0       0.0       0.0
10 N  dxz             0.0       0.0       0.0       0.2       0.0       0.0
11 C  s               0.0       0.0       0.0      99.0       0.0       0.0

                      6         7         8         9        10        11   
                 -10.04793 -10.04643 -10.04584 -10.04510 -10.04462 -10.03713
                   2.00000   2.00000   2.00000   2.00000   2.00000   2.00000
                  --------  --------  --------  --------  --------  --------
 0 C  s               0.0       1.9       3.0       2.6      92.0       0.0
 0 C  py              0.0       0.1       0.0       0.0       0.0       0.0
 1 C  s               0.0       0.2      85.6       8.8       5.1       0.0
 1 C  px              0.0       0.0       0.0       0.1       0.1       0.0
 2 C  s               0.0       0.0      10.5      88.1       1.0       0.0
 3 C  py              0.0       0.0       0.0       0.1       0.0       0.0
 4 C  s              97.1       2.4       0.0       0.0       0.0       0.0
 5 C  s               2.4      95.1       0.4       0.1       1.6       0.0
 5 C  py              0.0       0.0       0.0       0.0       0.1       0.0
 9 C  s               0.0       0.0       0.0       0.0       0.0      99.2
10 N  pz              0.0       0.0       0.0       0.0       0.0       0.1
10 N  dz2             0.0       0.0       0.0       0.0       0.0       0.1
10 N  dyz             0.0       0.0       0.0       0.0       0.0       0.1

                     12        13        14        15        16        17   
                  -0.99348  -0.86563  -0.83603  -0.75288  -0.72894  -0.71314
                   2.00000   2.00000   2.00000   2.00000   2.00000   2.00000
                  --------  --------  --------  --------  --------  --------
 0 C  s               0.0       0.9      10.2      12.3       0.0       2.2
 0 C  pz              0.0       0.0       0.2       0.0       0.6       0.0
 0 C  px              0.0       0.3       1.6       0.3       1.3       0.0
 0 C  py              0.0       0.1       0.5       0.1       7.4       0.1
 0 C  dx2y2           0.0       0.0       0.0       0.0       0.1       0.0
 1 C  s               0.0       1.2      10.0       5.2      14.1       0.1
 1 C  pz              0.0       0.0       0.0       0.5       0.4       0.2
 1 C  px              0.0       0.1       0.0       2.3       2.0       1.1
 1 C  py              0.0       0.4       2.3       0.3       0.2       0.0
 2 C  s               0.1       2.6       9.4       0.7      14.3       1.3
 2 C  pz              0.0       0.0       0.3       0.2       0.1       0.0
 2 C  px              0.1       0.0       1.5       2.2       0.9       0.0
 2 C  py              0.1       0.8       0.6       3.5       1.5       0.3
 2 C  dx2y2           0.0       0.0       0.0       0.1       0.0       0.0
 3 C  s               0.4       6.4       8.8      12.2       0.0       1.6
 3 C  pz              0.0       0.0       0.3       0.3       0.7       0.1
 3 C  px              0.7       0.4       2.7       1.2       1.4       0.2
 3 C  py              0.0       0.0       0.5       0.6       8.4       0.2
 3 C  dx2y2           0.0       0.0       0.0       0.0       0.1       0.0
 4 C  s               0.0       2.4      10.3       1.2      14.5       0.2
 4 C  pz              0.0       0.1       0.0       0.9       0.3       0.1
 4 C  px              0.0       0.2       0.1       5.0       1.8       0.8
 4 C  py              0.0       0.5       2.2       0.0       0.2       0.0
 4 C  dxy             0.0       0.0       0.0       0.1       0.0       0.0
 5 C  s               0.0       1.2      10.4       4.5      13.6       1.1
 5 C  pz              0.0       0.1       0.3       0.0       0.1       0.0
 5 C  px              0.0       0.3       1.3       0.6       1.0       0.2
 5 C  py              0.0       0.0       0.7       2.7       1.7       0.5
 6 C  s               3.6      10.1       0.1       8.9       0.0       0.8
 6 C  pz              0.6       0.7       0.0       0.0       0.1       0.9
 6 C  px              2.2       0.3       2.6       2.9       0.0       1.3
 6 C  py              0.8       0.6       0.1       0.1       0.3       0.1
 7 N  s              30.5       9.1       3.7       2.1       0.0       0.4
 7 N  pz              0.1       0.4       0.0       2.3       0.2      17.1
 7 N  px              0.8       4.8       0.1       2.4       0.0       0.0
 7 N  py              0.4       1.6       0.2       0.2       0.0       0.9
 7 N  dz2             0.0       0.0       0.2       0.8       0.0       1.3
 7 N  dxz             0.2       0.1       0.0       0.2       0.0       0.9
 7 N  dyz             0.0       0.0       0.0       0.1       0.0       0.1
 7 N  dx2y2           0.2       0.0       0.1       0.4       0.0       0.0
 7 N  dxy             1.1       0.2       0.1       0.6       0.0       0.5
 8 C  s               8.4       0.0       0.2       2.4       0.2      17.4
 8 C  pz              5.5       0.9       0.5       0.7       0.0       0.8
 8 C  px              0.0       2.7       0.5       0.0       0.0       0.5
 8 C  py              0.5       0.9       0.2       0.0       0.0       0.2
 8 C  dz2             0.3       0.1       0.1       0.1       0.0       0.0
 8 C  dxy             0.0       0.0       0.0       0.0       0.0       0.2
 9 C  s               4.9       5.7       1.2       0.1       0.1       9.2
 9 C  pz              2.9       3.2       0.7       0.4       0.0       0.8
 9 C  px              0.8       0.3       0.2       0.9       0.0       2.1
 9 C  py              0.1       0.6       0.3       0.8       0.0       1.6
 9 C  dz2             0.0       0.2       0.1       0.1       0.0       0.1
 9 C  dyz             0.0       0.1       0.0       0.1       0.0       0.0
 9 C  dxy             0.1       0.0       0.0       0.0       0.0       0.2
10 N  s               8.8      19.6       5.2       4.4       0.0       1.5
10 N  pz              0.0       0.2       0.1       0.0       0.0       6.9
10 N  px              2.3       1.3       0.2       0.1       0.0       0.3
10 N  py              1.2       0.9       0.2       0.1       0.0       0.1
10 N  dz2             0.0       0.2       0.1       0.1       0.0       0.0
10 N  dxz             0.1       0.0       0.0       0.0       0.0       1.5
10 N  dyz             0.0       0.1       0.0       0.0       0.0       1.0
10 N  dx2y2           0.1       0.0       0.0       0.0       0.0       0.1
10 N  dxy             1.0       0.0       0.0       0.2       0.0       0.0
11 C  s              12.3       2.0       0.2       0.1       0.1       9.3
11 C  pz              4.3       2.0       0.3       0.0       0.0       1.4
11 C  px              0.5       6.1       1.8       1.4       0.0       0.0
11 C  py              1.1       2.1       0.8       0.9       0.0       0.1
11 C  dz2             0.0       0.1       0.0       0.0       0.0       0.0
11 C  dxz             0.0       0.4       0.1       0.2       0.0       0.0
11 C  dyz             0.0       0.1       0.1       0.1       0.0       0.0
11 C  dxy             0.4       0.0       0.0       0.0       0.0       0.2
12 H  s               0.0       0.1       0.9       1.8       0.0       0.4
12 H  px              0.0       0.0       0.0       0.1       0.0       0.0
13 H  s               0.0       0.1       0.9       0.7       2.4       0.0
13 H  py              0.0       0.0       0.1       0.1       0.2       0.0
14 H  s               0.0       0.2       0.8       0.2       2.5       0.2
14 H  px              0.0       0.0       0.0       0.0       0.1       0.0
15 H  s               0.0       0.2       0.9       0.3       2.6       0.0
15 H  py              0.0       0.0       0.1       0.0       0.2       0.0
16 H  s               0.0       0.1       1.0       0.7       2.4       0.2
16 H  px              0.0       0.0       0.0       0.0       0.1       0.0
17 H  s               0.3       1.1       0.0       1.6       0.0       0.1
17 H  py              0.0       0.1       0.0       0.1       0.0       0.0
18 H  s               0.3       1.1       0.0       1.7       0.0       0.5
18 H  pz              0.0       0.1       0.0       0.2       0.0       0.1
19 H  s               0.4       0.0       0.0       0.3       0.0       3.3
19 H  pz              0.0       0.0       0.0       0.0       0.0       0.1
20 H  s               0.2       0.4       0.1       0.0       0.0       1.5
21 H  s               0.7       0.1       0.0       0.0       0.0       2.5
21 H  pz              0.0       0.0       0.0       0.0       0.0       0.2

                     18        19        20        21        22        23   
                  -0.67640  -0.59106  -0.57851  -0.56660  -0.54430  -0.51319
                   2.00000   2.00000   2.00000   2.00000   2.00000   2.00000
                  --------  --------  --------  --------  --------  --------
 0 C  s               7.8       0.1       6.6       0.3       0.2       0.2
 0 C  pz              0.0       0.7       0.4       0.0       0.0       0.4
 0 C  px              0.2       1.5       2.1       0.0       0.0       2.5
 0 C  py              0.1      10.9       0.0       0.5       0.1       0.1
 0 C  dx2y2           0.0       0.1       0.0       0.0       0.0       0.0
 1 C  s               0.6       6.5       3.5       0.0       0.2       0.4
 1 C  pz              0.8       0.5       1.2       0.1       0.2       0.2
 1 C  px              4.2       3.4       5.0       0.9       0.6       0.1
 1 C  py              0.0       1.4       1.8       0.0       0.6       3.8
 1 C  dxy             0.1       0.0       0.1       0.0       0.0       0.0
 2 C  s               3.6       6.1       0.8       0.5       0.3       0.5
 2 C  pz              0.0       0.7       0.1       0.0       0.1       0.9
 2 C  px              0.1       4.5       1.5       0.0       0.1       1.4
 2 C  py              0.3       0.6       9.4       0.4       1.7       2.7
 2 C  dx2y2           0.0       0.0       0.1       0.0       0.0       0.0
 3 C  s               1.2       0.0       7.0       0.4       0.5       0.1
 3 C  pz              0.8       0.8       0.1       0.2       0.6       2.1
 3 C  px              5.6       1.6       0.4       0.2       0.9       2.9
 3 C  py              1.7      13.0       0.0       0.3       0.2       1.3
 3 C  dxy             0.1       0.0       0.0       0.0       0.0       0.0
 4 C  s               3.8       5.0       2.7       0.1       0.0       0.1
 4 C  pz              0.0       0.7       1.4       0.3       0.1       0.0
 4 C  px              0.1       5.1       5.8       0.7       0.7       0.0
 4 C  py              0.1       1.7       2.0       0.0       0.7       4.3
 4 C  dxy             0.0       0.1       0.1       0.0       0.0       0.0
 5 C  s               0.4       7.4       1.2       0.6       0.8       0.8
 5 C  pz              0.2       0.5       0.0       0.0       0.1       0.7
 5 C  px              1.9       3.2       1.5       0.1       0.4       3.5
 5 C  py              3.1       0.2       9.2       0.3       0.8       1.3
 5 C  dx2y2           0.1       0.0       0.1       0.0       0.0       0.0
 6 C  s              12.7       0.0       0.3       0.0       1.6       0.6
 6 C  pz              0.1       0.2       0.2       3.5       1.8       2.1
 6 C  px              0.1       0.5       6.2       0.2       1.0       8.1
 6 C  py              0.9       2.1       0.4       0.4       1.3       1.0
 6 C  dxz             0.0       0.0       0.1       0.1       0.0       0.1
 6 C  dxy             0.0       0.0       0.2       0.0       0.0       0.1
 7 N  s               0.7       0.0       0.5       0.1       3.7       0.4
 7 N  pz              0.0       0.6       2.6      13.4       0.0       1.6
 7 N  px              7.8       0.4       1.3       3.4       0.4       6.3
 7 N  py              4.8       0.1       1.3       5.4       0.0       3.3
 7 N  dz2             0.0       0.0       0.0       0.2       1.1       0.4
 7 N  dxz             1.4       0.1       0.1       0.2       0.0       0.7
 7 N  dyz             0.6       0.0       0.1       0.0       0.4       0.5
 7 N  dx2y2           0.1       0.0       0.1       0.0       0.0       0.1
 7 N  dxy             0.5       0.2       0.0       0.0       0.3       0.0
 8 C  s               0.3       0.1       0.9       0.4       7.9       0.8
 8 C  pz              0.9       0.1       0.1       2.7       7.7       3.5
 8 C  px              0.1       0.2       0.3       9.2       0.1       1.0
 8 C  py              0.0       0.2       0.0       3.5       0.5       1.7
 8 C  dz2             0.1       0.0       0.0       0.2       0.1       0.0
 9 C  s               4.0       0.8       1.5       9.8       0.2       1.2
 9 C  pz              0.1       0.1       0.1       4.1       2.7       2.3
 9 C  px              0.4       0.1       1.4       0.1       4.9       1.2
 9 C  py              0.2       0.1       0.6       0.2       4.2       0.2
 9 C  dz2             0.0       0.0       0.0       0.0       0.2       0.0
10 N  s               2.2       0.0       0.3       4.6       0.8       1.2
10 N  pz              3.1       0.8       2.9       5.0      10.2       0.2
10 N  px              0.6       0.1       0.5       0.3       0.7       0.9
10 N  py              0.0       0.0       0.0       0.4       0.1       0.6
10 N  dz2             0.3       0.0       0.1       0.4       0.2       1.1
10 N  dxz             0.3       0.0       0.0       0.0       0.3       0.2
10 N  dyz             0.3       0.0       0.0       0.1       0.0       0.0
10 N  dx2y2           0.1       0.0       0.0       0.0       0.0       0.0
10 N  dxy             0.2       0.0       0.0       0.1       0.0       0.3
11 C  s               3.4       0.1       0.7       0.9       6.5       0.9
11 C  pz              0.2       0.0       0.1       1.8       6.0       5.3
11 C  px              1.2       0.3       0.2       8.8       1.2       0.6
11 C  py              0.6       0.0       0.3       3.5       1.8       0.9
11 C  dxz             0.1       0.0       0.0       0.2       0.0       0.1
11 C  dyz             0.1       0.0       0.0       0.1       0.0       0.0
12 H  s               2.0       0.0       3.7       0.2       0.1       0.9
12 H  px              0.1       0.0       0.2       0.0       0.0       0.0
13 H  s               0.2       3.3       2.1       0.0       0.3       1.5
13 H  py              0.0       0.3       0.1       0.0       0.0       0.1
14 H  s               0.7       3.4       0.6       0.2       0.6       1.9
14 H  px              0.0       0.1       0.1       0.0       0.0       0.1
14 H  py              0.0       0.1       0.0       0.0       0.0       0.0
15 H  s               0.6       3.1       1.9       0.0       0.1       1.1
15 H  py              0.1       0.2       0.1       0.0       0.0       0.0
16 H  s               0.1       3.8       0.8       0.4       1.0       2.7
16 H  px              0.0       0.1       0.1       0.0       0.0       0.1
16 H  py              0.0       0.1       0.0       0.0       0.0       0.0
17 H  s               3.9       0.6       0.3       0.2       1.4       0.9
17 H  py              0.3       0.0       0.0       0.0       0.0       0.0
18 H  s               3.2       0.0       0.3       0.9       1.9       1.1
18 H  pz              0.3       0.0       0.0       0.0       0.1       0.0
19 H  s               0.1       0.0       0.3       0.9       7.1       3.2
19 H  pz              0.0       0.0       0.0       0.1       0.1       0.1
19 H  px              0.0       0.0       0.0       0.0       0.2       0.0
19 H  py              0.0       0.0       0.0       0.0       0.1       0.0
20 H  s               1.0       0.4       1.0       5.6       0.0       2.2
20 H  pz              0.1       0.0       0.1       0.2       0.0       0.1
20 H  px              0.0       0.0       0.0       0.1       0.0       0.0
21 H  s               0.7       0.0       0.2       1.0       8.0       3.4
21 H  pz              0.1       0.0       0.0       0.0       0.4       0.1

                     24        25        26        27        28        29   
                  -0.49495  -0.45497  -0.44035  -0.41986  -0.41316  -0.40178
                   2.00000   2.00000   2.00000   2.00000   2.00000   2.00000
                  --------  --------  --------  --------  --------  --------
 0 C  s               1.0       0.7       1.9       0.8       0.0       0.0
 0 C  pz              0.8       1.5       0.0       0.2       0.4       0.2
 0 C  px              5.7       6.0       1.2       3.2       1.5       1.1
 0 C  py              4.2       2.3       4.5       3.6       3.8       0.6
 0 C  dx2y2           0.0       0.0       0.1       0.0       0.0       0.2
 0 C  dxy             0.0       0.1       0.1       0.0       0.0       0.2
 1 C  s               0.2       1.0       1.7       0.2       0.0       0.5
 1 C  pz              0.1       0.8       0.3       0.0       1.0       0.0
 1 C  px              1.3       5.5       1.6       0.9       3.0       0.5
 1 C  py              5.5       0.6       3.6       5.9       2.0      15.8
 1 C  dx2y2           0.0       0.1       0.2       0.1       0.0       0.1
 1 C  dxy             0.0       0.0       0.0       0.1       0.0       0.0
 2 C  s               0.2       2.1       1.7       0.1       0.2       0.3
 2 C  pz              0.5       0.0       1.6       0.0       0.0       2.1
 2 C  px              5.8       0.1       3.8       0.9       0.7       8.4
 2 C  py              0.4       4.2       0.2       7.8       3.3       2.8
 2 C  dx2y2           0.0       0.0       0.0       0.3       0.0       0.1
 2 C  dxy             0.0       0.1       0.2       0.0       0.0       0.1
 3 C  s               0.3       0.1       1.7       2.2       0.0       0.0
 3 C  pz              0.3       1.5       0.5       0.2       0.1       0.2
 3 C  px              2.0       2.9       1.3       2.5       2.0       0.9
 3 C  py              0.0       1.9       4.4       2.9       3.9       0.7
 3 C  dx2y2           0.0       0.1       0.1       0.0       0.1       0.2
 3 C  dxy             0.1       0.0       0.1       0.0       0.1       0.2
 4 C  s               1.2       0.1       2.2       0.2       0.1       0.6
 4 C  pz              0.1       0.8       0.2       0.2       1.3       0.0
 4 C  px              0.3       7.3       1.6       0.1       3.5       0.7
 4 C  py              6.3       0.8       4.5       2.5       1.1      15.8
 4 C  dx2y2           0.0       0.0       0.2       0.0       0.0       0.1
 4 C  dxy             0.0       0.1       0.0       0.2       0.0       0.0
 5 C  s               0.2       0.3       2.0       0.2       0.0       0.3
 5 C  pz              0.5       0.3       1.1       0.7       0.0       2.1
 5 C  px              1.4       2.9       4.7       3.4       0.5       8.9
 5 C  py              1.8       4.4       0.1       7.1       3.7       2.3
 5 C  dx2y2           0.0       0.0       0.0       0.2       0.0       0.1
 5 C  dxy             0.0       0.0       0.2       0.0       0.0       0.1
 6 C  s               1.6       0.2       0.1       0.1       0.0       0.0
 6 C  pz              6.0       2.7       7.5       1.2       3.4       0.1
 6 C  px              0.1       0.7       4.8       0.9       0.1       0.4
 6 C  py              8.5      12.9       0.0       0.2       2.8       0.1
 7 N  s               0.3       0.1       0.0       0.0       0.0       0.0
 7 N  pz              0.1       0.1       0.8       0.8       4.8       0.5
 7 N  px              5.3       2.8       0.4       5.0       0.1       0.1
 7 N  py              0.9       4.4       1.7       8.0       2.4       0.9
 7 N  dz2             0.0       0.1       0.4       0.1       1.0       0.0
 7 N  dxz             0.6       0.6       0.5       0.0       0.0       0.1
 7 N  dyz             0.6       0.1       0.1       0.1       0.0       0.0
 7 N  dx2y2           0.0       0.3       0.1       0.1       0.0       0.0
 7 N  dxy             0.4       0.1       0.1       0.1       0.1       0.0
 8 C  s               0.1       0.2       0.3       0.0       0.7       0.1
 8 C  pz              0.6       0.6       0.5       0.0       8.8       1.2
 8 C  px              1.2       0.3       0.0       0.2       4.3       1.0
 8 C  py              0.1       0.9       1.0       5.3       2.3       0.4
 8 C  dxz             0.0       0.0       0.1       0.1       0.3       0.0
 8 C  dyz             0.0       0.0       0.0       0.0       0.2       0.0
 9 C  s               0.5       0.3       0.3       0.0       0.9       0.1
 9 C  pz              0.9       0.4       1.0       0.2       1.4       0.0
 9 C  px              1.0       2.0       0.2       1.9       0.3       0.2
 9 C  py              0.8       0.0       0.4       0.7       0.8       0.3
 9 C  dxz             0.0       0.0       0.0       0.0       0.2       0.0
 9 C  dyz             0.0       0.0       0.0       0.0       0.2       0.0
10 N  s               0.4       0.0       0.2       0.1       1.1       0.1
10 N  pz              0.2       0.1       0.0       0.0       1.2       0.3
10 N  px              0.3       0.7       0.1       1.9       0.0       0.0
10 N  py              0.6       0.2       0.2       1.5       0.2       0.0
10 N  dz2             0.4       0.2       0.2       0.0       0.6       0.0
10 N  dxz             0.1       0.1       0.0       0.0       0.0       0.0
10 N  dx2y2           0.0       0.1       0.1       0.5       0.0       0.0
10 N  dxy             0.1       0.0       0.0       0.0       0.0       0.0
11 C  s               0.2       0.2       0.3       0.0       0.4       0.0
11 C  pz              1.2       1.3       0.6       0.1       3.8       0.5
11 C  px              0.2       0.2       0.4       1.5       1.6       0.5
11 C  py              1.0       1.0       0.5       4.4       0.4       0.2
11 C  dz2             0.0       0.0       0.0       0.0       0.1       0.0
12 H  s               4.8       2.6       4.4       1.3       0.0       0.3
12 H  px              0.2       0.0       0.1       0.0       0.0       0.0
12 H  py              0.0       0.1       0.0       0.0       0.0       0.0
[...]
10 N  dxy             3.1       9.7       0.7       1.7       0.0       1.0
11 C  s               2.0       1.3       3.0       7.1       0.0       0.3
11 C  pz              0.1       0.3       0.8       6.6       0.0       0.8
11 C  px              0.4       0.1       0.9       0.4       0.0       4.1
11 C  py              0.1       0.1       0.2       1.2       0.0       1.6
11 C  dz2             3.8       7.3       1.5       3.0       0.0       0.1
11 C  dxz             0.4       0.2       1.2       0.0       0.0       5.0
11 C  dyz             1.8       0.7       0.0       0.0       0.0       2.4
11 C  dx2y2           0.0       0.0       0.1       0.6       0.0       0.3
11 C  dxy             0.1       0.1       0.5       7.1       0.0       0.0
12 H  s               0.0       0.0       0.0       0.0       2.7       0.0
12 H  pz              0.0       0.0       0.0       0.0       0.5       0.0
12 H  px              0.0       0.0       0.0       0.0       3.6       0.0
12 H  py              0.0       0.0       0.0       0.0       0.9       0.0
13 H  s               0.0       0.0       0.0       0.0       2.4       0.0
13 H  py              0.0       0.0       0.0       0.0       4.3       0.0
14 H  s               0.1       0.0       0.0       0.0       2.0       0.0
14 H  pz              0.0       0.0       0.0       0.0       0.5       0.0
14 H  px              0.1       0.0       0.0       0.0       2.0       0.0
14 H  py              0.1       0.0       0.0       0.0       1.3       0.0
15 H  s               0.0       0.0       0.0       0.0       2.0       0.0
15 H  py              0.0       0.0       0.0       0.0       3.8       0.0
16 H  s               0.0       0.0       0.0       0.0       2.4       0.0
16 H  pz              0.0       0.0       0.0       0.0       0.6       0.0
16 H  px              0.0       0.0       0.0       0.0       2.4       0.0
16 H  py              0.0       0.0       0.0       0.0       1.3       0.0
17 H  s               0.0       0.2       0.4       0.1       0.1       0.1
17 H  pz              0.0       0.1       0.1       0.0       0.0       0.0
17 H  py              0.0       0.3       0.7       0.2       0.2       0.0
18 H  s               0.3       0.2       0.1       0.2       0.0       0.0
18 H  pz              0.5       0.3       0.1       0.2       0.0       0.0
18 H  px              0.1       0.0       0.2       0.0       0.0       0.0
18 H  py              0.0       0.1       0.1       0.0       0.0       0.0
19 H  s               0.1       1.3       2.6       0.1       0.0       1.5
19 H  pz              0.0       1.7       2.0       0.1       0.0       1.1
19 H  px              0.1       0.6       1.5       0.2       0.0       0.6
19 H  py              0.1       0.8       1.6       0.1       0.0       0.6
20 H  s               0.0       2.9       1.8       0.0       0.0       1.2
20 H  pz              0.0       4.1       3.3       0.0       0.0       1.1
20 H  px              0.0       2.1       0.9       0.0       0.0       0.4
20 H  py              0.0       0.3       0.1       0.0       0.0       0.0
21 H  s               1.5       2.1       0.2       1.4       0.0       0.1
21 H  pz              2.9       4.1       0.7       1.5       0.0       0.0
21 H  py              0.2       0.3       0.0       0.1       0.0       0.0

                    276       277       278       279       280       281   
                  21.39388  21.91353  21.92151  21.96049  22.12688  22.17634
                   0.00000   0.00000   0.00000   0.00000   0.00000   0.00000
                  --------  --------  --------  --------  --------  --------
 0 C  s              17.7       7.5      20.8       1.0      13.1      15.8
 1 C  s              17.3       0.4      10.6      23.3       0.0       0.2
 2 C  s              14.7       1.4       1.3      27.6       5.6      21.1
 3 C  s              14.9      11.4      21.6       0.4       0.1      21.5
 3 C  py              0.0       0.0       0.0       0.1       0.0       0.0
 4 C  s              17.0       0.9      14.0      14.5       1.9       0.6
 5 C  s              17.9       4.1       1.6      28.9       1.5      24.1
 6 C  s               0.2       3.4       4.6       0.0      76.0      12.0
 7 N  s               0.0       0.1       0.1       0.0       0.0       0.0
 8 C  s               0.0      29.9      12.8       2.0       1.2       1.2
 9 C  s               0.0      37.2      10.2       1.7       0.0       1.3
11 C  s               0.0       3.2       2.0       0.0       0.0       1.9

                    282       283       284       285       286       287   
                  22.19421  22.23702  22.25951  22.33858  31.88960  32.00949
                   0.00000   0.00000   0.00000   0.00000   0.00000   0.00000
                  --------  --------  --------  --------  --------  --------
 0 C  s               8.5       0.3       1.5      13.4       0.0       0.0
 1 C  s              29.8       1.3       0.1      16.6       0.0       0.0
 2 C  s               8.5       1.4       0.1      17.8       0.0       0.0
 3 C  s              13.7       0.0       0.4      15.7       0.0       0.0
 4 C  s              28.9       2.1       3.1      16.5       0.0       0.0
 5 C  s               3.3       0.3       3.2      14.6       0.0       0.0
 6 C  s               1.1       0.1       2.1       0.0       0.0       0.0
 7 N  s               0.0       0.1       0.0       0.0      55.0      44.7
 7 N  pz              0.0       0.0       0.1       0.0       0.0       0.0
 8 C  s               0.3       1.3      46.7       3.9       0.0       0.1
 9 C  s               0.1      15.8      32.2       1.0       0.0       0.1
10 N  s               0.0       0.1       0.1       0.0      44.8      55.0
10 N  pz              0.0       0.1       0.0       0.0       0.0       0.0
11 C  s               5.3      76.6      10.0       0.1       0.1       0.0



                      *****************************
                      * MAYER POPULATION ANALYSIS *
                      *****************************

  NA   - Mulliken gross atomic population
  ZA   - Total nuclear charge
  QA   - Mulliken gross atomic charge
  VA   - Mayer's total valence
  BVA  - Mayer's bonded valence
  FA   - Mayer's free valence

  ATOM       NA         ZA         QA         VA         BVA        FA
  0 C      6.1352     6.0000    -0.1352     3.8270     3.8270    -0.0000
  1 C      6.1777     6.0000    -0.1777     3.8477     3.8477    -0.0000
  2 C      6.1596     6.0000    -0.1596     3.9299     3.9299     0.0000
  3 C      5.7915     6.0000     0.2085     3.4726     3.4726    -0.0000
  4 C      6.2226     6.0000    -0.2226     3.8676     3.8676    -0.0000
  5 C      6.1539     6.0000    -0.1539     3.8666     3.8666    -0.0000
  6 C      6.3833     6.0000    -0.3833     3.8321     3.8321    -0.0000
  7 N      6.7856     7.0000     0.2144     3.3826     3.3826    -0.0000
  8 C      6.1862     6.0000    -0.1862     3.7763     3.7763    -0.0000
  9 C      6.1250     6.0000    -0.1250     3.8352     3.8352     0.0000
 10 N      7.1855     7.0000    -0.1855     2.9729     2.9729     0.0000
 11 C      6.1763     6.0000    -0.1763     4.0005     4.0005     0.0000
 12 H      0.8518     1.0000     0.1482     0.9675     0.9675     0.0000
 13 H      0.8522     1.0000     0.1478     0.9680     0.9680    -0.0000
 14 H      0.8454     1.0000     0.1546     0.9656     0.9656     0.0000
 15 H      0.8549     1.0000     0.1451     0.9701     0.9701     0.0000
 16 H      0.8528     1.0000     0.1472     0.9682     0.9682    -0.0000
 17 H      0.8350     1.0000     0.1650     0.9560     0.9560    -0.0000
 18 H      0.8279     1.0000     0.1721     0.9495     0.9495     0.0000
 19 H      0.8628     1.0000     0.1372     0.9803     0.9803    -0.0000
 20 H      0.8669     1.0000     0.1331     0.9751     0.9751     0.0000
 21 H      0.8677     1.0000     0.1323     0.9787     0.9787    -0.0000

  Mayer bond orders larger than 0.100000
B(  0-C ,  1-C ) :   1.4043 B(  0-C ,  5-C ) :   1.4352 B(  0-C , 12-H ) :   0.9484 
B(  1-C ,  2-C ) :   1.4502 B(  1-C , 13-H ) :   0.9522 B(  2-C ,  3-C ) :   1.4048 
B(  2-C , 14-H ) :   0.9427 B(  3-C ,  4-C ) :   1.4014 B(  3-C ,  6-C ) :   0.8235 
B(  4-C ,  5-C ) :   1.4248 B(  4-C , 15-H ) :   0.9422 B(  5-C , 16-H ) :   0.9469 
B(  6-C ,  7-N ) :   0.9320 B(  6-C , 17-H ) :   0.9924 B(  6-C , 18-H ) :   0.9586 
B(  7-N ,  8-C ) :   1.2420 B(  7-N , 11-C ) :   1.2258 B(  8-C ,  9-C ) :   1.4755 
B(  8-C , 11-C ) :   0.1058 B(  8-C , 19-H ) :   0.9488 B(  9-C , 10-N ) :   1.3070 
B(  9-C , 20-H ) :   0.9770 B( 10-N , 11-C ) :   1.6130 B( 11-C , 21-H ) :   0.9603 


-------
TIMINGS
-------

Total SCF time: 0 days 0 hours 0 min 40 sec 

Total time                  ....      40.050 sec
Sum of individual times     ....      39.593 sec  ( 98.9%)

SCF preparation             ....       0.211 sec  (  0.5%)
Fock matrix formation       ....      38.105 sec  ( 95.1%)
  Startup                   ....       0.067 sec  (  0.2% of F)
  Split-RI-J                ....       9.019 sec  ( 23.7% of F)
  XC integration            ....      28.438 sec  ( 74.6% of F)
    Basis function eval.    ....       4.925 sec  ( 17.3% of XC)
    Density eval.           ....       9.884 sec  ( 34.8% of XC)
    XC-Functional eval.     ....       2.644 sec  (  9.3% of XC)
    XC-Potential eval.      ....       9.892 sec  ( 34.8% of XC)
Diagonalization             ....       0.000 sec  (  0.0%)
Density matrix formation    ....       0.269 sec  (  0.7%)
Total Energy calculation    ....       0.044 sec  (  0.1%)
Population analysis         ....       0.207 sec  (  0.5%)
Orbital Transformation      ....       0.099 sec  (  0.2%)
Orbital Orthonormalization  ....       0.000 sec  (  0.0%)
DIIS solution               ....       0.579 sec  (  1.4%)
  MO trafo                  ....       0.000 sec  (  0.0 % of DIIS)
  Orb grad                  ....       0.000 sec  (  0.0 % of DIIS)
  Energy W gradient         ....       0.000 sec  (  0.0 % of DIIS)
  DIIS error                ....       0.028 sec  (  4.8 % of DIIS)
  DIIS work                 ....       0.470 sec  ( 81.2 % of DIIS)
  Form Q                    ....       0.000 sec  (  0.0 % of DIIS)
  Form QpQm                 ....       0.000 sec  (  0.0 % of DIIS)
  Exp/Cayley                ....       0.000 sec  (  0.0 % of DIIS)
  Orb update                ....       0.000 sec  (  0.0 % of DIIS)
  Wake-sleep                ....       0.029 sec  (  5.0 % of DIIS)
SOSCF solution              ....       0.078 sec  (  0.2%)
  MO trafo                  ....       0.055 sec  ( 70.3 % of SOSCF)
  Orb grad                  ....       0.002 sec  (  2.5 % of SOSCF)
  Rot update                ....       0.000 sec  (  0.1 % of SOSCF)
  Step                      ....       0.021 sec  ( 26.9 % of SOSCF)
Finished LeanSCF after  40.2 sec

Maximum memory used throughout the entire LEANSCF-calculation: 32.7 MB


-------------------------------------------------------------------------------
                          DFT DISPERSION CORRECTION                            
                                                                               
                                DFTD4 V3.4.0                                   
-------------------------------------------------------------------------------
The R2SCAN3C composite method is recognized
Using three-body term ABC
Active option DFTDOPT                   ...         5   

-------------------------   ----------------
Dispersion correction           -0.008597665
-------------------------   ----------------

------------------   -----------------
gCP correction             0.012933522
------------------   -----------------

-------------------------   --------------------
FINAL SINGLE POINT ENERGY      -496.441781442280
-------------------------   --------------------


------------------------------------------------------------------------------
                              ORCA PROPERTY CALCULATIONS
------------------------------------------------------------------------------

GBWName                                 ... sp_gas.gbw
Number of atoms                         ...     22
Number of basis functions               ...    288
Max core memory                         ...   1024 MB

Electric properties:
Dipole moment                           ... YES
Quadrupole moment                       ...  NO
Static polarizability (Dipole/Dipole)   ...  NO
Static polarizability (Dipole/Quad.)    ...  NO
Static polarizability (Quad./Quad.)     ...  NO
Static polarizability (Velocity)        ...  NO

Atomic electric properties:
Dipole moment                           ...  NO
Quadrupole moment                       ...  NO
Static polarizability                   ...  NO

Choice of electric origin               ... Center of mass
Position of electric origin             ...     0.000012    -0.000001    -0.000001

General magnetic properties:
Magnetizability                         ...  NO

EPR properties:
g-Tensor (aka g-matrix)                 ...  NO
Zero-Field splitting spin-orbit         ...  NO
Zero-field splitting spin-spin          ...  NO
Hyperfine couplings                     ...  NO (   0 nuclei)
Quadrupole couplings                    ...  NO (   0 nuclei)
Contact density                         ...  NO (   0 nuclei)

NMR properties:
Chemical shifts                         ...  NO (   0 nuclei)
Spin-rotation constants                 ...  NO (   0 nuclei)
Spin-spin couplings                     ...  NO (   0 nuclei,    0 pairs)

Choice of magnetic origin               ... GIAO
Position of magnetic origin             ...     0.000000     0.000000     0.000000

Properties with geometric perturbations:
SCF Hessian                             ...  NO
IR spectrum                             ...  NO
VCD spectrum                            ...  NO
X-ray spectroscopy properties:
SCF XES/XAS/RIXS spectra                ...  NO


-------------
DIPOLE MOMENT
-------------

Method             : SCF
Type of density    : Electron Density
Multiplicity       :   1
Irrep              :   0
Energy             :  -496.4461172990589830 Eh
Relativity type    : 
Basis              : AO
                                X                 Y                 Z
Electronic contribution:      2.991855892       0.657637176      -0.149287302
Nuclear contribution   :     -4.383514897      -1.393830233      -0.037022239
                        -----------------------------------------
Total Dipole Moment    :     -1.391659005      -0.736193058      -0.186309541
                        -----------------------------------------
Magnitude (a.u.)       :      1.585372590
Magnitude (Debye)      :      4.029696878



--------------------
Rotational spectrum 
--------------------
 
Rotational constants in cm-1:             0.082110             0.018349             0.017421 
Rotational constants in MHz :          2461.606492           550.102093           522.278244 

Dipole components along the rotational axes: 
x,y,z [a.u.] :    -1.391659     0.736192    -0.186311 
x,y,z [Debye]:    -3.537317     1.871252    -0.473566 

 

Dipole moment calculation done in   0.0 sec 

Maximum memory used throughout the entire PROP-calculation: 20.4 MB

--------------------------------
SUGGESTED CITATIONS FOR THIS RUN
--------------------------------

Below you find a list of papers that are relevant to this ORCA run
We neither can nor want to force you to cite these papers, but we appreciate if you do
You receive ORCA, which is the product of decades of hard work by many enthusiastic individuals, for free
The only thing we kindly ask in return is that you cite our papers,
We deeply appreciate it, if you show your appreciation for ORCA by not just citing the generic ORCA reference.

Please note that relegating all ORCA citations to the supporting information does *not* help us.
SI sections are not indexed - citations you put there will not count into any citation statistics
But we need these citations in order to attract the funding resources that allow us to do what we are doing

Therefore, if you are a happy ORCA user, please consider citing a few of the papers listed below in the main body of your paper

In addition to the list printed below, the program has created the file sp_gas.bibtex that contains the list in bibtex format
You can import this file easily into all common literature databanks and citation aid programs


List of essential papers. We consider these as the minimum necessary citations

  1. Neese,F.
     Software update: the ORCA program system, version 5.0
     WIRES Comput. Molec. Sci., 2022 12(1)e1606
     doi.org/10.1002/wcms.1606
  2. Grimme,S.; Hansen,A.; Ehlert,S.; Mewes,J.
     r2SCAN-3c: A 'Swiss army knife' composite electronic-structure method
     J. Chem. Phys., 2021 154 064103
     doi.org/10.1063/5.0040021

List of papers to cite with high priority. The work reported in these papers was absolutely
necessary for this run to complete.
Our perspective: the developers of density functionals and basis sets usually get cited in chemistry papers
Good! But without the algorithms to do something with them, the functionals or basis sets would not do anything.
Hence, in our opinion, the algorithm design and method developments papers are equally worthy of getting cited

  1. Neese,F.
     An improvement of the resolution of the identity approximation for the formation of the Coulomb matrix
     J. Comp. Chem., 2003 24(14)1740-1747
     doi.org/10.1002/jcc.10318
  2. Neese,F.
     The SHARK Integral Generation and Digestion System
     J. Comp. Chem., 2022  1-16
     doi.org/10.1002/jcc.26942
  3. Lehtola,S.; Steigemann,C.; Oliveira,M.; Marques,M.
     Recent developments in Libxc - A comprehensive library of functionals for density functional theory
     Software X, 2018 7 
     doi.org/10.1016/j.softx.2017.11.002
  4. Caldeweyher,E.; Bannwarth,C.; Grimme,S.
     Extension of the D3 dispersion coefficient model
     J. Chem. Phys., 2017 147 034112-XXXX
     doi.org/10.1063/1.4993215
  5. Caldeweyher,E.; Ehlert,S.; Hansen,A.; Neugebauer,H.; Spicher,S.; Bannwarth,C.; Grimme,S.
     A generally applicable atomic-charge dependent London dispersion correction
     J. Chem. Phys., 2019 150 154122-XXXX
     doi.org/10.1063/1.5090222
  6. Caldeweyher,E.; Mewes,J.; Ehlert,S.; Grimme,S.
     Extension and evaluation of the D4 London-dispersion model for periodic systems
     Phys. Chem. Chem. Phys., 2020 22(16)8499-8512
     doi.org/10.1039/D0CP00502A

List of suggested additional citations. These are papers that are important in the 'surrounding' of 
of this run, or papers that preceded the highly important papers. If you like your results we are grateful for a citation.

  1. Neese,F.
     The ORCA program system
     WIRES Comput. Molec. Sci., 2012 2(1)73-78
     doi.org/10.1002/wcms.81
  2. Neese,F.
     Software update: the ORCA program system, version 4.0
     WIRES Comput. Molec. Sci., 2018 8(1)1-6
     doi.org/10.1002/wcms.1327
  3. Neese,F.; Wennmohs,F.; Becker,U.; Riplinger,C.
     The ORCA quantum chemistry program package
     J. Chem. Phys., 2020 152 Art. No. L224108
     doi.org/10.1063/5.0004608

List of optional additional citations

  1. Neese,F.
     Approximate second-order SCF convergence for spin unrestricted wavefunctions
     Chem. Phys. Lett., 2000 325(1-3)93-98
     doi.org/10.1016/s0009-2614(00)00662-x

Timings for individual modules:

Sum of individual times          ...       42.625 sec (=   0.710 min)
Startup calculation              ...        1.898 sec (=   0.032 min)   4.5 %
SCF iterations                   ...       40.578 sec (=   0.676 min)  95.2 %
Property calculations            ...        0.149 sec (=   0.002 min)   0.3 %
                             ****ORCA TERMINATED NORMALLY****
TOTAL RUN TIME: 0 days 0 hours 0 minutes 43 seconds 406 msec
