19
 energy: -386.001845668910 gnorm: 0.004064757544 xtb: 6.7.1 (edcfbbe)
C           -2.56143411205019       -0.41098795885827        0.20744419982254
C           -1.70991706457561       -1.24546895568173       -0.51050068514660
C           -0.40877308074899       -0.83745938110827       -0.79859092432406
C            0.06136775209852        0.40606675614470       -0.37077470752206
C           -0.80252262402302        1.23643068590578        0.35221414449570
C           -2.10348998870771        0.83436009285871        0.63801141863880
C            1.48584703103767        0.81894199388893       -0.61918208354318
C            2.40739285195664        0.44938368112058        0.54543562363775
O            2.45177431521073       -0.96700451981898        0.78486716561603
H           -3.57662670624483       -0.72683628661596        0.42613148317787
H           -2.05840978742750       -2.21677118410118       -0.84818017615180
H            0.25138266286429       -1.49169729977409       -1.36102777031985
H           -0.44769919016653        2.20695718623055        0.69076546016469
H           -2.76172099871719        1.49437091351959        1.19433210905541
H            1.86430643758976        0.34476920156251       -1.53336734856618
H            1.54857727575557        1.90508154629088       -0.75862092601943
H            3.41749841693044        0.82997622716908        0.35278108171138
H            2.03847886745328        0.89550407607964        1.47274411113670
H            2.76883587510994       -1.38571025186546       -0.02558348723097
19
 energy: -386.001872907961 gnorm: 0.001441145259 xtb: 6.7.1 (edcfbbe)
C           -2.56370001016303       -0.41040767874534        0.20716538234953
C           -1.71260569431711       -1.24521658900907       -0.51242547637640
C           -0.41092044859219       -0.83853586000425       -0.79951063666662
C            0.06149115223603        0.40459620335270       -0.36999943633427
C           -0.80268126759043        1.23482466761765        0.35266641308297
C           -2.10468014287953        0.83380552666416        0.63797142410596
C            1.48615018357668        0.81733384423993       -0.61808206272923
C            2.40947455265260        0.44926205490584        0.54525132097116
O            2.45873562034974       -0.96634368607860        0.78948619906606
H           -3.57883086495229       -0.72535364832054        0.42780872134810
H           -2.06220265876944       -2.21534391610260       -0.85266495687315
H            0.24786946855979       -1.49192796406028       -1.36501971449245
H           -0.44839119589933        2.20525684802093        0.69133121366804
H           -2.76315606074660        1.49376786258735        1.19464864683557
H            1.86590063536921        0.34325778372428       -1.53130901745451
H            1.54821132086062        1.90310063327137       -0.75759662325365
H            3.41853982212342        0.83491893541505        0.34827911523052
H            2.04309539572902        0.89953609741856        1.47303886099403
H            2.77256876106220       -1.38662435443740       -0.02214071341972
19
 energy: -386.001886113587 gnorm: 0.001707049236 xtb: 6.7.1 (edcfbbe)
C           -2.56814514497418       -0.40949002394561        0.20619490657479
C           -1.71877207987754       -1.24459358633552       -0.51725314391495
C           -0.41606063614188       -0.84081626427304       -0.80219341855761
C            0.06135135137683        0.40023936235557       -0.36770775491482
C           -0.80215318070705        1.23056183734913        0.35486314687242
C           -2.10595437757830        0.83191366928593        0.63905968043568
C            1.48630114541408        0.81214966998865       -0.61606555039509
C            2.41491603329241        0.45263848563293        0.54553414370317
O            2.47140703884472       -0.96090778486889        0.79782423705028
H           -3.58416784727958       -0.72151524087027        0.42755148936294
H           -2.07112572856862       -2.21208078271252       -0.86270227025066
H            0.24032938756533       -1.49372274990428       -1.37161852796371
H           -0.44804429416987        2.20036141226311        0.69484362167200
H           -2.76426196229974        1.49236741789153        1.19590222051490
H            1.86650683327379        0.33761043921654       -1.52842155996372
H            1.54715006183459        1.89734455418409       -0.75663962273218
H            3.42223398160297        0.84380725299208        0.34055949640836
H            2.05366646392145        0.90882438231471        1.47399525448799
H            2.77969295125415       -1.38478479609613       -0.01482794273721
19
 energy: -386.001892651092 gnorm: 0.000852856540 xtb: 6.7.1 (edcfbbe)
C           -2.56883516936944       -0.40902285344140        0.20470126709163
C           -1.71986431770481       -1.24411649017309       -0.51859444376615
C           -0.41655268148151       -0.84148214064600       -0.80197873930115
C            0.06146752602191        0.39874560758224       -0.36632197338011
C           -0.80122204495624        1.22895124939688        0.35736237655100
C           -2.10550016791991        0.83120643912727        0.64004300993008
C            1.48599139232249        0.81134105516354       -0.61645626664934
C            2.41559345442518        0.45436186520378        0.54515323818396
O            2.47299811257868       -0.95849661970525        0.79995278762493
H           -3.58540637083435       -0.72023095864848        0.42426809831130
H           -2.07317807003438       -2.21061108254138       -0.86548454961938
H            0.23941336754198       -1.49436780837722       -1.37168781150174
H           -0.44621318888184        2.19808438891742        0.69878047130841
H           -2.76294874924258        1.49171178233543        1.19754501777999
H            1.86544745502450        0.33477839861716       -1.52832425364142
H            1.54557636189554        1.89656872748162       -0.75995476180401
H            3.42218230543871        0.84473753476362        0.33890173685064
H            2.05448463200876        0.91149111643647        1.47250261417072
H            2.78143650522041       -1.38374293024466       -0.01150969076447
19
 energy: -386.001903109080 gnorm: 0.000973824894 xtb: 6.7.1 (edcfbbe)
C           -2.57178173796918       -0.40751201747273        0.20049389354175
C           -1.72472977765090       -1.24222912412340       -0.52434774258103
C           -0.41944611192378       -0.84330520095516       -0.80370076315645
C            0.06154457835191        0.39362554617009       -0.36323349331838
C           -0.79815109048353        1.22272076458117        0.36566585632141
C           -2.10401931975391        0.82818187617057        0.64463327590763
C            1.48541563616289        0.80672619928736       -0.61790565446683
C            2.41865965398664        0.46141838338698        0.54422504807043
O            2.47831230168919       -0.94937151240061        0.80894771663499
H           -3.59057088055942       -0.71522302474970        0.41410731430370
H           -2.08142968115488       -2.20541943968504       -0.87645607904506
H            0.23515492529386       -1.49622325876046       -1.37464687384178
H           -0.43962651513444        2.18878503429975        0.71278782731596
H           -2.75890751477611        1.48877723060298        1.20474316644797
H            1.86305251828743        0.32345905406458       -1.52730624240438
H            1.54159423590929        1.89120735975587       -0.77135871269346
H            3.42351728049385        0.85071529321823        0.33256342668242
H            2.05810416838672        0.92402531831900        1.46820154694457
H            2.78817904521179       -1.38045123514997        0.00148330497437
19
 energy: -386.001908007724 gnorm: 0.000698892380 xtb: 6.7.1 (edcfbbe)
C           -2.57354458604829       -0.40654874371337        0.19843106505069
C           -1.72816587570913       -1.24086058279743       -0.52893251160567
C           -0.42163654144054       -0.84392031100975       -0.80636582281629
C            0.06179696100296        0.39041851467184       -0.36191664375830
C           -0.79579487596653        1.21840621661785        0.37067404206773
C           -2.10254743336569        0.82611235079122        0.64793138680597
C            1.48515928558971        0.80363980308638       -0.61973435762695
C            2.41941701276349        0.46594065342723        0.54358697114366
O            2.48105387483480       -0.94322379801451        0.81710635998654
H           -3.59346955028553       -0.71232347194319        0.40980703996538
H           -2.08724243489775       -2.20187939877041       -0.88493056325521
H            0.23145550124038       -1.49627310446152       -1.37980704832833
H           -0.43479977683220        2.18197726653492        0.72186932023056
H           -2.75564968808809        1.48574982961474        1.21127850480693
H            1.86251167516959        0.31499749935588       -1.52632604667781
H            1.54006424799569        1.88713745024535       -0.78028690687947
H            3.42369974286365        0.85511134001647        0.32854498264327
H            2.05974966947152        0.93401984149732        1.46525604828039
H            2.79281536965152       -1.37857441317261        0.01270967010570
19
 energy: -386.001908007724 gnorm: 0.000698892380 xtb: 6.7.1 (edcfbbe)
C           -2.57354458604829       -0.40654874371337        0.19843106505069
C           -1.72816587570913       -1.24086058279743       -0.52893251160567
C           -0.42163654144054       -0.84392031100975       -0.80636582281629
C            0.06179696100296        0.39041851467184       -0.36191664375830
C           -0.79579487596653        1.21840621661785        0.37067404206773
C           -2.10254743336569        0.82611235079122        0.64793138680597
C            1.48515928558971        0.80363980308638       -0.61973435762695
C            2.41941701276349        0.46594065342723        0.54358697114366
O            2.48105387483480       -0.94322379801451        0.81710635998654
H           -3.59346955028553       -0.71232347194319        0.40980703996538
H           -2.08724243489775       -2.20187939877041       -0.88493056325521
H            0.23145550124038       -1.49627310446152       -1.37980704832833
H           -0.43479977683220        2.18197726653492        0.72186932023056
H           -2.75564968808809        1.48574982961474        1.21127850480693
H            1.86251167516959        0.31499749935588       -1.52632604667781
H            1.54006424799569        1.88713745024535       -0.78028690687947
H            3.42369974286365        0.85511134001647        0.32854498264327
H            2.05974966947152        0.93401984149732        1.46525604828039
H            2.79281536965152       -1.37857441317261        0.01270967010570
