      -----------------------------------------------------------      
     |                   =====================                   |     
     |                           x T B                           |     
     |                   =====================                   |     
     |                         S. Grimme                         |     
     |          Mulliken Center for Theoretical Chemistry        |     
     |                    University of Bonn                     |     
      -----------------------------------------------------------      

   * xtb version 6.7.1 (edcfbbe) compiled by 'albert@albert-system' on 2024-07-22

   xtb is free software: you can redistribute it and/or modify it under
   the terms of the GNU Lesser General Public License as published by
   the Free Software Foundation, either version 3 of the License, or
   (at your option) any later version.
   
   xtb is distributed in the hope that it will be useful,
   but WITHOUT ANY WARRANTY; without even the implied warranty of
   MERCHANTABILITY or FITNESS FOR A PARTICULAR PURPOSE.  See the
   GNU Lesser General Public License for more details.
   
   Cite this work as:
   * C. Bannwarth, E. Caldeweyher, S. Ehlert, A. Hansen, P. Pracht,
     J. Seibert, S. Spicher, S. Grimme, WIREs Comput. Mol. Sci., 2020, 11,
     e01493. DOI: 10.1002/wcms.1493
   
   for GFN2-xTB:
   * C. Bannwarth, S. Ehlert and S. Grimme., J. Chem. Theory Comput., 2019,
     15, 1652-1671. DOI: 10.1021/acs.jctc.8b01176
   for GFN1-xTB:
   * S. Grimme, C. Bannwarth, P. Shushkov, J. Chem. Theory Comput., 2017,
     13, 1989-2009. DOI: 10.1021/acs.jctc.7b00118
   for GFN0-xTB:
   * P. Pracht, E. Caldeweyher, S. Ehlert, S. Grimme, ChemRxiv, 2019, preprint.
     DOI: 10.26434/chemrxiv.8326202.v1
   for GFN-FF:
   * S. Spicher and S. Grimme, Angew. Chem. Int. Ed., 2020, 59, 15665-15673.
     DOI: 10.1002/anie.202004239
   
   for ALPB and GBSA implicit solvation:
   * S. Ehlert, M. Stahn, S. Spicher, S. Grimme, J. Chem. Theory Comput.,
     2021, 17, 4250-4261. DOI: 10.1021/acs.jctc.1c00471
   
   for ddCOSMO and CPCM-X implicit solvation:
   * M. Stahn, S. Ehlert, S. Grimme, J. Phys. Chem. A,
     2023, XX, XXXX-XXXX. DOI: 10.1021/acs.jpca.3c04382
   
   for DFT-D4:
   * E. Caldeweyher, C. Bannwarth and S. Grimme, J. Chem. Phys., 2017,
     147, 034112. DOI: 10.1063/1.4993215
   * E. Caldeweyher, S. Ehlert, A. Hansen, H. Neugebauer, S. Spicher,
     C. Bannwarth and S. Grimme, J. Chem. Phys., 2019, 150, 154122.
     DOI: 10.1063/1.5090222
   * E. Caldeweyher, J.-M. Mewes, S. Ehlert and S. Grimme, Phys. Chem. Chem. Phys.
     2020, 22, 8499-8512. DOI: 10.1039/D0CP00502A
   
   for sTDA-xTB:
   * S. Grimme and C. Bannwarth, J. Chem. Phys., 2016, 145, 054103.
     DOI: 10.1063/1.4959605
   
   in the mass-spec context:
   * V. Asgeirsson, C. Bauer and S. Grimme, Chem. Sci., 2017, 8, 4879.
     DOI: 10.1039/c7sc00601b
   * J. Koopman and S. Grimme, ACS Omega 2019, 4, 12, 15120-15133.
     DOI: 10.1021/acsomega.9b02011
   
   for metadynamics refer to:
   * S. Grimme, J. Chem. Theory Comput., 2019, 155, 2847-2862
     DOI: 10.1021/acs.jctc.9b00143
   
   for SPH calculations refer to:
   * S. Spicher and S. Grimme, J. Chem. Theory Comput., 2021, 17, 1701-1714
     DOI: 10.1021/acs.jctc.0c01306
   
   for ONIOM refer to:
   * C. Plett, A. Katbashev, S. Ehlert, S. Grimme, M. Bursch,
     Phys. Chem. Chem. Phys., 2023, 25, 17860-17868. DOI: 10.1039/D3CP02178E
   
   for DIPRO refer to:
   * J. Kohn, N. Gildemeister, S. Grimme, D. Fazzi, A. Hansen,
     J. Chem. Phys., 2023, just accepted.
   
   for PTB refer to:
   * S. Grimme, M. Mueller, A. Hansen, J. Chem. Phys., 2023, 158, 124111.
     DOI: 10.1063/5.0137838
   
   with help from (in alphabetical order)
   P. Atkinson, C. Bannwarth, F. Bohle, G. Brandenburg, E. Caldeweyher
   M. Checinski, S. Dohm, S. Ehlert, S. Ehrlich, I. Gerasimov, C. Hölzer
   A. Katbashev, J. Kohn, J. Koopman, C. Lavigne, S. Lehtola, F. März, M. Müller,
   F. Musil, H. Neugebauer, J. Pisarek, C. Plett, P. Pracht, F. Pultar,
   J. Seibert, P. Shushkov, S. Spicher, M. Stahn, M. Steiner, T. Strunk,
   J. Stückrath, T. Rose, and J. Unsleber
   
 * started run on 2025/04/11 at 11:49:00.986     
   ID    Z sym.   atoms
    1    6 C      1, 2, 4-7
    2    1 H      3, 9-21
    3    8 O      8

           -------------------------------------------------
          |                Calculation Setup                |
           -------------------------------------------------

          program call               : /srv/scratch/z5358697/.xtb/bin/xtb gas.coord --gfn2 --sp --chrg 0 --norestart --parallel 1
          hostname                   : k068
          coordinate file            : gas.coord
          omp threads                :                     1


           -------------------------------------------------
          |                 G F N 2 - x T B                 |
           -------------------------------------------------

        Reference                      10.1021/acs.jctc.8b01176
      * Hamiltonian:
        H0-scaling (s, p, d)           1.850000    2.230000    2.230000
        zeta-weighting                 0.500000
      * Dispersion:
        s8                             2.700000
        a1                             0.520000
        a2                             5.000000
        s9                             5.000000
      * Repulsion:
        kExp                           1.500000    1.000000
        rExp                           1.000000
      * Coulomb:
        alpha                          2.000000
        third order                    shell-resolved
        anisotropic                    true
        a3                             3.000000
        a5                             4.000000
        cn-shift                       1.200000
        cn-exp                         4.000000
        max-rad                        5.000000


          ...................................................
          :                      SETUP                      :
          :.................................................:
          :  # basis functions                  42          :
          :  # atomic orbitals                  42          :
          :  # shells                           28          :
          :  # electrons                        44          :
          :  max. iterations                   250          :
          :  Hamiltonian                  GFN2-xTB          :
          :  restarted?                      false          :
          :  GBSA solvation                  false          :
          :  PC potential                    false          :
          :  electronic temp.          300.0000000     K    :
          :  accuracy                    1.0000000          :
          :  -> integral cutoff          0.2500000E+02      :
          :  -> integral neglect         0.1000000E-07      :
          :  -> SCF convergence          0.1000000E-05 Eh   :
          :  -> wf. convergence          0.1000000E-03 e    :
          :  Broyden damping             0.4000000          :
          :  net charge                          0          :
          :  unpaired electrons                  0          :
          ...................................................

 iter      E             dE          RMSdq      gap      omega  full diag
   1    -24.3154133 -0.243154E+02  0.293E+00   12.18       0.0  T
   2    -24.3606850 -0.452717E-01  0.161E+00   11.86       1.0  T
   3    -24.3615584 -0.873380E-03  0.718E-01   11.97       1.0  T
   4    -24.3618889 -0.330579E-03  0.146E-01   11.97       1.0  T
   5    -24.3620131 -0.124141E-03  0.621E-02   11.99       1.0  T
   6    -24.3620142 -0.109289E-05  0.849E-03   11.99       2.6  T
   7    -24.3620144 -0.250941E-06  0.392E-03   11.99       5.6  T
   8    -24.3620145 -0.218082E-07  0.100E-03   11.99      21.7  T
   9    -24.3620145 -0.471520E-09  0.438E-04   11.99      49.8  T
  10    -24.3620145 -0.203528E-09  0.529E-05   11.99     412.5  T

   *** convergence criteria satisfied after 10 iterations ***

         #    Occupation            Energy/Eh            Energy/eV
      -------------------------------------------------------------
         1        2.0000           -0.6797867             -18.4979
       ...           ...                  ...                  ...
        16        2.0000           -0.4640944             -12.6287
        17        2.0000           -0.4525031             -12.3132
        18        2.0000           -0.4462237             -12.1424
        19        2.0000           -0.4365454             -11.8790
        20        2.0000           -0.4255846             -11.5807
        21        2.0000           -0.4194762             -11.4145
        22        2.0000           -0.4024382             -10.9509 (HOMO)
        23                          0.0382338               1.0404 (LUMO)
        24                          0.0613690               1.6699
        25                          0.0898837               2.4459
        26                          0.0947861               2.5793
        27                          0.1034106               2.8139
       ...                                ...                  ...
        42                          0.3157056               8.5908
      -------------------------------------------------------------
                  HL-Gap            0.4406719 Eh           11.9913 eV
             Fermi-level           -0.1821022 Eh           -4.9553 eV

 SCC (total)                   0 d,  0 h,  0 min,  0.015 sec
 SCC setup                      ...        0 min,  0.000 sec (  1.318%)
 Dispersion                     ...        0 min,  0.000 sec (  0.794%)
 classical contributions        ...        0 min,  0.000 sec (  0.160%)
 integral evaluation            ...        0 min,  0.001 sec ( 10.070%)
 iterations                     ...        0 min,  0.008 sec ( 53.781%)
 molecular gradient             ...        0 min,  0.005 sec ( 32.693%)
 printout                       ...        0 min,  0.000 sec (  1.089%)

         :::::::::::::::::::::::::::::::::::::::::::::::::::::
         ::                     SUMMARY                     ::
         :::::::::::::::::::::::::::::::::::::::::::::::::::::
         :: total energy             -24.053185007898 Eh    ::
         :: gradient norm              0.006420573700 Eh/a0 ::
         :: HOMO-LUMO gap             11.991293636447 eV    ::
         ::.................................................::
         :: SCC energy               -24.361949381661 Eh    ::
         :: -> isotropic ES            0.029140141606 Eh    ::
         :: -> anisotropic ES          0.006107495273 Eh    ::
         :: -> anisotropic XC          0.009715820795 Eh    ::
         :: -> dispersion             -0.013067064555 Eh    ::
         :: repulsion energy           0.308764373764 Eh    ::
         :: add. restraining           0.000000000000 Eh    ::
         :: total charge               0.000000000000 e     ::
         :::::::::::::::::::::::::::::::::::::::::::::::::::::

           -------------------------------------------------
          |                Property Printout                |
           -------------------------------------------------

    * Orbital Energies and Occupations

         #    Occupation            Energy/Eh            Energy/eV
      -------------------------------------------------------------
         1        2.0000           -0.6797867             -18.4979
       ...           ...                  ...                  ...
        10        2.0000           -0.5194578             -14.1352
        11        2.0000           -0.5040055             -13.7147
        12        2.0000           -0.4915993             -13.3771
        13        2.0000           -0.4809447             -13.0872
        14        2.0000           -0.4761845             -12.9576
        15        2.0000           -0.4648182             -12.6483
        16        2.0000           -0.4640944             -12.6287
        17        2.0000           -0.4525031             -12.3132
        18        2.0000           -0.4462237             -12.1424
        19        2.0000           -0.4365454             -11.8790
        20        2.0000           -0.4255846             -11.5807
        21        2.0000           -0.4194762             -11.4145
        22        2.0000           -0.4024382             -10.9509 (HOMO)
        23                          0.0382338               1.0404 (LUMO)
        24                          0.0613690               1.6699
        25                          0.0898837               2.4459
        26                          0.0947861               2.5793
        27                          0.1034106               2.8139
        28                          0.1287174               3.5026
        29                          0.1399343               3.8078
        30                          0.1445962               3.9347
        31                          0.1714484               4.6653
        32                          0.1786872               4.8623
        33                          0.2096594               5.7051
       ...                                ...                  ...
        42                          0.3157056               8.5908
      -------------------------------------------------------------
                  HL-Gap            0.4406719 Eh           11.9913 eV
             Fermi-level           -0.1821022 Eh           -4.9553 eV

     #   Z          covCN         q      C6AA      α(0)
     1   6 C        3.751    -0.121    22.879     6.821
     2   6 C        3.721     0.113    18.831     6.198
     3   1 H        0.924     0.039     2.469     2.457
     4   6 C        3.803    -0.080    22.028     6.682
     5   6 C        3.848    -0.008    20.694     6.471
     6   6 C        3.755    -0.104    22.535     6.769
     7   6 C        3.758    -0.108    22.614     6.780
     8   8 O        1.654    -0.449    21.833     6.308
     9   1 H        0.925     0.037     2.485     2.465
    10   1 H        0.925     0.041     2.436     2.441
    11   1 H        0.925     0.044     2.390     2.418
    12   1 H        0.924     0.035     2.510     2.478
    13   1 H        0.924     0.039     2.459     2.452
    14   1 H        0.924     0.036     2.497     2.471
    15   1 H        0.925     0.036     2.501     2.473
    16   1 H        0.925     0.026     2.645     2.543
    17   1 H        0.925     0.034     2.536     2.490
    18   1 H        0.925     0.034     2.523     2.484
    19   1 H        0.925     0.035     2.519     2.482
    20   1 H        0.925     0.034     2.532     2.488
    21   1 H        0.805     0.286     0.765     1.374

 Mol. C6AA /au·bohr⁶  :       2900.710572
 Mol. C8AA /au·bohr⁸  :      59986.758152
 Mol. α(0) /au        :         79.544813


Wiberg/Mayer (AO) data.
largest (>0.10) Wiberg bond orders for each atom

 ---------------------------------------------------------------------------
     #   Z sym  total        # sym  WBO       # sym  WBO       # sym  WBO
 ---------------------------------------------------------------------------
     1   6 C    3.996 --     2 C    1.002     9 H    0.986    11 H    0.986
                            10 H    0.980
     2   6 C    3.954 --     1 C    1.002     8 O    0.990     4 C    0.978
                             3 H    0.966
     3   1 H    0.998 --     2 C    0.966
     4   6 C    3.995 --     5 C    0.998     2 C    0.978    13 H    0.977
                            12 H    0.975
     5   6 C    3.996 --     6 C    1.010     7 C    1.007     4 C    0.998
                            14 H    0.966
     6   6 C    3.997 --     5 C    1.010    15 H    0.986    17 H    0.985
                            16 H    0.981
     7   6 C    3.996 --     5 C    1.007    19 H    0.987    20 H    0.987
                            18 H    0.986
     8   8 O    1.964 --     2 C    0.990    21 H    0.898
     9   1 H    0.999 --     1 C    0.986
    10   1 H    0.998 --     1 C    0.980
    11   1 H    0.998 --     1 C    0.986
    12   1 H    0.999 --     4 C    0.975
    13   1 H    0.998 --     4 C    0.977
    14   1 H    0.999 --     5 C    0.966
    15   1 H    0.999 --     6 C    0.986
    16   1 H    0.999 --     6 C    0.981
    17   1 H    0.999 --     6 C    0.985
    18   1 H    0.999 --     7 C    0.986
    19   1 H    0.999 --     7 C    0.987
    20   1 H    0.999 --     7 C    0.987
    21   1 H    0.918 --     8 O    0.898
 ---------------------------------------------------------------------------

Topologies differ in total number of bonds
Writing topology from bond orders to xtbtopo.mol

molecular dipole:
                 x           y           z       tot (Debye)
 q only:       -0.333       0.212      -0.448
   full:       -0.448       0.333      -0.584       2.054
molecular quadrupole (traceless):
                xx          xy          yy          xz          yz          zz
 q only:       -1.139       0.326       2.393      -3.107       1.071      -1.254
  q+dip:       -1.597      -0.061       3.247      -3.950       1.365      -1.650
   full:       -1.647       0.094       3.375      -4.017       1.480      -1.728


           -------------------------------------------------
          | TOTAL ENERGY              -24.053185007898 Eh   |
          | GRADIENT NORM               0.006420573700 Eh/α |
          | HOMO-LUMO GAP              11.991293636447 eV   |
           -------------------------------------------------

------------------------------------------------------------------------
 * finished run on 2025/04/11 at 11:49:01.030     
------------------------------------------------------------------------
 total:
 * wall-time:     0 d,  0 h,  0 min,  0.044 sec
 *  cpu-time:     0 d,  0 h,  0 min,  0.022 sec
 * ratio c/w:     0.503 speedup
 SCF:
 * wall-time:     0 d,  0 h,  0 min,  0.015 sec
 *  cpu-time:     0 d,  0 h,  0 min,  0.013 sec
 * ratio c/w:     0.891 speedup

