      -----------------------------------------------------------      
     |                   =====================                   |     
     |                           x T B                           |     
     |                   =====================                   |     
     |                         S. Grimme                         |     
     |          Mulliken Center for Theoretical Chemistry        |     
     |                    University of Bonn                     |     
      -----------------------------------------------------------      

   * xtb version 6.7.1 (edcfbbe) compiled by 'albert@albert-system' on 2024-07-22

   xtb is free software: you can redistribute it and/or modify it under
   the terms of the GNU Lesser General Public License as published by
   the Free Software Foundation, either version 3 of the License, or
   (at your option) any later version.
   
   xtb is distributed in the hope that it will be useful,
   but WITHOUT ANY WARRANTY; without even the implied warranty of
   MERCHANTABILITY or FITNESS FOR A PARTICULAR PURPOSE.  See the
   GNU Lesser General Public License for more details.
   
   Cite this work as:
   * C. Bannwarth, E. Caldeweyher, S. Ehlert, A. Hansen, P. Pracht,
     J. Seibert, S. Spicher, S. Grimme, WIREs Comput. Mol. Sci., 2020, 11,
     e01493. DOI: 10.1002/wcms.1493
   
   for GFN2-xTB:
   * C. Bannwarth, S. Ehlert and S. Grimme., J. Chem. Theory Comput., 2019,
     15, 1652-1671. DOI: 10.1021/acs.jctc.8b01176
   for GFN1-xTB:
   * S. Grimme, C. Bannwarth, P. Shushkov, J. Chem. Theory Comput., 2017,
     13, 1989-2009. DOI: 10.1021/acs.jctc.7b00118
   for GFN0-xTB:
   * P. Pracht, E. Caldeweyher, S. Ehlert, S. Grimme, ChemRxiv, 2019, preprint.
     DOI: 10.26434/chemrxiv.8326202.v1
   for GFN-FF:
   * S. Spicher and S. Grimme, Angew. Chem. Int. Ed., 2020, 59, 15665-15673.
     DOI: 10.1002/anie.202004239
   
   for ALPB and GBSA implicit solvation:
   * S. Ehlert, M. Stahn, S. Spicher, S. Grimme, J. Chem. Theory Comput.,
     2021, 17, 4250-4261. DOI: 10.1021/acs.jctc.1c00471
   
   for ddCOSMO and CPCM-X implicit solvation:
   * M. Stahn, S. Ehlert, S. Grimme, J. Phys. Chem. A,
     2023, XX, XXXX-XXXX. DOI: 10.1021/acs.jpca.3c04382
   
   for DFT-D4:
   * E. Caldeweyher, C. Bannwarth and S. Grimme, J. Chem. Phys., 2017,
     147, 034112. DOI: 10.1063/1.4993215
   * E. Caldeweyher, S. Ehlert, A. Hansen, H. Neugebauer, S. Spicher,
     C. Bannwarth and S. Grimme, J. Chem. Phys., 2019, 150, 154122.
     DOI: 10.1063/1.5090222
   * E. Caldeweyher, J.-M. Mewes, S. Ehlert and S. Grimme, Phys. Chem. Chem. Phys.
     2020, 22, 8499-8512. DOI: 10.1039/D0CP00502A
   
   for sTDA-xTB:
   * S. Grimme and C. Bannwarth, J. Chem. Phys., 2016, 145, 054103.
     DOI: 10.1063/1.4959605
   
   in the mass-spec context:
   * V. Asgeirsson, C. Bauer and S. Grimme, Chem. Sci., 2017, 8, 4879.
     DOI: 10.1039/c7sc00601b
   * J. Koopman and S. Grimme, ACS Omega 2019, 4, 12, 15120-15133.
     DOI: 10.1021/acsomega.9b02011
   
   for metadynamics refer to:
   * S. Grimme, J. Chem. Theory Comput., 2019, 155, 2847-2862
     DOI: 10.1021/acs.jctc.9b00143
   
   for SPH calculations refer to:
   * S. Spicher and S. Grimme, J. Chem. Theory Comput., 2021, 17, 1701-1714
     DOI: 10.1021/acs.jctc.0c01306
   
   for ONIOM refer to:
   * C. Plett, A. Katbashev, S. Ehlert, S. Grimme, M. Bursch,
     Phys. Chem. Chem. Phys., 2023, 25, 17860-17868. DOI: 10.1039/D3CP02178E
   
   for DIPRO refer to:
   * J. Kohn, N. Gildemeister, S. Grimme, D. Fazzi, A. Hansen,
     J. Chem. Phys., 2023, just accepted.
   
   for PTB refer to:
   * S. Grimme, M. Mueller, A. Hansen, J. Chem. Phys., 2023, 158, 124111.
     DOI: 10.1063/5.0137838
   
   with help from (in alphabetical order)
   P. Atkinson, C. Bannwarth, F. Bohle, G. Brandenburg, E. Caldeweyher
   M. Checinski, S. Dohm, S. Ehlert, S. Ehrlich, I. Gerasimov, C. Hölzer
   A. Katbashev, J. Kohn, J. Koopman, C. Lavigne, S. Lehtola, F. März, M. Müller,
   F. Musil, H. Neugebauer, J. Pisarek, C. Plett, P. Pracht, F. Pultar,
   J. Seibert, P. Shushkov, S. Spicher, M. Stahn, M. Steiner, T. Strunk,
   J. Stückrath, T. Rose, and J. Unsleber
   
 * started run on 2025/04/11 at 11:53:26.611     
   ID    Z sym.   atoms
    1    6 C      1-5
    2    1 H      6-17

           -------------------------------------------------
          |                Calculation Setup                |
           -------------------------------------------------

          program call               : /srv/scratch/z5358697/.xtb/bin/xtb xtb_rrho.coord --gfn2 --ohess vtight --chrg 0 --enso --norestart -I rrho-xcontrol-inp --parallel 1 --alpb water
          hostname                   : k062
          coordinate file            : xtb_rrho.coord
          omp threads                :                     1


           -------------------------------------------------
          |                 G F N 2 - x T B                 |
           -------------------------------------------------

        Reference                      10.1021/acs.jctc.8b01176
      * Hamiltonian:
        H0-scaling (s, p, d)           1.850000    2.230000    2.230000
        zeta-weighting                 0.500000
      * Dispersion:
        s8                             2.700000
        a1                             0.520000
        a2                             5.000000
        s9                             5.000000
      * Repulsion:
        kExp                           1.500000    1.000000
        rExp                           1.000000
      * Coulomb:
        alpha                          2.000000
        third order                    shell-resolved
        anisotropic                    true
        a3                             3.000000
        a5                             4.000000
        cn-shift                       1.200000
        cn-exp                         4.000000
        max-rad                        5.000000

      * Solvation model:               ALPB
        Solvent                        water
        Parameter file                 internal GFN2-xTB/ALPB
        Dielectric constant                8.0200E+01
        Reference state                gsolv [1 M gas/solution]
        Free energy shift                  1.0808E-03 Eh       6.7819E-01 kcal/mol
        Temperature                        2.9815E+02 K
        Density                            1.0000E+00 kg/L
        Solvent mass                       1.8000E+01 g/mol
        Interaction kernel             P16
        Born radius scaling (c1)           1.4744E+00
        Born radii integrator          GBOBC
        Born offset                        0.0000E+00 a0       0.0000E+00 AA
        H-bond correction              true
        Ion screening                  false
        Surface tension                    1.0000E-05 Eh       1.5569E+01 dyn/cm
        Grid points                               974 per atom

          ...................................................
          :                      SETUP                      :
          :.................................................:
          :  # basis functions                  32          :
          :  # atomic orbitals                  32          :
          :  # shells                           22          :
          :  # electrons                        32          :
          :  max. iterations                   250          :
          :  Hamiltonian                  GFN2-xTB          :
          :  restarted?                      false          :
          :  GBSA solvation                   true          :
          :  PC potential                    false          :
          :  electronic temp.          300.0000000     K    :
          :  accuracy                    1.0000000          :
          :  -> integral cutoff          0.2500000E+02      :
          :  -> integral neglect         0.1000000E-07      :
          :  -> SCF convergence          0.1000000E-05 Eh   :
          :  -> wf. convergence          0.1000000E-03 e    :
          :  Broyden damping             0.4000000          :
          :  net charge                          0          :
          :  unpaired electrons                  0          :
          ...................................................

 iter      E             dE          RMSdq      gap      omega  full diag
   1    -17.0389804 -0.170390E+02  0.238E+00   13.53       0.0  T
   2    -17.0699176 -0.309373E-01  0.125E+00   13.35       1.0  T
   3    -17.0707060 -0.788325E-03  0.608E-01   13.31       1.0  T
   4    -17.0708226 -0.116647E-03  0.817E-02   13.31       1.0  T
   5    -17.0708243 -0.168070E-05  0.384E-02   13.31       1.0  T
   6    -17.0708254 -0.113815E-05  0.216E-03   13.31      11.2  T
   7    -17.0708254 -0.188242E-07  0.106E-03   13.31      22.8  T
   8    -17.0708254 -0.560263E-09  0.277E-04   13.31      87.7  T
   9    -17.0708254 -0.150482E-09  0.117E-04   13.31     206.7  T

   *** convergence criteria satisfied after 9 iterations ***

         #    Occupation            Energy/Eh            Energy/eV
      -------------------------------------------------------------
         1        2.0000           -0.6174602             -16.8019
       ...           ...                  ...                  ...
        10        2.0000           -0.4653736             -12.6635
        11        2.0000           -0.4571194             -12.4389
        12        2.0000           -0.4479892             -12.1904
        13        2.0000           -0.4366680             -11.8823
        14        2.0000           -0.4220215             -11.4838
        15        2.0000           -0.4183529             -11.3840
        16        2.0000           -0.4133220             -11.2471 (HOMO)
        17                          0.0758868               2.0650 (LUMO)
        18                          0.0986524               2.6845
        19                          0.1062798               2.8920
        20                          0.1299162               3.5352
        21                          0.1410419               3.8379
       ...                                ...                  ...
        32                          0.3066256               8.3437
      -------------------------------------------------------------
                  HL-Gap            0.4892088 Eh           13.3120 eV
             Fermi-level           -0.1687176 Eh           -4.5910 eV

 SCC (total)                   0 d,  0 h,  0 min,  0.021 sec
 SCC setup                      ...        0 min,  0.001 sec (  4.946%)
 Dispersion                     ...        0 min,  0.000 sec (  0.387%)
 classical contributions        ...        0 min,  0.000 sec (  0.098%)
 integral evaluation            ...        0 min,  0.001 sec (  4.602%)
 iterations                     ...        0 min,  0.016 sec ( 76.838%)
 molecular gradient             ...        0 min,  0.003 sec ( 12.542%)
 printout                       ...        0 min,  0.000 sec (  0.522%)

         :::::::::::::::::::::::::::::::::::::::::::::::::::::
         ::                     SUMMARY                     ::
         :::::::::::::::::::::::::::::::::::::::::::::::::::::
         :: total energy             -16.825034316039 Eh    ::
         :: total w/o Gsasa/hb       -16.824979155451 Eh    ::
         :: gradient norm              0.018072709666 Eh/a0 ::
         :: HOMO-LUMO gap             13.312049545851 eV    ::
         ::.................................................::
         :: SCC energy               -17.070801470397 Eh    ::
         :: -> isotropic ES            0.003801286081 Eh    ::
         :: -> anisotropic ES          0.006171282078 Eh    ::
         :: -> anisotropic XC          0.011048668129 Eh    ::
         :: -> dispersion             -0.008877629586 Eh    ::
         :: -> Gsolv                  -0.000198889501 Eh    ::
         ::    -> Gelec               -0.000143728912 Eh    ::
         ::    -> Gsasa               -0.000771652619 Eh    ::
         ::    -> Ghb                 -0.000364267668 Eh    ::
         ::    -> Gshift               0.001080759698 Eh    ::
         :: repulsion energy           0.245767154358 Eh    ::
         :: add. restraining           0.000000000000 Eh    ::
         :: total charge               0.000000000000 e     ::
         :::::::::::::::::::::::::::::::::::::::::::::::::::::

      ----------------------------------------------------------- 
     |                   =====================                   |
     |                        A N C O P T                        |
     |                   =====================                   |
     |               Approximate Normal Coordinate               |
     |                Rational Function Optimizer                |
      ----------------------------------------------------------- 
      ----------------------------------------------------------- 
     |                   =====================                   |
     |                        A N C O P T                        |
     |                   =====================                   |
     |               Approximate Normal Coordinate               |
     |                Rational Function Optimizer                |
      ----------------------------------------------------------- 

          ...................................................
          :                      SETUP                      :
          :.................................................:
          :   optimization level         verytight          :
          :   max. optcycles                   340          :
          :   ANC micro-cycles                  20          :
          :   degrees of freedom                45          :
          :.................................................:
          :   RF solver                   davidson          :
          :   write xtbopt.log                true          :
          :   linear?                        false          :
          :   energy convergence         0.1000000E-06 Eh   :
          :   grad. convergence          0.2000000E-03 Eh/α :
          :   maxmium RF displ.          1.0000000          :
          :   Hlow (freq-cutoff)         0.1000000E-01      :
          :   Hmax (freq-cutoff)         5.0000000          :
          :   S6 in model hess.         20.0000000          :
          ...................................................

generating ANC from exact Hessian ...
Using Lindh-Hessian (1995)
 Shifting diagonal of input Hessian by   7.150097915016810E-003
 Lowest  eigenvalues of input Hessian
    0.000000    0.000000    0.000000    0.000000    0.000000    0.000000
    0.010000    0.010363    0.012908    0.017511    0.018351    0.021182
    0.025564    0.046493    0.049030    0.056208    0.057309    0.058032
 Highest eigenvalues
    1.128431    1.129745    1.173990    1.192939    1.245294    1.266885
 

........................................................................
.............................. CYCLE    1 ..............................
........................................................................

 iter      E             dE          RMSdq      gap      omega  full diag
   1    -17.0708254 -0.170708E+02  0.162E-05   13.31       0.0  T
   2    -17.0708254 -0.486722E-12  0.103E-05   13.31    2358.4  T
   3    -17.0708254 -0.639488E-13  0.408E-06   13.31    5941.7  T
     SCC iter.                  ...        0 min,  0.001 sec
     gradient                   ...        0 min,  0.003 sec
 * total energy  :   -16.8250343 Eh     change       -0.1770672E-10 Eh
   gradient norm :     0.0180727 Eh/α   predicted     0.0000000E+00 (-100.00%)
   displ. norm   :     0.1139761 α      lambda       -0.1051254E-02
   maximum displ.:     0.0623975 α      in ANC's #6, #16, #13, ...

........................................................................
.............................. CYCLE    2 ..............................
........................................................................

 iter      E             dE          RMSdq      gap      omega  full diag
   1    -17.0799144 -0.170799E+02  0.103E-01   13.57       0.0  T
   2    -17.0799180 -0.359984E-05  0.587E-02   13.58       1.0  T
   3    -17.0799182 -0.270426E-06  0.655E-03   13.58       3.7  T
   4    -17.0799183 -0.379376E-07  0.175E-03   13.58      13.9  T
   5    -17.0799183 -0.122429E-08  0.852E-04   13.58      28.5  T
   6    -17.0799183 -0.881084E-09  0.164E-04   13.58     148.3  T
     SCC iter.                  ...        0 min,  0.002 sec
     gradient                   ...        0 min,  0.003 sec
 * total energy  :   -16.8256489 Eh     change       -0.6146113E-03 Eh
   gradient norm :     0.0061254 Eh/α   predicted    -0.5324535E-03 ( -13.37%)
   displ. norm   :     0.0493570 α      lambda       -0.1054315E-03
   maximum displ.:     0.0334609 α      in ANC's #6, #2, #1, ...

........................................................................
.............................. CYCLE    3 ..............................
........................................................................

 iter      E             dE          RMSdq      gap      omega  full diag
   1    -17.0829746 -0.170830E+02  0.313E-02   13.59       0.0  T
   2    -17.0829754 -0.756433E-06  0.176E-02   13.59       1.4  T
   3    -17.0829754 -0.303447E-07  0.321E-03   13.59       7.6  T
   4    -17.0829754 -0.619470E-08  0.586E-04   13.59      41.4  T
   5    -17.0829754 -0.176207E-09  0.297E-04   13.59      81.6  T
     SCC iter.                  ...        0 min,  0.001 sec
     gradient                   ...        0 min,  0.003 sec
 * total energy  :   -16.8257114 Eh     change       -0.6245511E-04 Eh
   gradient norm :     0.0015752 Eh/α   predicted    -0.5284421E-04 ( -15.39%)
   displ. norm   :     0.0718673 α      lambda       -0.2784208E-04
   maximum displ.:     0.0486505 α      in ANC's #6, #2, #1, ...

........................................................................
.............................. CYCLE    4 ..............................
........................................................................

 iter      E             dE          RMSdq      gap      omega  full diag
   1    -17.0836015 -0.170836E+02  0.192E-02   13.58       0.0  T
   2    -17.0836016 -0.146149E-06  0.113E-02   13.58       2.1  T
   3    -17.0836016 -0.626404E-08  0.124E-03   13.58      19.6  T
   4    -17.0836016 -0.217297E-08  0.311E-04   13.58      77.9  T
   5    -17.0836016 -0.132808E-09  0.167E-04   13.58     145.1  T
     SCC iter.                  ...        0 min,  0.001 sec
     gradient                   ...        0 min,  0.003 sec
 * total energy  :   -16.8257394 Eh     change       -0.2798417E-04 Eh
   gradient norm :     0.0020922 Eh/α   predicted    -0.1395475E-04 ( -50.13%)
   displ. norm   :     0.0552054 α      lambda       -0.2092518E-04
   maximum displ.:     0.0362075 α      in ANC's #2, #6, #1, ...

........................................................................
.............................. CYCLE    5 ..............................
........................................................................

 iter      E             dE          RMSdq      gap      omega  full diag
   1    -17.0830415 -0.170830E+02  0.142E-02   13.57       0.0  T
   2    -17.0830415 -0.220033E-07  0.843E-03   13.56       2.9  T
   3    -17.0830416 -0.391472E-08  0.501E-04   13.56      48.4  T
   4    -17.0830416 -0.595278E-09  0.249E-04   13.56      97.4  T
     SCC iter.                  ...        0 min,  0.001 sec
     gradient                   ...        0 min,  0.003 sec
 * total energy  :   -16.8257554 Eh     change       -0.1606645E-04 Eh
   gradient norm :     0.0015738 Eh/α   predicted    -0.1049534E-04 ( -34.68%)
   displ. norm   :     0.0915299 α      lambda       -0.1403476E-04
   maximum displ.:     0.0636512 α      in ANC's #2, #6, #1, ...

........................................................................
.............................. CYCLE    6 ..............................
........................................................................

 iter      E             dE          RMSdq      gap      omega  full diag
   1    -17.0823631 -0.170824E+02  0.226E-02   13.55       0.0  T
   2    -17.0823631 -0.710377E-07  0.134E-02   13.55       1.8  T
   3    -17.0823631 -0.856810E-08  0.795E-04   13.55      30.5  T
   4    -17.0823631 -0.144886E-08  0.353E-04   13.55      68.6  T
     SCC iter.                  ...        0 min,  0.001 sec
     gradient                   ...        0 min,  0.003 sec
 * total energy  :   -16.8257650 Eh     change       -0.9565025E-05 Eh
   gradient norm :     0.0005956 Eh/α   predicted    -0.7044917E-05 ( -26.35%)
   displ. norm   :     0.0124979 α      lambda       -0.2106170E-05
   maximum displ.:     0.0076643 α      in ANC's #2, #6, #5, ...

........................................................................
.............................. CYCLE    7 ..............................
........................................................................

 iter      E             dE          RMSdq      gap      omega  full diag
   1    -17.0827075 -0.170827E+02  0.357E-03   13.56       0.0  T
   2    -17.0827075 -0.306109E-08  0.210E-03   13.56      11.6  T
   3    -17.0827075 -0.554749E-09  0.202E-04   13.56     120.0  T
   4    -17.0827075 -0.659810E-10  0.930E-05   13.56     260.9  T
     SCC iter.                  ...        0 min,  0.001 sec
     gradient                   ...        0 min,  0.003 sec
 * total energy  :   -16.8257672 Eh     change       -0.2221618E-05 Eh
   gradient norm :     0.0001699 Eh/α   predicted    -0.1054809E-05 ( -52.52%)
   displ. norm   :     0.0187114 α      lambda       -0.1382828E-05
   maximum displ.:     0.0111124 α      in ANC's #2, #5, #1, ...

........................................................................
.............................. CYCLE    8 ..............................
........................................................................

 iter      E             dE          RMSdq      gap      omega  full diag
   1    -17.0828037 -0.170828E+02  0.489E-03   13.56       0.0  T
   2    -17.0828037 -0.147566E-08  0.292E-03   13.56       8.3  T
   3    -17.0828037 -0.386617E-09  0.157E-04   13.56     154.7  T
   4    -17.0828037 -0.106919E-09  0.800E-05   13.56     303.0  T
     SCC iter.                  ...        0 min,  0.001 sec
     gradient                   ...        0 min,  0.003 sec
 * total energy  :   -16.8257686 Eh     change       -0.1425818E-05 Eh
   gradient norm :     0.0002118 Eh/α   predicted    -0.6917633E-06 ( -51.48%)
   displ. norm   :     0.0204441 α      lambda       -0.8415742E-06
   maximum displ.:     0.0131470 α      in ANC's #2, #1, #3, ...

........................................................................
.............................. CYCLE    9 ..............................
........................................................................

 iter      E             dE          RMSdq      gap      omega  full diag
   1    -17.0827880 -0.170828E+02  0.463E-03   13.56       0.0  T
   2    -17.0827880 -0.636920E-09  0.278E-03   13.56       8.7  T
   3    -17.0827880 -0.226684E-09  0.958E-05   13.56     253.1  T
   4    -17.0827880 -0.314344E-10  0.517E-05   13.56     469.4  T
     SCC iter.                  ...        0 min,  0.001 sec
     gradient                   ...        0 min,  0.003 sec
 * total energy  :   -16.8257696 Eh     change       -0.9100734E-06 Eh
   gradient norm :     0.0002143 Eh/α   predicted    -0.4209446E-06 ( -53.75%)
   displ. norm   :     0.0225586 α      lambda       -0.6048044E-06
   maximum displ.:     0.0147035 α      in ANC's #2, #1, #3, ...

........................................................................
.............................. CYCLE   10 ..............................
........................................................................

 iter      E             dE          RMSdq      gap      omega  full diag
   1    -17.0827475 -0.170827E+02  0.544E-03   13.55       0.0  T
   2    -17.0827475 -0.897082E-09  0.326E-03   13.55       7.4  T
   3    -17.0827475 -0.334676E-09  0.116E-04   13.55     209.0  T
   4    -17.0827475 -0.279066E-10  0.651E-05   13.55     372.8  T
     SCC iter.                  ...        0 min,  0.001 sec
     gradient                   ...        0 min,  0.003 sec
 * total energy  :   -16.8257701 Eh     change       -0.5493312E-06 Eh
   gradient norm :     0.0000911 Eh/α   predicted    -0.3017353E-06 ( -45.07%)
   displ. norm   :     0.0096744 α      lambda       -0.1316309E-06
   maximum displ.:     0.0064784 α      in ANC's #2, #3, #1, ...

........................................................................
.............................. CYCLE   11 ..............................
........................................................................

 iter      E             dE          RMSdq      gap      omega  full diag
   1    -17.0827265 -0.170827E+02  0.245E-03   13.55       0.0  T
   2    -17.0827265 -0.436316E-09  0.146E-03   13.55      16.6  T
   3    -17.0827265 -0.549747E-10  0.885E-05   13.55     274.1  T
   4    -17.0827265 -0.485194E-10  0.395E-05   13.55     614.4  T
     SCC iter.                  ...        0 min,  0.001 sec
     gradient                   ...        0 min,  0.003 sec
 * total energy  :   -16.8257702 Eh     change       -0.8563602E-07 Eh
   gradient norm :     0.0000626 Eh/α   predicted    -0.6542199E-07 ( -23.60%)
   displ. norm   :     0.0016143 α      lambda       -0.2301778E-07
   maximum displ.:     0.0009264 α      in ANC's #2, #6, #5, ...

   *** GEOMETRY OPTIMIZATION CONVERGED AFTER 11 ITERATIONS ***

------------------------------------------------------------------------
 total energy gain   :        -0.0007359 Eh       -0.4618 kcal/mol
 total RMSD          :         0.0880014 a0        0.0466 Å
 total power (kW/mol):        -0.1756398 (step)  -25.2284 (real)
------------------------------------------------------------------------

 ANCopt (total)                0 d,  0 h,  0 min,  0.077 sec
 optimizer setup                ...        0 min,  0.000 sec (  0.440%)
 model hessian                  ...        0 min,  0.007 sec (  8.813%)
 ANC generation                 ...        0 min,  0.000 sec (  0.508%)
 coordinate transformation      ...        0 min,  0.000 sec (  0.068%)
 single point calculation       ...        0 min,  0.062 sec ( 80.432%)
 optimization log               ...        0 min,  0.006 sec (  7.653%)
 hessian update                 ...        0 min,  0.000 sec (  0.076%)
 rational function              ...        0 min,  0.001 sec (  1.413%)

================
 final structure:
================
$coord
        3.14203941910426       -1.46387662853860        0.93194353562035      C
        2.57503372705837        1.04048987900053       -0.37227710602571      C
       -0.05611701071250        1.17257102446393       -1.56494171380620      C
       -2.23863497375620        1.04221109983928        0.34381021048538      C
       -3.40500815567718       -1.58506577009643        0.56355062112268      C
        2.86364439530074       -3.03139123941440       -0.36851803521611      H
        1.92423066777972       -1.73481416890275        2.56280922728957      H
        5.09262684372392       -1.49928527769562        1.58004675594773      H
        2.77546083684794        2.57868498378875        0.99072546115984      H
        3.97406770605030        1.34636813097330       -1.86061386613652      H
       -0.25575314384279       -0.35633063358157       -2.93621188442969      H
       -0.17721737561333        2.95067888102565       -2.60665476116063      H
       -1.56754958984993        1.65676545978108        2.19554210784012      H
       -3.72267140986841        2.35586239399177       -0.23278198095411      H
       -4.18809987545029       -2.17000837242365       -1.24528559701131      H
       -4.92329025366557       -1.57715277435751        1.94981787886836      H
       -2.00896908773950       -2.97443119500346        1.14020212861387      H
$end
 
 Bond Distances (Angstroems)
 ---------------------------
C1-C2=1.5240         C1-H6=1.0878         C1-H7=1.0866         C1-H8=1.0879         C2-C1=1.5240         C2-C3=1.5303         
C2-H9=1.0927         C2-H10=1.0930        C3-C2=1.5303         C3-C4=1.5359         C3-H11=1.0919        C3-H12=1.0924        
C4-C3=1.5359         C4-C5=1.5256         C4-H13=1.0918        C4-H14=1.0923        C5-C4=1.5256         C5-H15=1.0880        
C5-H16=1.0880        C5-H17=1.0860        H6-C1=1.0878         H7-C1=1.0866         H8-C1=1.0879         H9-C2=1.0927         
H10-C2=1.0930        H11-C3=1.0919        H12-C3=1.0924        H13-C4=1.0918        H14-C4=1.0923        H15-C5=1.0880        
H16-C5=1.0880        H17-C5=1.0860        
 C  H  Rav=1.0899 sigma=0.0026  Rmin=1.0860  Rmax=1.0930    12
 C  C  Rav=1.5289 sigma=0.0046  Rmin=1.5240  Rmax=1.5359     4
 
 selected bond angles (degree)
 --------------------
H6-C1-C2=110.48                H7-C1-C2=110.96                H7-C1-H6=108.76                H8-C1-C2=110.15                
H8-C1-H6=108.35                H8-C1-H7=108.06                C3-C2-C1=113.93                H9-C2-C1=109.25                
H9-C2-C3=109.06                H10-C2-C1=108.77               H10-C2-C3=108.20               H10-C2-H9=107.43               
C4-C3-C2=114.26                H11-C3-C2=109.16               H11-C3-C4=109.33               H12-C3-C2=107.51               
H12-C3-C4=109.05               H12-C3-H11=107.29              C5-C4-C3=113.28                H13-C4-C3=109.41               
H13-C4-C5=109.55               H14-C4-C3=109.17               H14-C4-C5=108.08               H14-C4-H13=107.16              
H15-C5-C4=110.26               H16-C5-C4=110.28               H16-C5-H15=108.24              H17-C5-C4=111.29               
H17-C5-H15=108.28              H17-C5-H16=108.39              
 
 selected dihedral angles (degree)
 ---------------------------------
C3-C2-C1-H6= 54.99            C3-C2-C1-H7=294.29            C3-C2-C1-H8=174.67            H9-C2-C1-H6=177.22            
H9-C2-C1-H7= 56.52            H9-C2-C1-H8=296.90            H10-C2-C1-H6=294.21           H10-C2-C1-H7=173.51           
H10-C2-C1-H8= 53.89           C4-C3-C2-C1= 64.75            C4-C3-C2-H9=302.41            C4-C3-C2-H10=185.84           
H11-C3-C2-C1=301.99           H11-C3-C2-H9=179.65           H11-C3-C2-H10= 63.09          H12-C3-C2-C1=185.92           
H12-C3-C2-H9= 63.58           H12-C3-C2-H10=307.02          C5-C4-C3-C2=260.89            C5-C4-C3-H11= 23.55           
C5-C4-C3-H12=140.57           H13-C4-C3-C2= 23.43           H13-C4-C3-H11=146.09          H13-C4-C3-H12=263.11          
H14-C4-C3-C2=140.40           H14-C4-C3-H11=263.06          H14-C4-C3-H12= 20.08          H15-C5-C4-C3=298.89           
H15-C5-C4-H13=176.43          H15-C5-C4-H14= 59.99          H16-C5-C4-C3=179.40           H16-C5-C4-H13= 56.95          
H16-C5-C4-H14=300.51          H17-C5-C4-C3= 59.07           H17-C5-C4-H13=296.61          H17-C5-C4-H14=180.17          
           -------------------------------------------------
          |                Final Singlepoint                |
           -------------------------------------------------

          ...................................................
          :                      SETUP                      :
          :.................................................:
          :  # basis functions                  32          :
          :  # atomic orbitals                  32          :
          :  # shells                           22          :
          :  # electrons                        32          :
          :  max. iterations                   250          :
          :  Hamiltonian                  GFN2-xTB          :
          :  restarted?                      false          :
          :  GBSA solvation                   true          :
          :  PC potential                    false          :
          :  electronic temp.          300.0000000     K    :
          :  accuracy                    1.0000000          :
          :  -> integral cutoff          0.2500000E+02      :
          :  -> integral neglect         0.1000000E-07      :
          :  -> SCF convergence          0.1000000E-05 Eh   :
          :  -> wf. convergence          0.1000000E-03 e    :
          :  Broyden damping             0.4000000          :
          :  net charge                          0          :
          :  unpaired electrons                  0          :
          ...................................................

 iter      E             dE          RMSdq      gap      omega  full diag
   1    -17.0827265 -0.170827E+02  0.820E-06   13.55       0.0  T
   2    -17.0827265 -0.817124E-13  0.502E-06   13.55    4828.3  T
   3    -17.0827265 -0.177636E-13  0.132E-06   13.55   18428.9  T

   *** convergence criteria satisfied after 3 iterations ***

         #    Occupation            Energy/Eh            Energy/eV
      -------------------------------------------------------------
         1        2.0000           -0.6187538             -16.8371
       ...           ...                  ...                  ...
        10        2.0000           -0.4655887             -12.6693
        11        2.0000           -0.4560226             -12.4090
        12        2.0000           -0.4479791             -12.1901
        13        2.0000           -0.4367582             -11.8848
        14        2.0000           -0.4223260             -11.4921
        15        2.0000           -0.4186121             -11.3910
        16        2.0000           -0.4130140             -11.2387 (HOMO)
        17                          0.0850398               2.3141 (LUMO)
        18                          0.1058988               2.8817
        19                          0.1141778               3.1069
        20                          0.1389948               3.7822
        21                          0.1465343               3.9874
       ...                                ...                  ...
        32                          0.3205122               8.7216
      -------------------------------------------------------------
                  HL-Gap            0.4980538 Eh           13.5527 eV
             Fermi-level           -0.1639871 Eh           -4.4623 eV

 SCC (total)                   0 d,  0 h,  0 min,  0.007 sec
 SCC setup                      ...        0 min,  0.001 sec ( 16.738%)
 Dispersion                     ...        0 min,  0.000 sec (  0.884%)
 classical contributions        ...        0 min,  0.000 sec (  0.276%)
 integral evaluation            ...        0 min,  0.001 sec ( 16.629%)
 iterations                     ...        0 min,  0.001 sec ( 13.773%)
 molecular gradient             ...        0 min,  0.004 sec ( 49.454%)
 printout                       ...        0 min,  0.000 sec (  1.930%)

         :::::::::::::::::::::::::::::::::::::::::::::::::::::
         ::                     SUMMARY                     ::
         :::::::::::::::::::::::::::::::::::::::::::::::::::::
         :: total energy             -16.825770190546 Eh    ::
         :: total w/o Gsasa/hb       -16.825688297604 Eh    ::
         :: gradient norm              0.000062565307 Eh/a0 ::
         :: HOMO-LUMO gap             13.552734705793 eV    ::
         ::.................................................::
         :: SCC energy               -17.082703304415 Eh    ::
         :: -> isotropic ES            0.004017161347 Eh    ::
         :: -> anisotropic ES          0.005753918041 Eh    ::
         :: -> anisotropic XC          0.010842433909 Eh    ::
         :: -> dispersion             -0.008882405180 Eh    ::
         :: -> Gsolv                  -0.000224873272 Eh    ::
         ::    -> Gelec               -0.000142980330 Eh    ::
         ::    -> Gsasa               -0.000777670452 Eh    ::
         ::    -> Ghb                 -0.000384982188 Eh    ::
         ::    -> Gshift               0.001080759698 Eh    ::
         :: repulsion energy           0.256933113868 Eh    ::
         :: add. restraining           0.000000000000 Eh    ::
         :: total charge              -0.000000000000 e     ::
         :::::::::::::::::::::::::::::::::::::::::::::::::::::

           ------------------------------------------------- 
          |                Numerical Hessian                |
           ------------------------------------------------- 
step length          :   0.00500
SCC accuracy         :   0.30000
Hessian scale factor :   1.00000
frozen atoms in %    :   0.00000    0
RMS gradient         :   0.00006
estimated CPU  time      0.01 min
estimated wall time      0.01 min

writing file <hessian>.

 projected vibrational frequencies (cm⁻¹)
eigval :       -0.00    -0.00    -0.00     0.00     0.00     0.00
eigval :       89.06   121.78   207.39   258.15   297.07   368.49
eigval :      451.36   782.82   808.69   870.23   902.97   954.98
eigval :     1025.17  1053.66  1078.12  1139.86  1152.32  1173.14
eigval :     1235.72  1270.44  1275.64  1338.55  1353.71  1363.54
eigval :     1409.70  1413.29  1484.16  1490.22  1497.05  1498.29
eigval :     1504.39  1509.03  1515.26  2951.74  2953.91  2962.78
eigval :     2971.97  2981.39  2982.12  3021.01  3023.01  3028.21
eigval :     3029.13  3044.46  3053.43
           -------------------------------------------------
          |                Property Printout                |
           -------------------------------------------------

    * Orbital Energies and Occupations

         #    Occupation            Energy/Eh            Energy/eV
      -------------------------------------------------------------
         1        2.0000           -0.6187538             -16.8371
       ...           ...                  ...                  ...
         4        2.0000           -0.5603498             -15.2479
         5        2.0000           -0.5465538             -14.8725
         6        2.0000           -0.5112252             -13.9111
         7        2.0000           -0.5008593             -13.6291
         8        2.0000           -0.4933150             -13.4238
         9        2.0000           -0.4759766             -12.9520
        10        2.0000           -0.4655887             -12.6693
        11        2.0000           -0.4560226             -12.4090
        12        2.0000           -0.4479791             -12.1901
        13        2.0000           -0.4367582             -11.8848
        14        2.0000           -0.4223260             -11.4921
        15        2.0000           -0.4186121             -11.3910
        16        2.0000           -0.4130140             -11.2387 (HOMO)
        17                          0.0850398               2.3141 (LUMO)
        18                          0.1058988               2.8817
        19                          0.1141778               3.1069
        20                          0.1389948               3.7822
        21                          0.1465343               3.9874
        22                          0.1507435               4.1019
        23                          0.1591431               4.3305
        24                          0.1860974               5.0640
        25                          0.1908431               5.1931
        26                          0.2208328               6.0092
        27                          0.2292479               6.2382
       ...                                ...                  ...
        32                          0.3205122               8.7216
      -------------------------------------------------------------
                  HL-Gap            0.4980538 Eh           13.5527 eV
             Fermi-level           -0.1639871 Eh           -4.4623 eV

     #   Z          covCN         q      C6AA      α(0)
     1   6 C        3.751    -0.108    22.618     6.782
     2   6 C        3.799    -0.057    21.592     6.616
     3   6 C        3.800    -0.065    21.742     6.639
     4   6 C        3.799    -0.057    21.610     6.619
     5   6 C        3.751    -0.109    22.652     6.787
     6   1 H        0.925     0.036     2.505     2.475
     7   1 H        0.925     0.039     2.465     2.455
     8   1 H        0.925     0.033     2.547     2.496
     9   1 H        0.924     0.029     2.600     2.522
    10   1 H        0.924     0.028     2.615     2.529
    11   1 H        0.924     0.037     2.492     2.469
    12   1 H        0.924     0.027     2.626     2.534
    13   1 H        0.924     0.034     2.535     2.490
    14   1 H        0.924     0.027     2.629     2.536
    15   1 H        0.925     0.033     2.542     2.493
    16   1 H        0.925     0.032     2.554     2.499
    17   1 H        0.925     0.041     2.436     2.441

 Mol. C6AA /au·bohr⁶  :       1810.605326
 Mol. C8AA /au·bohr⁸  :      37065.526191
 Mol. α(0) /au        :         63.382028


Wiberg/Mayer (AO) data.
largest (>0.10) Wiberg bond orders for each atom

 ---------------------------------------------------------------------------
     #   Z sym  total        # sym  WBO       # sym  WBO       # sym  WBO
 ---------------------------------------------------------------------------
     1   6 C    3.997 --     2 C    1.020     6 H    0.987     8 H    0.987
                             7 H    0.985
     2   6 C    3.998 --     1 C    1.020     3 C    1.009    10 H    0.979
                             9 H    0.978
     3   6 C    3.997 --     2 C    1.009     4 C    1.004    12 H    0.980
                            11 H    0.977
     4   6 C    3.997 --     5 C    1.021     3 C    1.004    14 H    0.981
                            13 H    0.977
     5   6 C    3.997 --     4 C    1.021    15 H    0.988    16 H    0.987
                            17 H    0.985
     6   1 H    0.999 --     1 C    0.987
     7   1 H    0.998 --     1 C    0.985
     8   1 H    0.999 --     1 C    0.987
     9   1 H    0.999 --     2 C    0.978
    10   1 H    0.999 --     2 C    0.979
    11   1 H    0.999 --     3 C    0.977
    12   1 H    0.999 --     3 C    0.980
    13   1 H    0.999 --     4 C    0.977
    14   1 H    0.999 --     4 C    0.981
    15   1 H    0.999 --     5 C    0.988
    16   1 H    0.999 --     5 C    0.987
    17   1 H    0.998 --     5 C    0.985
 ---------------------------------------------------------------------------

Topologies differ in total number of bonds
Writing topology from bond orders to xtbtopo.mol

molecular dipole:
                 x           y           z       tot (Debye)
 q only:        0.009      -0.034       0.013
   full:        0.009      -0.023       0.008       0.066
molecular quadrupole (traceless):
                xx          xy          yy          xz          yz          zz
 q only:       -0.142       0.030       0.123      -0.009      -0.080       0.019
  q+dip:       -0.333      -0.180      -0.229       0.059       0.500       0.562
   full:       -0.176      -0.075      -0.101       0.011       0.211       0.277

           -------------------------------------------------
          |                Geometry Summary                 |
           -------------------------------------------------

      molecular mass/u    :       72.1489685
   center of mass at/Å    :       -0.0000533       0.0000266       0.0000171
  moments of inertia/u·Å² :        0.6765228E+02   0.1606169E+03   0.2001183E+03
rotational constants/cm⁻¹ :        0.2491805E+00   0.1049555E+00   0.8423834E-01

 * 16 selected distances

     #   Z          #   Z                                           value/Å
     1   6 C        2   6 C                                       1.5240249
     2   6 C        3   6 C                                       1.5303060
     3   6 C        4   6 C                                       1.5358646 (max)
     4   6 C        5   6 C                                       1.5255820
     1   6 C        6   1 H                                       1.0878173
     1   6 C        7   1 H                                       1.0865787
     1   6 C        8   1 H                                       1.0878529
     2   6 C        9   1 H                                       1.0927211
     2   6 C       10   1 H                                       1.0929789
     3   6 C       11   1 H                                       1.0919245
     3   6 C       12   1 H                                       1.0924017
     4   6 C       13   1 H                                       1.0918177
     4   6 C       14   1 H                                       1.0922740
     5   6 C       15   1 H                                       1.0880068
     5   6 C       16   1 H                                       1.0879684
     5   6 C       17   1 H                                       1.0860115 (min)

 * 2 distinct bonds (by element types)

   Z      Z             #   av. dist./Å        max./Å        min./Å
   1 H    6 C          12     1.0898628     1.0929789     1.0860115
   6 C    6 C           4     1.5289444     1.5358646     1.5240249

           -------------------------------------------------
          |               Frequency Printout                |
           -------------------------------------------------
 projected vibrational frequencies (cm⁻¹)
eigval :       -0.00    -0.00    -0.00     0.00     0.00     0.00
eigval :       89.06   121.78   207.39   258.15   297.07   368.49
eigval :      451.36   782.82   808.69   870.23   902.97   954.98
eigval :     1025.17  1053.66  1078.12  1139.86  1152.32  1173.14
eigval :     1235.72  1270.44  1275.64  1338.55  1353.71  1363.54
eigval :     1409.70  1413.29  1484.16  1490.22  1497.05  1498.29
eigval :     1504.39  1509.03  1515.26  2951.74  2953.91  2962.78
eigval :     2971.97  2981.39  2982.12  3021.01  3023.01  3028.21
eigval :     3029.13  3044.46  3053.43
 reduced masses (amu)
   1:  9.49   2:  9.12   3:  9.58   4: 10.14   5:  9.05   6:  8.79   7:  6.19   8:  6.79
   9:  2.39  10:  2.86  11:  6.67  12:  7.48  13:  6.56  14:  3.13  15:  3.97  16:  5.81
  17:  4.25  18:  6.46  19:  3.40  20:  5.69  21:  6.57  22:  7.34  23:  7.20  24:  6.79
  25:  3.59  26:  2.54  27:  2.32  28:  3.86  29:  4.67  30:  4.67  31:  3.24  32:  3.25
  33:  1.90  34:  1.82  35:  1.71  36:  1.56  37:  1.77  38:  1.62  39:  1.56  40:  1.96
  41:  1.87  42:  1.92  43:  1.55  44:  1.59  45:  1.48  46:  1.94  47:  1.94  48:  1.63
  49:  1.70  50:  1.49  51:  1.58
 IR intensities (km·mol⁻¹)
   1:  0.00   2:  0.00   3:  0.00   4:  0.00   5:  0.00   6:  0.00   7:  0.02   8:  0.03
   9:  0.08  10:  0.28  11:  0.33  12:  0.91  13:  1.11  14:  9.07  15:  5.02  16:  2.95
  17:  4.16  18:  7.20  19:  2.17  20:  2.26  21:  1.00  22:  3.25  23:  1.13  24:  0.80
  25:  0.40  26:  0.44  27:  0.34  28:  8.06  29:  7.62  30:  2.22  31:  2.31  32:  0.26
  33:  0.43  34:  0.50  35:  0.61  36:  0.30  37:  0.34  38:  0.33  39:  1.32  40: 69.67
  41: 25.01  42: 81.11  43: 87.96  44:136.10  45: 82.32  46: 91.16  47:118.17  48: 75.78
  49: 62.61  50: 44.18  51: 44.11
 Raman intensities (Ä⁴*amu⁻¹)
   1:  0.00   2:  0.00   3:  0.00   4:  0.00   5:  0.00   6:  0.00   7:  0.00   8:  0.00
   9:  0.00  10:  0.00  11:  0.00  12:  0.00  13:  0.00  14:  0.00  15:  0.00  16:  0.00
  17:  0.00  18:  0.00  19:  0.00  20:  0.00  21:  0.00  22:  0.00  23:  0.00  24:  0.00
  25:  0.00  26:  0.00  27:  0.00  28:  0.00  29:  0.00  30:  0.00  31:  0.00  32:  0.00
  33:  0.00  34:  0.00  35:  0.00  36:  0.00  37:  0.00  38:  0.00  39:  0.00  40:  0.00
  41:  0.00  42:  0.00  43:  0.00  44:  0.00  45:  0.00  46:  0.00  47:  0.00  48:  0.00
  49:  0.00  50:  0.00  51:  0.00
 output can be read by thermo (or use thermo option).
 writing <g98.out> molden fake output.
 recommended (thermochemical) frequency scaling factor: 1.0
           -------------------------------------------------
          |             Thermodynamic Functions             |
           -------------------------------------------------

Molecule has no symmetry elements
It seems to be the C1 point group
c1  symmetry found (for desy threshold:  0.10E+00) used in thermo

          ...................................................
          :                      SETUP                      :
          :.................................................:
          :  # frequencies                          45      :
          :  # imaginary freq.                       0      :
          :  linear?                             false      :
          :  only rotor calc.                    false      :
          :  symmetry                               c1      :
          :  rotational number                       1      :
          :  scaling factor                  1.0000000      :
          :  rotor cutoff                    0.0000000 cm⁻¹ :
          :  imag. cutoff                 -100.0000000 cm⁻¹ :
          :.................................................:

    mode    ω/cm⁻¹     T·S(HO)/kcal·mol⁻¹    T·S(FR)/kcal·mol⁻¹   T·S(vib)
   ------------------------------------------------------------------------
       1     89.06    -1.09737 (100.00%)    -0.88514 (  0.00%)    -1.09737
       2    121.78    -0.91588 (100.00%)    -0.79254 (  0.00%)    -0.91588
       3    207.39    -0.61612 (100.00%)    -0.63495 (  0.00%)    -0.61612
       4    258.15    -0.49917 (100.00%)    -0.57012 (  0.00%)    -0.49917
       5    297.07    -0.42736 (100.00%)    -0.52855 (  0.00%)    -0.42736
   ------------------------------------------------------------------------

   temp. (K)  partition function   enthalpy   heat capacity  entropy
                                   cal/mol     cal/K/mol   cal/K/mol   J/K/mol
 298.15  VIB   29.0                 2563.361     18.116     15.291
         ROT  0.113E+06              888.752      2.981     26.097
         INT  0.327E+07             3452.113     21.096     41.388
         TR   0.593E+27             1481.254      4.968     38.727
         TOT                        4933.3668    26.0646    80.1153   335.2026

       T/K    H(0)-H(T)+PV         H(T)/Eh          T*S/Eh         G(T)/Eh
   ------------------------------------------------------------------------
    298.15    0.786182E-02    0.167100E+00    0.380654E-01    0.129034E+00
   ------------------------------------------------------------------------

         :::::::::::::::::::::::::::::::::::::::::::::::::::::
         ::                  THERMODYNAMIC                  ::
         :::::::::::::::::::::::::::::::::::::::::::::::::::::
         :: total free energy         -16.696735750042 Eh   ::
         ::.................................................::
         :: total energy              -16.825770190546 Eh   ::
         :: zero point energy           0.159238005782 Eh   ::
         :: G(RRHO) w/o ZPVE           -0.030203565278 Eh   ::
         :: G(RRHO) contrib.            0.129034440504 Eh   ::
         :::::::::::::::::::::::::::::::::::::::::::::::::::::

optimized geometry written to: xtbopt.coord


           -------------------------------------------------
          | TOTAL ENERGY              -16.825770190546 Eh   |
          | TOTAL ENTHALPY            -16.658670364315 Eh   |
          | TOTAL FREE ENERGY         -16.696735750042 Eh   |
          | GRADIENT NORM               0.000062566411 Eh/α |
          | HOMO-LUMO GAP              13.552734703449 eV   |
           -------------------------------------------------

------------------------------------------------------------------------
 * finished run on 2025/04/11 at 11:53:27.378     
------------------------------------------------------------------------
 total:
 * wall-time:     0 d,  0 h,  0 min,  0.765 sec
 *  cpu-time:     0 d,  0 h,  0 min,  0.677 sec
 * ratio c/w:     0.885 speedup
 SCF:
 * wall-time:     0 d,  0 h,  0 min,  0.022 sec
 *  cpu-time:     0 d,  0 h,  0 min,  0.009 sec
 * ratio c/w:     0.400 speedup
 ANC optimizer:
 * wall-time:     0 d,  0 h,  0 min,  0.096 sec
 *  cpu-time:     0 d,  0 h,  0 min,  0.080 sec
 * ratio c/w:     0.835 speedup
 analytical hessian:
 * wall-time:     0 d,  0 h,  0 min,  0.579 sec
 *  cpu-time:     0 d,  0 h,  0 min,  0.569 sec
 * ratio c/w:     0.982 speedup

