
                                 *****************
                                 * O   R   C   A *
                                 *****************

                                            #,                                       
                                            ###                                      
                                            ####                                     
                                            #####                                    
                                            ######                                   
                                           ########,                                 
                                     ,,################,,,,,                         
                               ,,#################################,,                 
                          ,,##########################################,,             
                       ,#########################################, ''#####,          
                    ,#############################################,,   '####,        
                  ,##################################################,,,,####,       
                ,###########''''           ''''###############################       
              ,#####''   ,,,,##########,,,,          '''####'''          '####       
            ,##' ,,,,###########################,,,                        '##       
           ' ,,###''''                  '''############,,,                           
         ,,##''                                '''############,,,,        ,,,,,,###''
      ,#''                                            '''#######################'''  
     '                                                          ''''####''''         
             ,#######,   #######,   ,#######,      ##                                
            ,#'     '#,  ##    ##  ,#'     '#,    #''#        ,####,   ,####,        
            ##       ##  ##   ,#'  ##            #'  '#       #'       #'  '#        
            ##       ##  #######   ##           ,######,      #####,   #    #        
            '#,     ,#'  ##    ##  '#,     ,#' ,#      #,     #,   #   #,  ,#        
             '#######'   ##     ##  '#######'  #'      '#     '####' # '####'        



                #########################################################
                #                        -***-                          #
                #          Department of theory and spectroscopy        #
                #                                                       #
                #                      Frank Neese                      #
                #                                                       #
                #     Directorship, Architecture, Infrastructure        #
                #                    SHARK, DRIVERS                     #
                #        Core code/Algorithms in most modules           #
                #                                                       #
                #        Max Planck Institute fuer Kohlenforschung      #
                #                Kaiser Wilhelm Platz 1                 #
                #                 D-45470 Muelheim/Ruhr                 #
                #                      Germany                          #
                #                                                       #
                #                  All rights reserved                  #
                #                        -***-                          #
                #########################################################


                         Program Version 6.0.0  -   RELEASE  -


 With contributions from (in alphabetic order):
   Daniel Aravena         : Magnetic Suceptibility
   Michael Atanasov       : Ab Initio Ligand Field Theory (pilot matlab implementation)
   Alexander A. Auer      : GIAO ZORA, VPT2 properties, NMR spectrum
   Ute Becker             : All parallelization in ORCA, NUMFREQ, NUMCALC
   Giovanni Bistoni       : ED, misc. LED, open-shell LED, HFLD
   Martin Brehm           : Molecular dynamics
   Dmytro Bykov           : pre 5.0 version of the SCF Hessian
   Marcos Casanova-Páez   : Triplet and SCS-CIS(D). UHF-(DLPNO)-IP/EA/STEOM-CCSD. UHF-CVS-IP/STEOM-CCSD
   Vijay G. Chilkuri      : MRCI spin determinant printing, contributions to CSF-ICE
   Pauline Colinet        : FMM embedding
   Dipayan Datta          : RHF DLPNO-CCSD density
   Achintya Kumar Dutta   : EOM-CC, STEOM-CC
   Nicolas Foglia         : Exact transition moments, OPA infrastructure, MCD improvements
   Dmitry Ganyushin       : Spin-Orbit,Spin-Spin,Magnetic field MRCI
   Miquel Garcia          : C-PCM and meta-GGA Hessian, CCSD/C-PCM, Gaussian charge scheme
   Tiago L. C. Gouveia    : GS-ROHF, GS-ROCIS
   Yang Guo               : DLPNO-NEVPT2, F12-NEVPT2, CIM, IAO-localization
   Andreas Hansen         : Spin unrestricted coupled pair/coupled cluster methods
   Ingolf Harden          : AUTO-CI MPn and infrastructure 
   Benjamin Helmich-Paris : MC-RPA, TRAH-(SCF,CASSCF), AVAS, COSX integrals, SCF dyn. polar.
   Lee Huntington         : MR-EOM, pCC
   Robert Izsak           : Overlap fitted RIJCOSX, COSX-SCS-MP3, EOM
   Riya Kayal             : Wick's Theorem for AUTO-CI, AUTO-CI UHF-CCSDT
   Emily Kempfer          : AUTO-CI, RHF CISDT and CCSDT
   Christian Kollmar      : KDIIS, OOCD, Brueckner-CCSD(T), CCSD density, CASPT2, CASPT2-K, improved NEVPT2
   Axel Koslowski         : Symmetry handling
   Simone Kossmann        : Meta GGA functionals, TD-DFT gradient, OOMP2, (MP2 Hessian; deprecated post 5.0)
   Lucas Lang             : DCDCAS
   Marvin Lechner         : AUTO-CI (C++ implementation), FIC-MRCC
   Spencer Leger          : CASSCF response
   Dagmar Lenk            : GEPOL surface, SMD, ORCA-2-JSON
   Dimitrios Liakos       : Extrapolation schemes; Compound Job, initial MDCI parallelization
   Dimitrios Manganas     : Further ROCIS development; embedding schemes. LFT, Crystal Embedding
   Dimitrios Pantazis     : SARC Basis sets
   Anastasios Papadopoulos: AUTO-CI, single reference methods and gradients
   Taras Petrenko         : pre 6.0 DFT Hessian and TD-DFT gradient, (ASA, deprecated), ECA, 1-Electron XAS/XES, NRVS
   Peter Pinski           : DLPNO-MP2, DLPNO-MP2 Gradient
   Christoph Reimann      : Effective Core Potentials
   Marius Retegan         : Local ZFS, SOC
   Christoph Riplinger    : Optimizer, TS searches, QM/MM, DLPNO-CCSD(T), (RO)-DLPNO pert. Triples
   Michael Roemelt        : Original ROCIS implementation
   Masaaki Saitow         : Open-shell DLPNO-CCSD energy and density
   Barbara Sandhoefer     : DKH picture change effects
   Kantharuban Sivalingam : CASSCF convergence/infrastructure, NEVPT2 and variants, FIC-MRCI
   Bernardo de Souza      : ESD, SOC TD-DFT
   Georgi Stoychev        : AutoAux, RI-MP2 NMR, DLPNO-MP2 response, X2C
   Van Anh Tran           : RI-MP2 g-tensors
   Willem Van den Heuvel  : Paramagnetic NMR
   Zikuan Wang            : NOTCH, Electric field optimization 
   Frank Wennmohs         : Technical directorship and infrastructure
   Hang Xu                : AUTO-CI-Response properties 


 We gratefully acknowledge several colleagues who have allowed us to
 interface, adapt or use parts of their codes:
   Stefan Grimme, W. Hujo, H. Kruse, P. Pracht,  : VdW corrections, initial TS optimization,
                  C. Bannwarth, S. Ehlert,         DFT functionals, gCP, sTDA/sTD-DF
                  L. Wittmann, M. Mueller
   Ed Valeev, F. Pavosevic, A. Kumar             : LibInt (2-el integral package), F12 methods
   Garnet Chan, S. Sharma, J. Yang, R. Olivares  : DMRG
   Ulf Ekstrom                                   : XCFun DFT Library
   Mihaly Kallay                                 : mrcc  (arbitrary order and MRCC methods)
   Frank Weinhold                                : gennbo (NPA and NBO analysis)
   Simon Mueller                                 : openCOSMO-RS
   Christopher J. Cramer and Donald G. Truhlar   : smd solvation model
   Lars Goerigk                                  : TD-DFT with DH, B97 family of functionals
   V. Asgeirsson, H. Jonsson                     : NEB implementation
   FAccTs GmbH                                   : IRC, NEB, NEB-TS, DLPNO-Multilevel, CI-OPT
                                                   MM, QMMM, 2- and 3-layer-ONIOM, Crystal-QMMM,
                                                   LR-CPCM, SF, NACMEs, symmetry and pop. for TD-DFT,
                                                   nearIR, NL-DFT gradient (VV10), updates on ESD,
                                                   ML-optimized integration grids, MBIS, APM,
                                                   GOAT, DOCKER, SOLVATOR, interface openCOSMO-RS
   S Lehtola, MJT Oliveira, MAL Marques          : LibXC Library
   Liviu Ungur et al                             : ANISO software


 Your calculation uses the libint2 library for the computation of 2-el integrals
 For citations please refer to: http://libint.valeyev.net

 Your ORCA version has been built with support for libXC version: 6.2.2
 For citations please refer to: https://libxc.gitlab.io

 This ORCA versions uses:
   CBLAS   interface :  Fast vector & matrix operations
   LAPACKE interface :  Fast linear algebra routines
   SCALAPACK package :  Parallel linear algebra routines
   Shared memory     :  Shared parallel matrices
   BLAS/LAPACK       :  OpenBLAS 0.3.27  USE64BITINT DYNAMIC_ARCH NO_AFFINITY SkylakeX SINGLE_THREADED
        Core in use  :  SkylakeX
   Copyright (c) 2011-2014, The OpenBLAS Project


Your calculation utilizes the geometrical counterpoise correction gCP
Please cite in your paper:
H.Kruse, S. Grimme J.Chem.Phys., 136, (2012), 154101 
   

Your calculation utilizes the atom-pairwise dispersion correction
based on EEQ partial charges (D4)


Your calculation utilizes the SMD solvation module
Please cite in your paper:
A.V. Marenich, C.J. Cramer, D.G. Truhlar J. Phys. Chem. B, 113, (2009), 6378 

================================================================================

----- Orbital basis set information -----
Your calculation utilizes the basis: def2-mTZVPP
   Stefan Grimme, Andreas Hansen, Sebastian Ehlert, and Jan-Michael Mewes 
   J. Chem. Phys. 154, 064103 (2021). DOI: 10.1063/5.0040021

----- AuxJ basis set information -----
Your calculation utilizes the auxiliary basis: def2/J
   F. Weigend, Phys. Chem. Chem. Phys. 8, 1057 (2006).

================================================================================
                                        WARNINGS
                       Please study these warnings very carefully!
================================================================================

Using LibXC functional ID 497 : Re-regularized SCAN exchange by Furness et al
[ 1]  J. W. Furness, A. D. Kaplan, J. Ning, J. P. Perdew, and J. Sun.,  J. Phys. Chem. Lett. 11, 8208-8215 (2020)
[ 2]  J. W. Furness, A. D. Kaplan, J. Ning, J. P. Perdew, and J. Sun.,  J. Phys. Chem. Lett. 11, 9248-9248 (2020)
Using LibXC functional ID 498 : Re-regularized SCAN correlation by Furness et al
[ 1]  J. W. Furness, A. D. Kaplan, J. Ning, J. P. Perdew, and J. Sun.,  J. Phys. Chem. Lett. 11, 8208-8215 (2020)
[ 2]  J. W. Furness, A. D. Kaplan, J. Ning, J. P. Perdew, and J. Sun.,  J. Phys. Chem. Lett. 11, 9248-9248 (2020)
Using LibXC functional ID 497 : Re-regularized SCAN exchange by Furness et al
[ 1]  J. W. Furness, A. D. Kaplan, J. Ning, J. P. Perdew, and J. Sun.,  J. Phys. Chem. Lett. 11, 8208-8215 (2020)
[ 2]  J. W. Furness, A. D. Kaplan, J. Ning, J. P. Perdew, and J. Sun.,  J. Phys. Chem. Lett. 11, 9248-9248 (2020)
Using LibXC functional ID 498 : Re-regularized SCAN correlation by Furness et al
[ 1]  J. W. Furness, A. D. Kaplan, J. Ning, J. P. Perdew, and J. Sun.,  J. Phys. Chem. Lett. 11, 8208-8215 (2020)
[ 2]  J. W. Furness, A. D. Kaplan, J. Ning, J. P. Perdew, and J. Sun.,  J. Phys. Chem. Lett. 11, 9248-9248 (2020)

================================================================================
                                       INPUT FILE
================================================================================
NAME = sp_solv.inp
|  1> ! r2scan-3c def2/J RI DEFGRID2 scfconv6 printgap
|  2> %output
|  3>     printlevel normal
|  4> end
|  5> %cpcm
|  6>     smd true
|  7>     smdsolvent "water"
|  8> end
|  9> * xyz 0 1
| 10> C -3.3657718053 0.8148112194 0.143955903
| 11> C -2.168963616 1.5084255622 0.1437215172
| 12> C -0.9677317673 0.8296120736 0.0167663334
| 13> C -0.9541292227 -0.55115282 -0.1097314433
| 14> C -2.160677376 -1.2429324988 -0.1079328178
| 15> C -3.3587657353 -0.5651158966 0.0175058582
| 16> C 0.3295272615 -1.3407979523 -0.2600433426
| 17> N 1.5186538833 -0.5476294768 -0.1145970041
| 18> C 2.1645103593 0.1394698947 -1.1018460201
| 19> C 3.1963673966 0.7946330206 -0.4947669183
| 20> N 3.1933875443 0.531133726 0.8411142292
| 21> C 2.1749574783 -0.2679522143 1.0315263803
| 22> H -4.3000571279 1.3458515544 0.2429323622
| 23> H -2.1648474174 2.5834550586 0.2422888181
| 24> H -0.0419152182 1.3864411467 0.0196634459
| 25> H -2.1565823 -2.3184590649 -0.205617695
| 26> H -4.2885729475 -1.1132293246 0.0180989434
| 27> H 0.3505073952 -2.1346498905 0.4926405163
| 28> H 0.3458800398 -1.8084427741 -1.2498259427
| 29> H 1.8480419192 0.103802377 -2.1232324191
| 30> H 3.9399483264 1.4341881252 -0.9262149908
| 31> H 1.8879675129 -0.6678277635 1.98312059
| 32> *
| 33> 
| 34>                          ****END OF INPUT****
================================================================================

                       ****************************
                       * Single Point Calculation *
                       ****************************

---------------------------------
CARTESIAN COORDINATES (ANGSTROEM)
---------------------------------
  C     -3.365772    0.814811    0.143956
  C     -2.168964    1.508426    0.143722
  C     -0.967732    0.829612    0.016766
  C     -0.954129   -0.551153   -0.109731
  C     -2.160677   -1.242932   -0.107933
  C     -3.358766   -0.565116    0.017506
  C      0.329527   -1.340798   -0.260043
  N      1.518654   -0.547629   -0.114597
  C      2.164510    0.139470   -1.101846
  C      3.196367    0.794633   -0.494767
  N      3.193388    0.531134    0.841114
  C      2.174957   -0.267952    1.031526
  H     -4.300057    1.345852    0.242932
  H     -2.164847    2.583455    0.242289
  H     -0.041915    1.386441    0.019663
  H     -2.156582   -2.318459   -0.205618
  H     -4.288573   -1.113229    0.018099
  H      0.350507   -2.134650    0.492641
  H      0.345880   -1.808443   -1.249826
  H      1.848042    0.103802   -2.123232
  H      3.939948    1.434188   -0.926215
  H      1.887968   -0.667828    1.983121

----------------------------
CARTESIAN COORDINATES (A.U.)
----------------------------
  NO LB      ZA    FRAG     MASS         X           Y           Z
   0 C     6.0000    0    12.011   -6.360387    1.539770    0.272037
   1 C     6.0000    0    12.011   -4.098747    2.850511    0.271594
   2 C     6.0000    0    12.011   -1.828748    1.567740    0.031684
   3 C     6.0000    0    12.011   -1.803043   -1.041528   -0.207362
   4 C     6.0000    0    12.011   -4.083089   -2.348802   -0.203963
   5 C     6.0000    0    12.011   -6.347147   -1.067914    0.033081
   6 C     6.0000    0    12.011    0.622716   -2.533741   -0.491411
   7 N     7.0000    0    14.007    2.869840   -1.034870   -0.216557
   8 C     6.0000    0    12.011    4.090332    0.263560   -2.082187
   9 C     6.0000    0    12.011    6.040259    1.501639   -0.934974
  10 N     7.0000    0    14.007    6.034628    1.003697    1.589476
  11 C     6.0000    0    12.011    4.110074   -0.506356    1.949302
  12 H     1.0000    0     1.008   -8.125930    2.543291    0.459076
  13 H     1.0000    0     1.008   -4.090969    4.882023    0.457860
  14 H     1.0000    0     1.008   -0.079208    2.619994    0.037159
  15 H     1.0000    0     1.008   -4.075350   -4.381253   -0.388561
  16 H     1.0000    0     1.008   -8.104228   -2.103699    0.034202
  17 H     1.0000    0     1.008    0.662363   -4.033904    0.930956
  18 H     1.0000    0     1.008    0.653619   -3.417462   -2.361829
  19 H     1.0000    0     1.008    3.492293    0.196158   -4.012328
  20 H     1.0000    0     1.008    7.445423    2.710223   -1.750293
  21 H     1.0000    0     1.008    3.567742   -1.262012    3.747555

--------------------------------
INTERNAL COORDINATES (ANGSTROEM)
--------------------------------
 C      0   0   0     0.000000000000     0.00000000     0.00000000
 C      1   0   0     1.383275371519     0.00000000     0.00000000
 C      2   1   0     1.385591326954   120.29425372     0.00000000
 C      3   2   1     1.386614008341   120.31181981   359.92939719
 C      4   3   2     1.390798621399   119.12201023     0.02865155
 C      5   4   3     1.382239459842   120.54071860     0.03136644
 C      4   3   2     1.514564977631   122.44817189   179.60800439
 N      7   4   3     1.436764765222   113.80293224     6.33532601
 C      8   7   4     1.365246041379   126.59569008   272.36310801
 C      9   8   7     1.364739060336   106.11797371   177.09661397
 N     10   9   8     1.361623735846   109.99058320   359.66762038
 C     11  10   9     1.308432239974   105.22823241   359.92912104
 H      1   2   3     1.079207691271   120.15193251   180.00301973
 H      2   1   3     1.079546605769   120.17311186   179.98246087
 H      3   2   1     1.080371830666   119.35208833   180.07323318
 H      5   4   3     1.079961341562   119.46872571   180.03027200
 H      6   5   4     1.079337821798   119.84905319   180.03447991
 H      7   4   3     1.094154494229   109.04147588   127.43240479
 H      7   4   3     1.094819020741   108.97047767   245.29446554
 H      9   8   7     1.069885330987   122.25161279   356.89927228
 H     10   9   8     1.071489976736   129.20707429   179.53068348
 H     12  11  10     1.071352059326   124.45169513   180.04728063

---------------------------
INTERNAL COORDINATES (A.U.)
---------------------------
 C      0   0   0     0.000000000000     0.00000000     0.00000000
 C      1   0   0     2.614011619968     0.00000000     0.00000000
 C      2   1   0     2.618388141480   120.29425372     0.00000000
 C      3   2   1     2.620320729224   120.31181981   359.92939719
 C      4   3   2     2.628228501880   119.12201023     0.02865155
 C      5   4   3     2.612054030601   120.54071860     0.03136644
 C      4   3   2     2.862113019750   122.44817189   179.60800439
 N      7   4   3     2.715091925137   113.80293224     6.33532601
 C      8   7   4     2.579941123626   126.59569008   272.36310801
 C      9   8   7     2.578983068300   106.11797371   177.09661397
 N     10   9   8     2.573095958196   109.99058320   359.66762038
 C     11  10   9     2.472578598345   105.22823241   359.92912104
 H      1   2   3     2.039406978124   120.15193251   180.00301973
 H      2   1   3     2.040047433708   120.17311186   179.98246087
 H      3   2   1     2.041606882763   119.35208833   180.07323318
 H      5   4   3     2.040831170774   119.46872571   180.03027200
 H      6   5   4     2.039652889181   119.84905319   180.03447991
 H      7   4   3     2.067652342293   109.04147588   127.43240479
 H      7   4   3     2.068908115407   108.97047767   245.29446554
 H      9   8   7     2.021790270264   122.25161279   356.89927228
 H     10   9   8     2.024822611273   129.20707429   179.53068348
 H     12  11  10     2.024561985139   124.45169513   180.04728063

---------------------
BASIS SET INFORMATION
---------------------
There are 3 groups of distinct atoms

 Group   1 Type C   : 11s6p1d contracted to 5s3p1d pattern {62111/411/1}
 Group   2 Type N   : 11s6p2d contracted to 5s3p2d pattern {62111/411/11}
 Group   3 Type H   : 4s1p contracted to 2s1p pattern {31/1}

Atom   0C    basis set group =>   1
Atom   1C    basis set group =>   1
Atom   2C    basis set group =>   1
Atom   3C    basis set group =>   1
Atom   4C    basis set group =>   1
Atom   5C    basis set group =>   1
Atom   6C    basis set group =>   1
Atom   7N    basis set group =>   2
Atom   8C    basis set group =>   1
Atom   9C    basis set group =>   1
Atom  10N    basis set group =>   2
Atom  11C    basis set group =>   1
Atom  12H    basis set group =>   3
Atom  13H    basis set group =>   3
Atom  14H    basis set group =>   3
Atom  15H    basis set group =>   3
Atom  16H    basis set group =>   3
Atom  17H    basis set group =>   3
Atom  18H    basis set group =>   3
Atom  19H    basis set group =>   3
Atom  20H    basis set group =>   3
Atom  21H    basis set group =>   3
---------------------------------
AUXILIARY/J BASIS SET INFORMATION
---------------------------------
There are 3 groups of distinct atoms

 Group   1 Type C   : 12s5p4d2f1g contracted to 6s4p3d1f1g pattern {711111/2111/211/2/1}
 Group   2 Type N   : 12s5p4d2f1g contracted to 6s4p3d1f1g pattern {711111/2111/211/2/1}
 Group   3 Type H   : 5s2p1d contracted to 3s1p1d pattern {311/2/1}

Atom   0C    basis set group =>   1
Atom   1C    basis set group =>   1
Atom   2C    basis set group =>   1
Atom   3C    basis set group =>   1
Atom   4C    basis set group =>   1
Atom   5C    basis set group =>   1
Atom   6C    basis set group =>   1
Atom   7N    basis set group =>   2
Atom   8C    basis set group =>   1
Atom   9C    basis set group =>   1
Atom  10N    basis set group =>   2
Atom  11C    basis set group =>   1
Atom  12H    basis set group =>   3
Atom  13H    basis set group =>   3
Atom  14H    basis set group =>   3
Atom  15H    basis set group =>   3
Atom  16H    basis set group =>   3
Atom  17H    basis set group =>   3
Atom  18H    basis set group =>   3
Atom  19H    basis set group =>   3
Atom  20H    basis set group =>   3
Atom  21H    basis set group =>   3

Checking for AutoStart:
The File: sp_solv.gbw exists
Trying to determine its content:
     ... Fine, the file contains calculation information
     ... Fine, the calculation information was read
     ... Fine, the file contains a basis set
     ... Fine, the basis set was read
     ... Fine, the file contains a geometry
     ... Fine, the geometry was read
     ... Fine, the file contains a set of orbitals
     ... Fine, the orbitals can be read
     => possible old guess file was deleted
     => GBW file was renamed to GES file
     => GES file is set as startup file
     => Guess is set to MORead
     ... now leaving AutoStart

------------------------------------------------------------------------------
                             ORCA STARTUP CALCULATIONS
                           -- RI-GTO INTEGRALS CHOSEN --
------------------------------------------------------------------------------
------------------------------------------------------------------------------
                   ___                                                        
                  /   \      - P O W E R E D   B Y -                         
                 /     \                                                     
                 |  |  |   _    _      __       _____    __    __             
                 |  |  |  | |  | |    /  \     |  _  \  |  |  /  |          
                  \  \/   | |  | |   /    \    | | | |  |  | /  /          
                 / \  \   | |__| |  /  /\  \   | |_| |  |  |/  /          
                |  |  |   |  __  | /  /__\  \  |    /   |      \           
                |  |  |   | |  | | |   __   |  |    \   |  |\   \          
                \     /   | |  | | |  |  |  |  | |\  \  |  | \   \       
                 \___/    |_|  |_| |__|  |__|  |_| \__\ |__|  \__/        
                                                                              
                      - O R C A' S   B I G   F R I E N D -                    
                                      &                                       
                       - I N T E G R A L  F E E D E R -                       
                                                                              
 v1 FN, 2020, v2 2021, v3 2022-2024                                           
------------------------------------------------------------------------------


----------------------
SHARK INTEGRAL PACKAGE
----------------------

Number of atoms                             ...     22
Number of basis functions                   ...    288
Number of shells                            ...    140
Maximum angular momentum                    ...      2
Integral batch strategy                     ... SHARK/LIBINT Hybrid
RI-J (if used) integral strategy            ... SPLIT-RIJ (Revised 2003 algorithm where possible)
Printlevel                                  ...      1
Contraction scheme used                     ... SEGMENTED contraction
Prescreening option                         ... SCHWARTZ
   Thresh                                   ... 1.000e-10
   Tcut                                     ... 1.000e-11
   Tpresel                                  ... 1.000e-11 
Coulomb Range Separation                    ... NOT USED
Exchange Range Separation                   ... NOT USED
Multipole approximations                    ... NOT USED
Finite Nucleus Model                        ... NOT USED
CABS basis                                  ... NOT available
Auxiliary Coulomb fitting basis             ... AVAILABLE
   # of basis functions in Aux-J            ...    698
   # of shells in Aux-J                     ...    230
   Maximum angular momentum in Aux-J        ...      4
Auxiliary J/K fitting basis                 ... NOT available
Auxiliary Correlation fitting basis         ... NOT available
Auxiliary 'external' fitting basis          ... NOT available

Checking pre-screening integrals            ... done (  0.0 sec) Dimension = 140
Check shell pair data                       ... done (  0.0 sec)
Shell pair information
Shell pair cut-off parameter TPreSel        ...   1.0e-11
Total number of shell pairs                 ...      9870
Shell pairs after pre-screening             ...      8238
Total number of primitive shell pairs       ...     36340
Primitive shell pairs kept                  ...     20575
          la=0 lb=0:   2603 shell pairs
          la=1 lb=0:   3122 shell pairs
          la=1 lb=1:    960 shell pairs
          la=2 lb=0:    915 shell pairs
          la=2 lb=1:    550 shell pairs
          la=2 lb=2:     88 shell pairs

Calculating one electron integrals          ... done (  0.0 sec)
Calculating RI/J V-Matrix + Cholesky decomp.... done (  0.1 sec)
Calculating Nuclear repulsion               ... done (  0.0 sec) ENN=    638.740856308184 Eh

Diagonalization of the overlap matrix:
Smallest eigenvalue                        ... 2.852e-05
Time for diagonalization                   ...    0.008 sec
Threshold for overlap eigenvalues          ... 1.000e-07
Number of eigenvalues below threshold      ... 0
Time for construction of square roots      ...    0.018 sec
Total time needed                          ...    0.035 sec

-------------------
DFT GRID GENERATION
-------------------

General Integration Accuracy     IntAcc      ... 4.388
Radial Grid Type                 RadialGrid  ... OptM3 with GC (2021)
Angular Grid (max. ang.)         AngularGrid ... 4 (Lebedev-302)
Angular grid pruning method      GridPruning ... 4 (adaptive)
Weight generation scheme         WeightScheme... mBecke (2022)
Basis function cutoff            BFCut       ... 1.0000e-10
Integration weight cutoff        WCut        ... 1.0000e-14
Partially contracted basis set               ... off
Rotationally invariant grid construction     ... off
Angular grids for H and He will be reduced by one unit

Total number of grid points                  ...   103960
Total number of batches                      ...     1636
Average number of points per batch           ...       63
Average number of grid points per atom       ...     4725
Initializing property integral containers    ... done (  0.0 sec)

SHARK setup successfully completed in   1.5 seconds

Maximum memory used throughout the entire STARTUP-calculation: 48.9 MB
-------------------------------------------------------------------------------
                                 ORCA GUESS
                   Start orbitals & Density for SCF / CASSCF
-------------------------------------------------------------------------------

------------
SCF SETTINGS
------------
Hamiltonian:
 Density Functional     Method          .... DFT(GTOs)
  Functional kind                       .... Exchange
  Functional name                       .... Re-regularized SCAN exchange by Furness et al
  Functional family                     .... MGGA
  Functional refs                              
    [ 0] J. W. Furness, A. D. Kaplan, J. Ning, J. P. Perdew, and J. Sun.,  J. Phys. Chem. Lett. 11, 8208-8215 (2020), doi: 10.1021/acs.jpclett.0c02405
    [ 1] J. W. Furness, A. D. Kaplan, J. Ning, J. P. Perdew, and J. Sun.,  J. Phys. Chem. Lett. 11, 9248-9248 (2020), doi: 10.1021/acs.jpclett.0c03077
  Functional external parameters        .... 6
    Parameter  0 _c1        =  6.670000e-01 : c1 parameter        
    Parameter  1 _c2        =  8.000000e-01 : c2 parameter        
    Parameter  2 _d         =  1.240000e+00 : d parameter         
    Parameter  3 _k1        =  6.500000e-02 : k1 parameter        
    Parameter  4 _eta       =  1.000000e-03 : eta parameter       
    Parameter  5 _dp2       =  3.610000e-01 : dp2 parameter       
  Functional kind                       .... Correlation
  Functional name                       .... Re-regularized SCAN correlation by Furness et al
  Functional family                     .... MGGA
  Functional refs                              
    [ 0] J. W. Furness, A. D. Kaplan, J. Ning, J. P. Perdew, and J. Sun.,  J. Phys. Chem. Lett. 11, 8208-8215 (2020), doi: 10.1021/acs.jpclett.0c02405
    [ 1] J. W. Furness, A. D. Kaplan, J. Ning, J. P. Perdew, and J. Sun.,  J. Phys. Chem. Lett. 11, 9248-9248 (2020), doi: 10.1021/acs.jpclett.0c03077
  Functional external parameters        .... 1
    Parameter  0 _eta       =  1.000000e-03 : Regularization parameter
 Gradients option       PostSCFGGA      .... off
 RI-approximation to the Coulomb term is turned on
   Number of AuxJ basis functions       .... 698


General Settings:
 Integral files         IntName         .... sp_solv
 Hartree-Fock type      HFTyp           .... RHF
 Total Charge           Charge          ....    0
 Multiplicity           Mult            ....    1
 Number of Electrons    NEL             ....   84
 Basis Dimension        Dim             ....  288
 Nuclear Repulsion      ENuc            ....    638.7408563082 Eh

Convergence Acceleration:
 AO-DIIS                CNVDIIS         .... on
   Start iteration      DIISMaxIt       ....    12
   Startup error        DIISStart       ....  0.200000
   # of expansion vecs  DIISMaxEq       ....     5
   Bias factor          DIISBfac        ....   1.050
   Max. coefficient     DIISMaxC        ....  10.000
 MO-DIIS                CNVKDIIS        .... off
 Trust-Rad. Augm. Hess. CNVTRAH         .... auto
   Auto Start mean grad. ratio tolernc. ....  1.125000
   Auto Start start iteration           ....     1
   Auto Start num. interpolation iter.  ....    10
   Max. Number of Micro iterations      ....    24
   Max. Number of Macro iterations      .... Maxiter - #DIIS iter
   Number of Davidson start vectors     ....     2
   Converg. threshold    (grad. norm)   ....   3.330e-04
   Grad. Scal. Fac. for Micro threshold ....   0.100
   Minimum threshold for Micro iter.    ....   1.000e-02
   NR start threshold (gradient norm)   ....   1.000e-04
   Initial trust radius                 ....   0.400
   Minimum AH scaling param. (alpha)    ....   1.000
   Maximum AH scaling param. (alpha)    .... 1000.000
   Quad. conv. algorithm                .... NR
   White noise on init. David. guess    .... on
   Maximum white noise                  ....   0.010
   Pseudo random numbers                .... off
   Inactive MOs                         .... canonical
   Orbital update algorithm             .... Taylor
   Preconditioner                       .... Diag
   Full preconditioner red. dimension   ....   250
   COSX micro iterations for RIJONX calc.... off
 SOSCF                  CNVSOSCF        .... on
   Start iteration      SOSCFMaxIt      ....   150
   Startup grad/error   SOSCFStart      ....  0.003300
   Hessian update       SOSCFHessUp     .... L-BFGS
 Level Shifting         CNVShift        .... on
   Level shift para.    LevelShift      ....    0.2500
   Turn off err/grad.   ShiftErr        ....    0.0010
 Zerner damping         CNVZerner       .... off
 Static damping         CNVDamp         .... on
   Fraction old density DampFac         ....    0.7000
   Max. Damping (<1)    DampMax         ....    0.9800
   Min. Damping (>=0)   DampMin         ....    0.0000
   Turn off err/grad.   DampErr         ....    0.1000

SCF Procedure:
 Maximum # iterations   MaxIter         ....   125
 SCF integral mode      SCFMode         .... Direct
   Integral package                     .... SHARK and LIBINT hybrid scheme
 Reset frequency        DirectResetFreq ....    20
 Integral Threshold     Thresh          ....  1.000e-10 Eh
 Primitive CutOff       TCut            ....  1.000e-11 Eh

Convergence Tolerance:
 Convergence Check Mode ConvCheckMode   .... Total+1el-Energy
 Convergence forced     ConvForced      .... 0
 Energy Change          TolE            ....  1.000e-06 Eh
 1-El. energy change                    ....  1.000e-03 Eh
 Orbital Gradient       TolG            ....  3.330e-04
 Orbital Rotation angle TolX            ....  3.330e-04
 DIIS Error             TolErr          ....  1.000e-06

---------------------
INITIAL GUESS: MOREAD
---------------------
Guess MOs are being read from file: sp_solv.ges
Input Geometry matches current geometry (good)
Atom 0: N(Shells)= 9 and 6 - projection required
Input basis set needs projection
NBasis(read)= 188
NBasis(calc)= 288
Basis set overlap was calculated
Using GuessMode=FMatrix for the initial guess
C*T matrix was formed
Effective Fockian was calculated
Effective Fockian was diagonalized
Initial density was built
                      ------------------
                      INITIAL GUESS DONE (   0.1 sec)
                      ------------------
             **** ENERGY FILE WAS UPDATED (sp_solv.en.tmp) ****
Finished Guess after   0.3 sec
Maximum memory used throughout the entire GUESS-calculation: 22.6 MB

-------------------------------------------------------------------------------------------
                                      ORCA LEAN-SCF
                              memory conserving SCF solver
-------------------------------------------------------------------------------------------

--------------------
CPCM SOLVATION MODEL
--------------------
CPCM parameters:
  Epsilon                                         ...      78.3550
  Refrac                                          ...       1.3328
  Rsolv                                           ...       1.3000
  Surface type                                    ... GAUSSIAN VDW
  Discretization scheme                           ... Constant charge density
    Threshold for H atoms                         ...       5.0000 (charges/Ang^2)
    Threshold for non-H atoms                     ...       5.0000 (charges/Ang^2)
  Epsilon function type                           ...         CPCM
Solvent:                                          ... WATER
SMD-CDS solvent descriptors:
  Soln                                            ...       1.3328
  Soln25                                          ...       1.3323
  Sola                                            ...       0.0000
  Solb                                            ...       0.0000
  Solg                                            ...       0.0000
  Solc                                            ...       0.0000
  Solh                                            ...       0.0000
Radii:
  Scheme                                          ... Element-dependent radii
  Radius for C  used is    3.4960 Bohr (=   1.8500 Ang.)
  Radius for N  used is    3.5716 Bohr (=   1.8900 Ang.)
  Radius for H  used is    2.2677 Bohr (=   1.2000 Ang.)
Calculating surface                               ...        done! (  0.0s)
Cavity surface points                             ...         1731
Cavity Volume                                     ...    1159.2995
Cavity Surface-area                               ...     686.6332
Calculating surface distance matrix               ...        done! (  0.0s)
Performing Cholesky decomposition & store         ...        done! (  0.1s)
Overall time for CPCM initialization              ...                 0.2s

----------------------------------------D-I-I-S--------------------------------------------
Iteration    Energy (Eh)           Delta-E    RMSDP     MaxDP     DIISErr   Damp  Time(sec)
-------------------------------------------------------------------------------------------
               ***  Starting incremental Fock matrix formation  ***
    1    -496.2326523571576899     0.00e+00  9.31e-03  4.45e-01  4.39e-01  0.700   6.0
    2    -496.3018154850325345    -6.92e-02  6.92e-03  3.05e-01  3.09e-01  0.700   5.4
    3    -496.3507659680227562    -4.90e-02  4.93e-03  2.10e-01  2.17e-01  0.700   5.3
                               ***Turning on AO-DIIS***
    4    -496.3851659467667332    -3.44e-02  3.50e-03  1.45e-01  1.52e-01  0.700   5.2
    5    -496.4093030578627577    -2.41e-02  2.47e-03  1.01e-01  1.06e-01  0.700   5.2
    6    -496.4262537473629209    -1.70e-02  1.74e-03  7.00e-02  7.40e-02  0.700   5.1
    7    -496.4381440863529633    -1.19e-02  4.06e-03  1.63e-01  5.20e-02  0.000   5.0
                              *** Initializing SOSCF ***
---------------------------------------S-O-S-C-F--------------------------------------
Iteration    Energy (Eh)           Delta-E    RMSDP     MaxDP     MaxGrad    Time(sec)
--------------------------------------------------------------------------------------
    8    -496.4659525771647850    -2.78e-02  4.24e-05  1.39e-03  9.31e-04     5.4
               *** Restarting incremental Fock matrix formation ***
    9    -496.4659527350808048    -1.58e-07  3.49e-05  1.22e-03  3.85e-04     5.9
   10    -496.4659390058621966     1.37e-05  2.70e-05  8.15e-04  1.02e-03     4.5
   11    -496.4659563301191838    -1.73e-05  5.31e-06  1.85e-04  5.31e-05     4.3
                  *** Gradient check signals convergence ***

               *****************************************************
               *                     SUCCESS                       *
               *           SCF CONVERGED AFTER  11 CYCLES          *
               *****************************************************


SMD CDS free energy correction energy :                 3.03098     Kcal/mol
Total Energy after SMD CDS correction =              -496.461126163 Eh
             **** ENERGY FILE WAS UPDATED (sp_solv.en.tmp) ****

----------------
TOTAL SCF ENERGY
----------------

Total Energy       :       -496.46112616281169 Eh          -13509.39405 eV

Components:
Nuclear Repulsion  :        638.74085630818433 Eh           17381.02233 eV
Electronic Energy  :      -1135.18277750295920 Eh          -30889.89379 eV
One Electron Energy:      -1936.46027758273613 Eh          -52693.76305 eV
Two Electron Energy:        801.27750007977704 Eh           21803.86926 eV
CPCM Dielectric    :         -0.02403513534429 Eh              -0.65403 eV
SMD CDS (Gcds)     :          0.00483016730749 Eh               0.13144 eV

Virial components:
Potential Energy   :       -991.04880157069306 Eh          -26967.80891 eV
Kinetic Energy     :        494.58767540788131 Eh           13458.41486 eV
Virial Ratio       :          2.00378790424445

DFT components:
N(Alpha)           :       41.999997712913 electrons
N(Beta)            :       41.999997712913 electrons
N(Total)           :       83.999995425825 electrons
E(X)               :      -68.996742771133 Eh       
E(C)               :       -2.732829193606 Eh       
E(XC)              :      -71.729571964739 Eh       

CPCM Solvation Model Properties:
Surface-charge          :         -0.04617187023382
Corrected charge        :         -0.00000000000000
Outlying charge corr.   :          0.00014713109535 Eh               0.00400 eV
Free-energy (cav+disp)  :          0.00483016730749 Eh               0.13144 eV

---------------
SCF CONVERGENCE
---------------

  Last Energy change         ...    1.7324e-05  Tolerance :   1.0000e-06
  Last MAX-Density change    ...    1.8482e-04  Tolerance :   1.0000e-05
  Last RMS-Density change    ...    5.3107e-06  Tolerance :   1.0000e-06
  Last DIIS Error            ...    9.3080e-04  Tolerance :   1.0000e-06
  Last Orbital Gradient      ...    5.3142e-05  Tolerance :   3.3300e-04
  Last Orbital Rotation      ...    1.7792e-04  Tolerance :   3.3300e-04


----------------
ORBITAL ENERGIES
----------------

  NO   OCC          E(Eh)            E(eV) 
   0   2.0000     -14.221329      -386.9820 
   1   2.0000     -14.143133      -384.8542 
   2   2.0000     -10.079373      -274.2737 
   3   2.0000     -10.076327      -274.1908 
   4   2.0000     -10.052745      -273.5491 
   5   2.0000     -10.049509      -273.4610 
   6   2.0000     -10.040615      -273.2190 
   7   2.0000     -10.034663      -273.0571 
   8   2.0000     -10.034267      -273.0463 
   9   2.0000     -10.033886      -273.0359 
  10   2.0000     -10.033625      -273.0288 
  11   2.0000     -10.031843      -272.9803 
  12   2.0000      -0.995005       -27.0755 
  13   2.0000      -0.865958       -23.5639 
  14   2.0000      -0.828433       -22.5428 
  15   2.0000      -0.744232       -20.2516 
  16   2.0000      -0.717495       -19.5240 
  17   2.0000      -0.712529       -19.3889 
  18   2.0000      -0.668417       -18.1886 
  19   2.0000      -0.579924       -15.7805 
  20   2.0000      -0.569480       -15.4963 
  21   2.0000      -0.567437       -15.4407 
  22   2.0000      -0.540149       -14.6982 
  23   2.0000      -0.504671       -13.7328 
  24   2.0000      -0.482339       -13.1251 
  25   2.0000      -0.436758       -11.8848 
  26   2.0000      -0.423053       -11.5118 
  27   2.0000      -0.416042       -11.3211 
  28   2.0000      -0.414423       -11.2770 
  29   2.0000      -0.393364       -10.7040 
  30   2.0000      -0.386976       -10.5301 
  31   2.0000      -0.384112       -10.4522 
  32   2.0000      -0.372892       -10.1469 
  33   2.0000      -0.369075       -10.0430 
  34   2.0000      -0.339412        -9.2359 
  35   2.0000      -0.316888        -8.6230 
  36   2.0000      -0.308924        -8.4062 
  37   2.0000      -0.255780        -6.9601 
  38   2.0000      -0.251458        -6.8425 
  39   2.0000      -0.242127        -6.5886 
  40   2.0000      -0.233205        -6.3458 
  41   2.0000      -0.211703        -5.7607 
  42   0.0000      -0.037186        -1.0119 
  43   0.0000      -0.031531        -0.8580 
  44   0.0000      -0.004947        -0.1346 
  45   0.0000       0.030680         0.8348 
  46   0.0000       0.082606         2.2478 
  47   0.0000       0.094008         2.5581 
  48   0.0000       0.103946         2.8285 
  49   0.0000       0.106731         2.9043 
  50   0.0000       0.119983         3.2649 
  51   0.0000       0.132960         3.6180 
  52   0.0000       0.134244         3.6530 
*Only the first 10 virtual orbitals were printed.

                    ********************************
                    * MULLIKEN POPULATION ANALYSIS *
                    ********************************

-----------------------
MULLIKEN ATOMIC CHARGES
-----------------------
   0 C :   -0.172371
   1 C :   -0.229625
   2 C :   -0.160307
   3 C :    0.196162
   4 C :   -0.289730
   5 C :   -0.177552
   6 C :   -0.441057
   7 N :    0.241099
   8 C :   -0.190273
   9 C :   -0.187857
  10 N :   -0.274639
  11 C :   -0.144241
  12 H :    0.178970
  13 H :    0.177548
  14 H :    0.183077
  15 H :    0.178043
  16 H :    0.178199
  17 H :    0.210137
  18 H :    0.209179
  19 H :    0.178892
  20 H :    0.162785
  21 H :    0.173561
Sum of atomic charges:   -0.0000000

--------------------------------
MULLIKEN REDUCED ORBITAL CHARGES
--------------------------------
  0 C s       :     3.214178  s :     3.214178
      pz      :     0.993949  p :     2.920612
      px      :     0.998540
      py      :     0.928122
      dz2     :     0.003191  d :     0.037581
      dxz     :     0.003547
      dyz     :     0.005599
      dx2y2   :     0.012259
      dxy     :     0.012985

  1 C s       :     3.260634  s :     3.260634
      pz      :     0.987418  p :     2.931083
      px      :     0.906662
      py      :     1.037003
      dz2     :     0.003185  d :     0.037908
      dxz     :     0.007004
      dyz     :     0.002446
      dx2y2   :     0.013524
      dxy     :     0.011749

  2 C s       :     3.204078  s :     3.204078
      pz      :     0.986603  p :     2.918938
      px      :     1.012873
      py      :     0.919463
      dz2     :     0.003296  d :     0.037290
      dxz     :     0.003533
      dyz     :     0.005572
      dx2y2   :     0.012272
      dxy     :     0.012616

  3 C s       :     3.132898  s :     3.132898
      pz      :     0.988826  p :     2.624447
      px      :     0.771391
      py      :     0.864230
      dz2     :     0.003685  d :     0.046493
      dxz     :     0.006111
      dyz     :     0.007075
      dx2y2   :     0.014125
      dxy     :     0.015497

  4 C s       :     3.285286  s :     3.285286
      pz      :     0.994687  p :     2.967245
      px      :     0.920096
      py      :     1.052462
      dz2     :     0.003222  d :     0.037198
      dxz     :     0.006577
      dyz     :     0.002442
      dx2y2   :     0.013480
      dxy     :     0.011478

  5 C s       :     3.230318  s :     3.230318
      pz      :     0.981754  p :     2.909295
      px      :     0.997716
      py      :     0.929824
      dz2     :     0.003282  d :     0.037939
      dxz     :     0.003682
      dyz     :     0.005793
      dx2y2   :     0.012058
      dxy     :     0.013125

  6 C s       :     3.426611  s :     3.426611
      pz      :     1.140428  p :     2.966815
      px      :     0.841812
      py      :     0.984575
      dz2     :     0.008052  d :     0.047631
      dxz     :     0.004923
      dyz     :     0.008299
      dx2y2   :     0.011720
      dxy     :     0.014638

  7 N s       :     3.164056  s :     3.164056
      pz      :     1.020094  p :     3.397258
      px      :     1.100987
      py      :     1.276177
      dz2     :     0.059517  d :     0.197587
      dxz     :     0.023159
      dyz     :     0.042024
      dx2y2   :     0.039762
      dxy     :     0.033125

  8 C s       :     3.307150  s :     3.307150
      pz      :     0.923978  p :     2.834950
      px      :     0.926431
      py      :     0.984541
      dz2     :     0.009302  d :     0.048173
      dxz     :     0.013613
      dyz     :     0.009963
      dx2y2   :     0.009449
      dxy     :     0.005847

  9 C s       :     3.267886  s :     3.267886
      pz      :     0.860208  p :     2.867878
      px      :     0.986675
      py      :     1.020995
      dz2     :     0.014177  d :     0.052093
      dxz     :     0.014139
      dyz     :     0.012585
      dx2y2   :     0.004826
      dxy     :     0.006367

 10 N s       :     3.470020  s :     3.470020
      pz      :     1.225420  p :     3.752501
      px      :     1.310072
      py      :     1.217010
      dz2     :     0.013026  d :     0.052118
      dxz     :     0.006478
      dyz     :     0.008608
      dx2y2   :     0.012529
      dxy     :     0.011478

 11 C s       :     3.300713  s :     3.300713
      pz      :     0.933297  p :     2.775134
      px      :     0.891728
      py      :     0.950109
      dz2     :     0.013289  d :     0.068394
      dxz     :     0.019150
      dyz     :     0.013884
      dx2y2   :     0.012500
      dxy     :     0.009571

 12 H s       :     0.801478  s :     0.801478
      pz      :     0.004099  p :     0.019552
      px      :     0.010105
      py      :     0.005347

 13 H s       :     0.802954  s :     0.802954
      pz      :     0.004023  p :     0.019498
      px      :     0.003047
      py      :     0.012428

 14 H s       :     0.796828  s :     0.796828
      pz      :     0.004092  p :     0.020095
      px      :     0.010420
      py      :     0.005583

 15 H s       :     0.802373  s :     0.802373
      pz      :     0.004084  p :     0.019584
      px      :     0.003055
      py      :     0.012445

 16 H s       :     0.802271  s :     0.802271
      pz      :     0.003935  p :     0.019530
      px      :     0.010088
      py      :     0.005507

 17 H s       :     0.771986  s :     0.771986
      pz      :     0.007265  p :     0.017877
      px      :     0.002674
      py      :     0.007938

 18 H s       :     0.772923  s :     0.772923
      pz      :     0.010240  p :     0.017898
      px      :     0.002721
      py      :     0.004936

 19 H s       :     0.799734  s :     0.799734
      pz      :     0.012965  p :     0.021375
      px      :     0.004363
      py      :     0.004047

 20 H s       :     0.816658  s :     0.816658
      pz      :     0.004484  p :     0.020557
      px      :     0.008417
      py      :     0.007657

 21 H s       :     0.805577  s :     0.805577
      pz      :     0.011732  p :     0.020863
      px      :     0.003895
      py      :     0.005236


------------------------
MULLIKEN OVERLAP CHARGES
------------------------
B(  0-C ,  1-C ) :   0.9051 B(  0-C ,  2-C ) :  -0.1553 B(  0-C ,  3-C ) :  -0.0671 
B(  0-C ,  4-C ) :  -0.1580 B(  0-C ,  5-C ) :   0.9210 B(  0-C , 12-H ) :   0.8359 
B(  0-C , 13-H ) :  -0.0826 B(  0-C , 16-H ) :  -0.0738 B(  1-C ,  2-C ) :   0.9026 
B(  1-C ,  3-C ) :  -0.1653 B(  1-C ,  4-C ) :  -0.1329 B(  1-C ,  5-C ) :  -0.1370 
B(  1-C , 12-H ) :  -0.0771 B(  1-C , 13-H ) :   0.8373 B(  1-C , 14-H ) :  -0.0732 
B(  2-C ,  3-C ) :   0.9435 B(  2-C ,  4-C ) :  -0.1068 B(  2-C ,  5-C ) :  -0.0906 
B(  2-C ,  6-C ) :  -0.1003 B(  2-C , 13-H ) :  -0.0757 B(  2-C , 14-H ) :   0.8487 
B(  3-C ,  4-C ) :   0.8450 B(  3-C ,  5-C ) :  -0.0859 B(  3-C ,  6-C ) :  -0.0795 
B(  3-C ,  7-N ) :  -0.1017 B(  3-C , 14-H ) :  -0.0810 B(  3-C , 15-H ) :  -0.0701 
B(  3-C , 17-H ) :  -0.1198 B(  3-C , 18-H ) :  -0.0828 B(  4-C ,  5-C ) :   0.8059 
B(  4-C ,  6-C ) :  -0.1041 B(  4-C , 15-H ) :   0.8182 B(  4-C , 16-H ) :  -0.0713 
B(  5-C , 12-H ) :  -0.0813 B(  5-C , 15-H ) :  -0.0587 B(  5-C , 16-H ) :   0.8326 
B(  6-C ,  7-N ) :   0.5569 B(  6-C ,  8-C ) :  -0.1128 B(  6-C , 11-C ) :  -0.1694 
B(  6-C , 17-H ) :   0.8669 B(  6-C , 18-H ) :   0.8215 B(  7-N ,  8-C ) :   0.8766 
B(  7-N ,  9-C ) :  -0.2411 B(  7-N , 10-N ) :  -0.2673 B(  7-N , 11-C ) :   0.8726 
B(  7-N , 17-H ) :  -0.0700 B(  7-N , 18-H ) :  -0.0574 B(  7-N , 19-H ) :  -0.0676 
B(  7-N , 21-H ) :  -0.0788 B(  8-C ,  9-C ) :   0.8923 B(  8-C , 10-N ) :  -0.2509 
B(  8-C , 11-C ) :  -0.2361 B(  8-C , 19-H ) :   0.8302 B(  8-C , 20-H ) :  -0.0891 
B(  9-C , 10-N ) :   0.8764 B(  9-C , 11-C ) :  -0.2930 B(  9-C , 19-H ) :  -0.0601 
B(  9-C , 20-H ) :   0.8638 B( 10-N , 11-C ) :   1.1450 B( 10-N , 20-H ) :  -0.0754 
B( 10-N , 21-H ) :  -0.0643 B( 11-C , 21-H ) :   0.8265 


                     *******************************
                     * LOEWDIN POPULATION ANALYSIS *
                     *******************************

----------------------
LOEWDIN ATOMIC CHARGES
----------------------
   0 C :   -0.179759
   1 C :   -0.168491
   2 C :   -0.155996
   3 C :   -0.064464
   4 C :   -0.162430
   5 C :   -0.167418
   6 C :    0.026212
   7 N :   -0.767617
   8 C :    0.071893
   9 C :    0.026561
  10 N :   -0.633626
  11 C :    0.224016
  12 H :    0.177352
  13 H :    0.178311
  14 H :    0.191049
  15 H :    0.183061
  16 H :    0.178484
  17 H :    0.215857
  18 H :    0.216027
  19 H :    0.205413
  20 H :    0.190051
  21 H :    0.215517

-------------------------------
LOEWDIN REDUCED ORBITAL CHARGES
-------------------------------
  0 C s       :     2.907037  s :     2.907037
      pz      :     0.984671  p :     3.190828
      px      :     1.106157
      py      :     1.100001
      dz2     :     0.005455  d :     0.081894
      dxz     :     0.005906
      dyz     :     0.010174
      dx2y2   :     0.029180
      dxy     :     0.031179

  1 C s       :     2.906307  s :     2.906307
      pz      :     0.973222  p :     3.179653
      px      :     1.098075
      py      :     1.108356
      dz2     :     0.005436  d :     0.082531
      dxz     :     0.013084
      dyz     :     0.003648
      dx2y2   :     0.032683
      dxy     :     0.027679

  2 C s       :     2.894988  s :     2.894988
      pz      :     0.993362  p :     3.179505
      px      :     1.101913
      py      :     1.084230
      dz2     :     0.005652  d :     0.081502
      dxz     :     0.005881
      dyz     :     0.010250
      dx2y2   :     0.029244
      dxy     :     0.030475

  3 C s       :     2.865706  s :     2.865706
      pz      :     0.959768  p :     3.102787
      px      :     1.039753
      py      :     1.103266
      dz2     :     0.006668  d :     0.095971
      dxz     :     0.010315
      dyz     :     0.012645
      dx2y2   :     0.031212
      dxy     :     0.035130

  4 C s       :     2.898057  s :     2.898057
      pz      :     0.991123  p :     3.182883
      px      :     1.083382
      py      :     1.108378
      dz2     :     0.005533  d :     0.081490
      dxz     :     0.012271
      dyz     :     0.003720
      dx2y2   :     0.032721
      dxy     :     0.027247

  5 C s       :     2.906458  s :     2.906458
      pz      :     0.971740  p :     3.178370
      px      :     1.104417
      py      :     1.102213
      dz2     :     0.005605  d :     0.082589
      dxz     :     0.006197
      dyz     :     0.010591
      dx2y2   :     0.028722
      dxy     :     0.031474

  6 C s       :     2.822729  s :     2.822729
      pz      :     1.103800  p :     3.045229
      px      :     0.923001
      py      :     1.018428
      dz2     :     0.018598  d :     0.105830
      dxz     :     0.009339
      dyz     :     0.020418
      dx2y2   :     0.025518
      dxy     :     0.031958

  7 N s       :     3.068685  s :     3.068685
      pz      :     1.250422  p :     3.871184
      px      :     1.266700
      py      :     1.354063
      dz2     :     0.177291  d :     0.827748
      dxz     :     0.193511
      dyz     :     0.176528
      dx2y2   :     0.131485
      dxy     :     0.148934

  8 C s       :     2.824528  s :     2.824528
      pz      :     1.018039  p :     2.996203
      px      :     0.995854
      py      :     0.982310
      dz2     :     0.022306  d :     0.107376
      dxz     :     0.030292
      dyz     :     0.021304
      dx2y2   :     0.019641
      dxy     :     0.013831

  9 C s       :     2.835711  s :     2.835711
      pz      :     0.998117  p :     3.024271
      px      :     1.020935
      py      :     1.005219
      dz2     :     0.034017  d :     0.113458
      dxz     :     0.032671
      dyz     :     0.027058
      dx2y2   :     0.007589
      dxy     :     0.012122

 10 N s       :     3.247590  s :     3.247590
      pz      :     1.345538  p :     3.923839
      px      :     1.332391
      py      :     1.245910
      dz2     :     0.108373  d :     0.462197
      dxz     :     0.116252
      dyz     :     0.100345
      dx2y2   :     0.070289
      dxy     :     0.066938

 11 C s       :     2.768026  s :     2.768026
      pz      :     0.973255  p :     2.854429
      px      :     0.944226
      py      :     0.936947
      dz2     :     0.031698  d :     0.153530
      dxz     :     0.043989
      dyz     :     0.028804
      dx2y2   :     0.025341
      dxy     :     0.023698

 12 H s       :     0.776946  s :     0.776946
      pz      :     0.009156  p :     0.045702
      px      :     0.024031
      py      :     0.012515

 13 H s       :     0.776155  s :     0.776155
      pz      :     0.008958  p :     0.045535
      px      :     0.006952
      py      :     0.029625

 14 H s       :     0.762142  s :     0.762142
      pz      :     0.009088  p :     0.046808
      px      :     0.024992
      py      :     0.012728

 15 H s       :     0.771234  s :     0.771234
      pz      :     0.009152  p :     0.045706
      px      :     0.006831
      py      :     0.029723

 16 H s       :     0.775995  s :     0.775995
      pz      :     0.008702  p :     0.045521
      px      :     0.023917
      py      :     0.012903

 17 H s       :     0.742784  s :     0.742784
      pz      :     0.017770  p :     0.041359
      px      :     0.005734
      py      :     0.017856

 18 H s       :     0.742559  s :     0.742559
      pz      :     0.024800  p :     0.041414
      px      :     0.005850
      py      :     0.010764

 19 H s       :     0.747987  s :     0.747987
      pz      :     0.027398  p :     0.046600
      px      :     0.010130
      py      :     0.009071

 20 H s       :     0.765392  s :     0.765392
      pz      :     0.008905  p :     0.044557
      px      :     0.018830
      py      :     0.016822

 21 H s       :     0.741570  s :     0.741570
      pz      :     0.023812  p :     0.042914
      px      :     0.008099
      py      :     0.011002


---------------------------------
LOEWDIN BOND ORDERS (THRESH 0.050000)
---------------------------------
B(  0-C ,  1-C ) :   1.5175 B(  0-C ,  2-C ) :   0.0904 B(  0-C ,  3-C ) :   0.1279 
B(  0-C ,  4-C ) :   0.0893 B(  0-C ,  5-C ) :   1.4986 B(  0-C , 12-H ) :   0.8713 
B(  0-C , 13-H ) :   0.0538 B(  0-C , 16-H ) :   0.0535 B(  1-C ,  2-C ) :   1.5009 
B(  1-C ,  3-C ) :   0.0914 B(  1-C ,  4-C ) :   0.1336 B(  1-C ,  5-C ) :   0.0884 
B(  1-C , 12-H ) :   0.0543 B(  1-C , 13-H ) :   0.8691 B(  1-C , 14-H ) :   0.0527 
B(  2-C ,  3-C ) :   1.4454 B(  2-C ,  4-C ) :   0.0849 B(  2-C ,  5-C ) :   0.1282 
B(  2-C ,  6-C ) :   0.0748 B(  2-C ,  7-N ) :   0.0504 B(  2-C , 13-H ) :   0.0549 
B(  2-C , 14-H ) :   0.8444 B(  3-C ,  4-C ) :   1.4352 B(  3-C ,  5-C ) :   0.0917 
B(  3-C ,  6-C ) :   0.9790 B(  3-C ,  7-N ) :   0.1454 B(  3-C , 14-H ) :   0.0503 
B(  3-C , 15-H ) :   0.0530 B(  4-C ,  5-C ) :   1.5245 B(  4-C ,  6-C ) :   0.0909 
B(  4-C , 15-H ) :   0.8603 B(  4-C , 16-H ) :   0.0553 B(  5-C , 12-H ) :   0.0538 
B(  5-C , 15-H ) :   0.0532 B(  5-C , 16-H ) :   0.8693 B(  6-C ,  7-N ) :   1.2944 
B(  6-C ,  8-C ) :   0.0718 B(  6-C , 11-C ) :   0.0760 B(  6-C , 17-H ) :   0.7955 
B(  6-C , 18-H ) :   0.7944 B(  7-N ,  8-C ) :   1.5124 B(  7-N ,  9-C ) :   0.2869 
B(  7-N , 10-N ) :   0.4750 B(  7-N , 11-C ) :   1.4625 B(  7-N , 17-H ) :   0.0949 
B(  7-N , 18-H ) :   0.0950 B(  7-N , 19-H ) :   0.0949 B(  7-N , 21-H ) :   0.0909 
B(  8-C ,  9-C ) :   1.4060 B(  8-C , 10-N ) :   0.2574 B(  8-C , 11-C ) :   0.1622 
B(  8-C , 19-H ) :   0.8123 B(  8-C , 20-H ) :   0.0551 B(  9-C , 10-N ) :   1.6567 
B(  9-C , 11-C ) :   0.1428 B(  9-C , 19-H ) :   0.0531 B(  9-C , 20-H ) :   0.8240 
B( 10-N , 11-C ) :   1.8081 B( 10-N , 20-H ) :   0.0968 B( 10-N , 21-H ) :   0.0918 
B( 11-C , 21-H ) :   0.7638 

------------------------------------------
LOEWDIN REDUCED ORBITAL POPULATIONS PER MO
-------------------------------------------
THRESHOLD FOR PRINTING IS 0.1%%
                      0         1         2         3         4         5   
                 -14.22133 -14.14313 -10.07937 -10.07633 -10.05275 -10.04951
                   2.00000   2.00000   2.00000   2.00000   2.00000   2.00000
                  --------  --------  --------  --------  --------  --------
 2 C  py              0.0       0.0       0.0       0.0       0.0       0.1
 3 C  s               0.0       0.0       0.0       0.0       0.0      99.5
 4 C  px              0.0       0.0       0.0       0.0       0.0       0.1
 6 C  s               0.0       0.0      99.4       0.0       0.0       0.0
 7 N  s              99.7       0.0       0.0       0.0       0.0       0.0
 7 N  dxz             0.0       0.0       0.0       0.2       0.1       0.0
 7 N  dyz             0.0       0.0       0.0       0.0       0.1       0.0
 7 N  dxy             0.0       0.0       0.2       0.0       0.1       0.0
 8 C  s               0.0       0.0       0.0       0.0      99.2       0.0
10 N  s               0.0      99.8       0.0       0.0       0.0       0.0
10 N  dxy             0.0       0.0       0.0       0.2       0.0       0.0
11 C  s               0.0       0.0       0.0      99.0       0.0       0.0

                      6         7         8         9        10        11   
                 -10.04061 -10.03466 -10.03427 -10.03389 -10.03362 -10.03184
                   2.00000   2.00000   2.00000   2.00000   2.00000   2.00000
                  --------  --------  --------  --------  --------  --------
 0 C  s               0.0       0.7       0.8       0.1       0.3      97.8
 0 C  py              0.0       0.1       0.0       0.0       0.0       0.0
 1 C  s               0.0       0.1      83.8       0.1      14.6       1.1
 2 C  s               0.0       0.0      14.8       0.0      84.7       0.0
 3 C  py              0.0       0.0       0.0       0.0       0.1       0.0
 4 C  s               0.0      10.3       0.2      89.1       0.0       0.0
 5 C  s               0.0      88.5       0.1      10.3       0.0       0.7
 5 C  py              0.0       0.0       0.0       0.0       0.0       0.1
 9 C  s              99.2       0.0       0.0       0.0       0.0       0.0
10 N  pz              0.1       0.0       0.0       0.0       0.0       0.0
10 N  dz2             0.3       0.0       0.0       0.0       0.0       0.0

                     12        13        14        15        16        17   
                  -0.99501  -0.86596  -0.82843  -0.74423  -0.71750  -0.71253
                   2.00000   2.00000   2.00000   2.00000   2.00000   2.00000
                  --------  --------  --------  --------  --------  --------
 0 C  s               0.0       0.3      10.5      11.6       0.0       2.7
 0 C  px              0.0       0.1       1.9       0.3       2.3       0.0
 0 C  py              0.0       0.0       0.6       0.1       7.0       0.1
 0 C  dz2             0.0       0.0       0.1       0.1       0.0       0.0
 0 C  dx2y2           0.0       0.0       0.0       0.0       0.2       0.0
 1 C  s               0.0       0.5      10.6       5.4      13.6       0.2
 1 C  px              0.0       0.0       0.0       2.5       2.6       1.4
 1 C  py              0.0       0.2       2.5       0.2       0.2       0.0
 1 C  dz2             0.0       0.0       0.1       0.0       0.1       0.0
 2 C  s               0.1       1.3      10.8       0.4      14.6       1.4
 2 C  px              0.1       0.0       2.0       1.8       0.8       0.2
 2 C  py              0.1       0.5       0.7       3.8       1.5       0.5
 2 C  dz2             0.0       0.0       0.1       0.0       0.1       0.0
 2 C  dx2y2           0.0       0.0       0.0       0.1       0.0       0.0
 3 C  s               0.3       3.6      11.5      11.6       0.0       2.3
 3 C  px              0.5       0.5       2.4       1.3       2.5       0.1
 3 C  py              0.0       0.0       0.5       1.1       7.9       0.1
 3 C  dz2             0.0       0.0       0.1       0.1       0.0       0.0
 3 C  dx2y2           0.0       0.0       0.0       0.0       0.2       0.0
 4 C  s               0.0       1.1      11.5       1.2      14.1       0.2
 4 C  px              0.0       0.3       0.0       5.6       2.4       1.2
 4 C  py              0.0       0.2       2.6       0.1       0.2       0.0
 4 C  dz2             0.0       0.0       0.1       0.0       0.1       0.0
 4 C  dxy             0.0       0.0       0.0       0.1       0.1       0.0
 5 C  s               0.0       0.4      10.8       4.1      14.2       1.3
 5 C  px              0.0       0.2       2.0       0.4       0.9       0.2
 5 C  py              0.0       0.0       0.6       2.8       1.6       0.6
 5 C  dz2             0.0       0.0       0.1       0.0       0.1       0.0
 6 C  s               3.1       9.0       0.3       9.9       0.0       0.1
 6 C  pz              0.1       0.0       0.0       0.1       0.0       0.8
 6 C  px              2.3       0.7       2.6       2.4       0.1       1.1
 6 C  py              1.1       1.2       0.1       0.1       0.2       0.1
 6 C  dxy             0.1       0.1       0.1       0.1       0.0       0.0
 7 N  s              28.8      13.1       2.2       1.2       0.0       0.7
 7 N  pz              0.1       0.6       0.1       0.9       0.2      13.5
 7 N  px              0.9       3.8       0.0       4.1       0.1       0.4
 7 N  py              0.6       1.2       0.0       2.0       0.0       1.8
 7 N  dz2             0.0       0.0       0.1       0.5       0.0       0.2
 7 N  dxz             0.1       0.2       0.0       0.4       0.0       1.7
 7 N  dyz             0.0       0.1       0.0       0.3       0.0       0.9
 7 N  dx2y2           0.1       0.0       0.1       0.4       0.0       0.0
 7 N  dxy             1.2       0.1       0.0       0.4       0.0       0.2
 8 C  s               8.3       0.2       0.2       3.8       0.3      15.8
 8 C  pz              5.3       0.1       0.1       0.5       0.0       0.4
 8 C  px              0.2       3.4       0.3       0.0       0.0       0.8
 8 C  py              0.5       1.8       0.2       0.1       0.0       0.6
 8 C  dxz             0.0       0.2       0.0       0.0       0.0       0.0
 8 C  dyz             0.1       0.1       0.0       0.0       0.0       0.0
 8 C  dxy             0.1       0.0       0.0       0.0       0.0       0.1
 9 C  s               5.4       6.1       0.5       0.0       0.1      11.0
 9 C  pz              1.2       4.5       0.6       1.7       0.1       2.5
 9 C  px              1.5       0.1       0.0       0.7       0.0       1.0
 9 C  py              1.3       0.2       0.0       0.2       0.0       0.2
 9 C  dz2             0.1       0.4       0.0       0.1       0.0       0.0
 9 C  dxy             0.1       0.0       0.0       0.0       0.0       0.1
10 N  s              10.2      22.7       2.6       3.9       0.1       0.9
10 N  pz              1.0       1.3       0.1       0.2       0.1       5.1
10 N  px              1.9       0.8       0.1       0.1       0.0       1.6
10 N  py              0.7       0.2       0.0       0.0       0.0       1.9
10 N  dz2             0.0       0.2       0.0       0.0       0.0       2.1
10 N  dxz             0.2       0.0       0.0       0.2       0.0       0.3
10 N  dx2y2           0.1       0.0       0.0       0.0       0.0       0.0
10 N  dxy             0.9       0.0       0.0       0.0       0.0       0.5
11 C  s              12.6       1.6       0.1       0.3       0.1       9.8
11 C  pz              5.8       0.4       0.2       0.8       0.0       1.0
11 C  px              0.0       8.0       0.9       0.7       0.0       0.1
11 C  py              0.2       3.9       0.5       0.3       0.0       0.3
11 C  dz2             0.1       0.2       0.1       0.2       0.0       0.0
11 C  dxz             0.1       0.3       0.0       0.0       0.0       0.1
11 C  dyz             0.0       0.1       0.0       0.0       0.0       0.0
11 C  dxy             0.2       0.2       0.0       0.1       0.0       0.2
12 H  s               0.0       0.0       0.9       1.6       0.0       0.5
12 H  px              0.0       0.0       0.0       0.1       0.0       0.0
13 H  s               0.0       0.0       0.9       0.7       2.3       0.0
13 H  py              0.0       0.0       0.1       0.1       0.2       0.0
14 H  s               0.0       0.2       0.9       0.1       2.5       0.2
14 H  px              0.0       0.0       0.0       0.0       0.2       0.0
15 H  s               0.0       0.1       1.0       0.3       2.4       0.0
15 H  py              0.0       0.0       0.1       0.0       0.2       0.0
16 H  s               0.0       0.0       1.0       0.6       2.4       0.2
16 H  px              0.0       0.0       0.1       0.0       0.2       0.0
17 H  s               0.2       0.9       0.0       1.8       0.0       0.1
17 H  py              0.0       0.1       0.0       0.1       0.0       0.0
18 H  s               0.2       0.9       0.0       1.5       0.0       0.0
18 H  pz              0.0       0.1       0.0       0.1       0.0       0.0
19 H  s               0.4       0.0       0.0       0.5       0.0       2.9
19 H  pz              0.0       0.0       0.0       0.0       0.0       0.2
20 H  s               0.3       0.5       0.0       0.0       0.0       1.9
21 H  s               0.7       0.1       0.0       0.1       0.0       2.5
21 H  pz              0.0       0.0       0.0       0.0       0.0       0.2

                     18        19        20        21        22        23   
                  -0.66842  -0.57992  -0.56948  -0.56744  -0.54015  -0.50467
                   2.00000   2.00000   2.00000   2.00000   2.00000   2.00000
                  --------  --------  --------  --------  --------  --------
 0 C  s               8.0       0.6       2.2       4.3       0.5       0.1
 0 C  px              0.2       1.9       1.1       2.4       0.0       2.9
 0 C  py              0.1      10.0       0.1       0.2       0.4       0.0
 0 C  dx2y2           0.0       0.1       0.0       0.0       0.0       0.0
 1 C  s               0.8       4.8       1.5       3.7       0.2       0.4
 1 C  px              4.9       5.4       1.7       2.9       1.7       1.2
 1 C  py              0.0       1.2       0.5       1.4       0.3       3.5
 1 C  dxy             0.1       0.1       0.0       0.0       0.0       0.0
 2 C  s               3.5       6.8       0.1       0.1       0.5       0.8
 2 C  pz              0.0       0.0       0.1       0.0       0.0       0.0
 2 C  px              0.1       3.8       0.7       1.5       0.1       2.3
 2 C  py              0.5       0.2       3.0       6.9       2.1       4.1
 2 C  dx2y2           0.0       0.0       0.0       0.1       0.0       0.0
 3 C  s               1.5       0.5       2.0       4.3       0.8       0.1
 3 C  pz              0.1       0.1       0.1       0.1       0.0       0.1
 3 C  px              5.6       2.1       0.6       1.1       1.1       4.9
 3 C  py              2.1      12.6       0.1       0.4       0.1       2.0
 3 C  dxy             0.2       0.0       0.0       0.0       0.0       0.0
 4 C  s               3.8       3.2       1.5       3.3       0.0       0.2
 4 C  px              0.2       7.7       1.7       3.3       1.7       0.2
 4 C  py              0.1       1.4       0.5       1.4       0.4       3.8
 4 C  dxy             0.0       0.1       0.0       0.1       0.0       0.0
 5 C  s               0.3       8.0       0.1       0.1       1.2       1.5
 5 C  pz              0.1       0.0       0.0       0.1       0.0       0.0
 5 C  px              1.6       2.5       0.7       1.5       0.5       5.9
 5 C  py              3.4       0.1       3.2       6.8       0.9       0.9
 5 C  dx2y2           0.1       0.0       0.0       0.1       0.0       0.0
 6 C  s              13.3       0.1       0.0       0.1       1.5       1.1
 6 C  pz              0.2       0.0       1.9       1.8       0.0       0.0
 6 C  px              0.5       2.4       2.1       3.5       0.2       8.3
 6 C  py              0.6       1.7       0.4       0.3       1.6       2.4
 6 C  dxy             0.0       0.0       0.1       0.2       0.0       0.2
 7 N  s               0.4       0.2       0.5       0.4       3.0       0.7
 7 N  pz              2.6       0.3      11.7      10.9       0.4       0.8
 7 N  px              7.8       2.4       0.4       0.8       0.1       4.7
 7 N  py              4.0       0.2       2.6       0.6       0.3       3.8
 7 N  dz2             0.8       0.1       0.1       0.0       1.2       1.5
 7 N  dxz             0.0       0.0       0.1       0.1       0.0       0.0
 7 N  dyz             0.0       0.0       0.0       0.1       0.3       0.1
 7 N  dx2y2           0.1       0.0       0.1       0.1       0.0       0.1
 7 N  dxy             1.6       0.2       0.0       0.0       0.2       0.3
 8 C  s               0.1       0.4       2.7       0.0       6.6       0.5
 8 C  pz              0.6       0.0       0.7       0.1       7.0       4.7
 8 C  px              0.1       0.3       4.8       4.2       1.7       0.4
 8 C  py              0.1       0.0       1.9       2.9       2.1       0.1
 8 C  dxz             0.0       0.0       0.1       0.1       0.1       0.0
 9 C  s               3.1       0.0       8.6       2.8       0.7       0.9
 9 C  pz              0.5       0.7       0.1       2.4      10.4       0.2
 9 C  px              0.6       0.5       2.7       0.1       1.3       2.5
 9 C  py              0.2       0.2       1.5       0.1       0.1       1.3
 9 C  dz2             0.1       0.0       0.0       0.1       0.1       0.0
10 N  s               2.4       0.7       0.8       3.0       0.8       1.2
10 N  pz              1.1       0.1       6.4       1.0       5.0       0.9
10 N  px              1.4       0.4       2.4       0.2       1.8       1.0
10 N  py              1.1       0.4       2.5       0.1       2.0       0.2
10 N  dz2             0.5       0.0       0.4       0.1       0.1       0.0
10 N  dxz             0.1       0.0       0.1       0.0       0.3       0.8
10 N  dyz             0.1       0.0       0.1       0.0       0.3       0.4
10 N  dxy             0.4       0.1       0.1       0.1       0.2       0.0
11 C  s               2.9       0.6       0.1       1.2       6.7       0.6
11 C  pz              0.7       0.0       1.2       0.2       9.4       4.9
11 C  px              0.8       0.0       5.8       3.8       0.1       0.1
11 C  py              0.2       0.1       3.0       1.4       0.4       0.4
11 C  dz2             0.2       0.0       0.0       0.1       0.0       0.0
12 H  s               1.9       0.3       1.2       2.3       0.2       0.5
12 H  px              0.1       0.0       0.1       0.1       0.0       0.0
13 H  s               0.2       2.4       0.9       2.1       0.3       1.4
13 H  py              0.0       0.2       0.1       0.2       0.0       0.1
14 H  s               0.6       3.7       0.0       0.1       0.7       2.6
14 H  px              0.0       0.2       0.0       0.0       0.0       0.1
14 H  py              0.0       0.1       0.0       0.0       0.0       0.0
15 H  s               0.6       2.0       0.8       2.0       0.0       0.7
15 H  py              0.1       0.1       0.1       0.1       0.0       0.0
16 H  s               0.1       3.9       0.1       0.1       1.1       3.6
16 H  px              0.0       0.2       0.0       0.0       0.1       0.1
17 H  s               3.1       0.4       0.4       0.0       1.4       1.5
17 H  pz              0.2       0.0       0.0       0.0       0.0       0.1
17 H  py              0.1       0.0       0.0       0.0       0.0       0.0
18 H  s               3.8       0.1       0.2       0.6       0.8       0.9
18 H  pz              0.3       0.0       0.0       0.0       0.0       0.1
19 H  s               0.0       0.1       2.0       0.2       6.1       2.4
19 H  pz              0.0       0.0       0.2       0.0       0.3       0.1
20 H  s               0.9       0.1       5.5       1.5       0.4       2.2
20 H  px              0.0       0.0       0.2       0.1       0.0       0.0
20 H  py              0.0       0.0       0.1       0.0       0.0       0.0
21 H  s               0.6       0.2       0.0       0.8       8.6       2.4
21 H  pz              0.0       0.0       0.0       0.1       0.3       0.1

                     24        25        26        27        28        29   
                  -0.48234  -0.43676  -0.42305  -0.41604  -0.41442  -0.39336
                   2.00000   2.00000   2.00000   2.00000   2.00000   2.00000
                  --------  --------  --------  --------  --------  --------
 0 C  s               1.1       1.1       0.8       0.4       1.0       0.0
 0 C  pz              0.1       0.0       0.2       0.0       0.1       0.1
 0 C  px              4.4      11.6       0.3       0.4       0.7       4.0
 0 C  py              6.4       0.1       1.7       6.4       3.3       1.1
 0 C  dxy             0.0       0.1       0.1       0.0       0.1       0.0
 1 C  s               0.2       1.2       0.8       0.3       0.6       0.0
 1 C  pz              0.1       0.0       0.1       0.1       0.1       0.1
 1 C  px              2.1       3.6       0.7       5.4       0.7       3.1
 1 C  py              6.2       0.3       1.8       1.2       6.0       2.7
 1 C  dx2y2           0.0       0.1       0.1       0.1       0.1       0.0
 2 C  s               0.1       2.3       0.8       0.5       0.2       0.1
 2 C  pz              0.0       0.0       0.4       0.7       0.0       0.3
 2 C  px              7.0       0.2       2.0       2.6       1.5       0.4
 2 C  py              0.1       2.3       0.1       2.9       8.5       1.1
 2 C  dx2y2           0.0       0.0       0.0       0.0       0.4       0.0
 3 C  s               0.3       0.1       0.8       0.4       2.8       0.1
 3 C  pz              0.0       0.1       3.5       1.6       0.3       0.5
 3 C  px              1.3       5.4       0.1       0.6       0.0       3.1
 3 C  py              0.1       0.2       1.5       7.2       2.9       0.9
 3 C  dx2y2           0.0       0.1       0.0       0.1       0.0       0.1
 3 C  dxy             0.2       0.2       0.1       0.0       0.0       0.1
 4 C  s               1.8       0.6       0.9       0.3       0.5       0.2
 4 C  pz              0.1       0.2       0.6       0.5       0.1       0.2
 4 C  px              0.1       5.9       0.8       6.9       0.2       3.3
 4 C  py              6.4       2.2       2.1       1.2       1.4       1.3
 4 C  dx2y2           0.0       0.1       0.1       0.1       0.1       0.0
 4 C  dxy             0.0       0.1       0.0       0.0       0.1       0.0
 5 C  s               0.3       0.8       0.8       0.4       0.6       0.0
 5 C  pz              0.0       0.0       0.1       0.3       0.0       0.1
 5 C  px              1.0       2.0       2.4       3.3       5.8       0.2
 5 C  py              2.0       2.6       0.0       3.1       7.6       1.6
 5 C  dx2y2           0.0       0.0       0.0       0.0       0.2       0.0
 5 C  dxy             0.1       0.0       0.1       0.1       0.0       0.0
 6 C  s               1.7       0.3       0.0       0.1       0.1       0.2
 6 C  pz              0.2       1.3      12.9       9.3       0.7       1.1
 6 C  px              0.1       1.2       3.8       1.0       0.3       4.4
 6 C  py             12.2       5.7       0.9       0.2       0.1       2.7
 6 C  dz2             0.2       0.0       0.0       0.0       0.0       0.1
 6 C  dxy             0.0       0.0       0.0       0.0       0.0       0.2
 7 N  s               0.4       0.2       0.1       0.1       0.0       0.3
 7 N  pz              0.1       1.1       2.1       1.0       0.0       2.4
 7 N  px              5.2       6.2       0.9       0.4       2.7       5.3
 7 N  py              2.0       5.9       3.0       0.8       8.1       1.5
 7 N  dz2             0.3       0.4       0.5       0.5       0.0       1.4
 7 N  dxz             0.0       0.1       1.1       0.6       0.1       0.1
 7 N  dyz             0.0       0.0       0.5       0.6       0.1       0.0
[...]
10 N  dx2y2           0.4       0.6       0.7       0.0       0.1       0.6
10 N  dxy             0.8       1.9      13.3       0.2       0.3       5.7
11 C  s               2.8       0.9       8.7       1.0       0.1       0.4
11 C  pz              0.1       0.2       3.4       4.5       0.1       0.2
11 C  px              0.5       0.0       0.9       0.3       0.1       3.6
11 C  py              0.2       0.0       1.1       0.0       0.1       1.8
11 C  dz2             6.5       1.3       0.0       0.1       0.0       3.9
11 C  dxz             0.5       1.3       0.7       5.0       0.2       1.3
11 C  dyz             2.2       1.7       0.0       2.8       0.1       0.2
11 C  dx2y2           0.0       0.0       0.6       0.3       0.0       0.0
11 C  dxy             0.1       0.2       4.7       0.2       0.1       2.0
12 H  s               0.0       0.0       0.0       0.1       2.6       0.0
12 H  px              0.0       0.1       0.1       0.2       3.5       0.0
12 H  py              0.0       0.0       0.0       0.0       1.2       0.0
13 H  s               0.0       0.0       0.0       0.1       2.4       0.0
13 H  py              0.0       0.0       0.0       0.1       4.4       0.0
14 H  s               0.0       0.0       0.0       0.0       2.1       0.1
14 H  px              0.3       0.1       0.0       0.0       2.8       0.2
14 H  py              0.0       0.0       0.0       0.1       1.2       0.0
15 H  s               0.0       0.0       0.0       0.1       1.8       0.0
15 H  py              0.0       0.1       0.0       0.1       3.4       0.1
16 H  s               0.0       0.0       0.0       0.1       2.2       0.0
16 H  px              0.1       0.1       0.1       0.2       3.1       0.0
16 H  py              0.0       0.0       0.0       0.1       1.0       0.0
17 H  s               0.1       0.2       0.0       0.4       0.0       0.0
17 H  pz              0.1       0.3       0.2       0.5       0.0       0.0
17 H  px              0.1       0.0       0.1       0.2       0.0       0.0
17 H  py              0.1       0.1       0.0       0.1       0.0       0.0
18 H  s               0.0       0.1       0.1       0.2       0.0       0.0
18 H  pz              0.1       0.2       0.1       0.5       0.0       0.0
18 H  px              0.1       0.2       0.0       0.0       0.0       0.0
19 H  s               0.1       2.0       1.0       0.9       0.0       1.6
19 H  pz              0.2       4.7       1.5       1.9       0.0       2.2
19 H  px              0.1       0.3       0.1       0.3       0.0       0.2
20 H  s               0.0       3.4       1.0       0.3       0.0       1.2
20 H  pz              0.0       1.1       0.5       0.2       0.0       0.4
20 H  px              0.0       3.8       1.0       0.2       0.0       0.7
20 H  py              0.0       2.8       0.8       0.2       0.0       0.6
21 H  s               2.5       1.1       0.2       1.6       0.0       0.1
21 H  pz              4.5       2.0       0.0       1.7       0.0       0.0
21 H  px              0.4       0.1       0.0       0.3       0.0       0.0
21 H  py              0.8       0.3       0.0       0.4       0.0       0.0

                    276       277       278       279       280       281   
                  21.38024  21.92020  21.92686  21.97800  22.14667  22.19176
                   0.00000   0.00000   0.00000   0.00000   0.00000   0.00000
                  --------  --------  --------  --------  --------  --------
 0 C  s              16.5      27.7       0.1       0.0      28.2       0.0
 1 C  s              17.2       7.1       0.6      26.0       0.5      17.2
 2 C  s              15.6       4.6       0.1      23.8      15.3      18.2
 3 C  s              17.7      41.1       0.0       0.0      13.3       0.2
 3 C  py              0.0       0.0       0.0       0.1       0.0       0.0
 4 C  s              16.2       6.0       0.2      22.8       5.3      22.4
 5 C  s              16.5      10.2       0.5      25.4       5.9      17.0
 6 C  s               0.0       2.7       0.6       0.0      28.3       0.4
 7 N  s               0.0       0.0       0.2       0.0       0.0       0.0
 8 C  s               0.0       0.0      40.4       0.4       0.0       1.2
 9 C  s               0.0       0.0      53.4       1.0       0.4       0.4
11 C  s               0.0       0.1       3.3       0.0       2.5      22.6

                    282       283       284       285       286       287   
                  22.20598  22.23504  22.26942  22.34559  31.90817  32.03321
                   0.00000   0.00000   0.00000   0.00000   0.00000   0.00000
                  --------  --------  --------  --------  --------  --------
 0 C  s               5.4       7.2       0.1      14.5       0.0       0.0
 1 C  s              11.9       1.4       0.2      17.5       0.0       0.0
 2 C  s               1.4       1.9       0.0      18.8       0.0       0.0
 3 C  s               6.2       5.9       0.2      15.1       0.0       0.0
 4 C  s               9.3       0.1       0.6      16.6       0.0       0.0
 5 C  s               0.5       8.6       0.7      14.3       0.0       0.0
 6 C  s               5.1      59.8       0.0       2.4       0.0       0.0
 7 N  s               0.0       0.0       0.1       0.0      28.5      71.2
 8 C  s               7.5       2.9      46.8       0.1       0.0       0.1
 9 C  s               1.0       0.0      43.0       0.3       0.0       0.1
10 N  s               0.1       0.0       0.0       0.0      71.3      28.5
11 C  s              51.2      11.6       7.8       0.0       0.1       0.0



                      *****************************
                      * MAYER POPULATION ANALYSIS *
                      *****************************

  NA   - Mulliken gross atomic population
  ZA   - Total nuclear charge
  QA   - Mulliken gross atomic charge
  VA   - Mayer's total valence
  BVA  - Mayer's bonded valence
  FA   - Mayer's free valence

  ATOM       NA         ZA         QA         VA         BVA        FA
  0 C      6.1724     6.0000    -0.1724     3.7365     3.7365    -0.0000
  1 C      6.2296     6.0000    -0.2296     3.7429     3.7429    -0.0000
  2 C      6.1603     6.0000    -0.1603     3.8022     3.8022    -0.0000
  3 C      5.8038     6.0000     0.1962     3.4236     3.4236     0.0000
  4 C      6.2897     6.0000    -0.2897     3.7861     3.7861     0.0000
  5 C      6.1776     6.0000    -0.1776     3.7393     3.7393    -0.0000
  6 C      6.4411     6.0000    -0.4411     3.6884     3.6884    -0.0000
  7 N      6.7589     7.0000     0.2411     3.4362     3.4362     0.0000
  8 C      6.1903     6.0000    -0.1903     3.7235     3.7235    -0.0000
  9 C      6.1879     6.0000    -0.1879     3.8018     3.8018     0.0000
 10 N      7.2746     7.0000    -0.2746     2.9204     2.9204     0.0000
 11 C      6.1442     6.0000    -0.1442     3.9818     3.9818    -0.0000
 12 H      0.8210     1.0000     0.1790     0.9582     0.9582    -0.0000
 13 H      0.8225     1.0000     0.1775     0.9590     0.9590    -0.0000
 14 H      0.8169     1.0000     0.1831     0.9549     0.9549     0.0000
 15 H      0.8220     1.0000     0.1780     0.9607     0.9607    -0.0000
 16 H      0.8218     1.0000     0.1782     0.9588     0.9588    -0.0000
 17 H      0.7899     1.0000     0.2101     0.9407     0.9407    -0.0000
 18 H      0.7908     1.0000     0.2092     0.9391     0.9391     0.0000
 19 H      0.8211     1.0000     0.1789     0.9665     0.9665    -0.0000
 20 H      0.8372     1.0000     0.1628     0.9672     0.9672    -0.0000
 21 H      0.8264     1.0000     0.1736     0.9665     0.9665    -0.0000

  Mayer bond orders larger than 0.100000
B(  0-C ,  1-C ) :   1.3857 B(  0-C ,  5-C ) :   1.3746 B(  0-C , 12-H ) :   0.9559 
B(  1-C ,  2-C ) :   1.3785 B(  1-C , 13-H ) :   0.9599 B(  2-C ,  3-C ) :   1.4040 
B(  2-C , 14-H ) :   0.9506 B(  3-C ,  4-C ) :   1.3915 B(  3-C ,  6-C ) :   0.7561 
B(  4-C ,  5-C ) :   1.3928 B(  4-C , 15-H ) :   0.9487 B(  5-C , 16-H ) :   0.9576 
B(  6-C ,  7-N ) :   1.0034 B(  6-C , 17-H ) :   0.9700 B(  6-C , 18-H ) :   0.9506 
B(  7-N ,  8-C ) :   1.1933 B(  7-N , 11-C ) :   1.2450 B(  8-C ,  9-C ) :   1.4737 
B(  8-C , 19-H ) :   0.9566 B(  9-C , 10-N ) :   1.2929 B(  9-C , 20-H ) :   0.9729 
B( 10-N , 11-C ) :   1.6058 B( 11-C , 21-H ) :   0.9479 

-------
TIMINGS
-------

Total SCF time: 0 days 0 hours 0 min 58 sec 

Total time                  ....      58.086 sec
Sum of individual times     ....      57.463 sec  ( 98.9%)

SCF preparation             ....       0.468 sec  (  0.8%)
Fock matrix formation       ....      55.656 sec  ( 95.8%)
  Startup                   ....       0.074 sec  (  0.1% of F)
  Split-RI-J                ....      10.950 sec  ( 19.7% of F)
  XC integration            ....      32.657 sec  ( 58.7% of F)
    XC Preparation          ....       0.000 sec  (  0.0% of XC)
    Basis function eval.    ....       5.790 sec  ( 17.7% of XC)
    Density eval.           ....      10.867 sec  ( 33.3% of XC)
    XC-Functional eval.     ....       3.252 sec  ( 10.0% of XC)
    XC-Potential eval.      ....      11.434 sec  ( 35.0% of XC)
  CPCM terms                ....      11.078 sec  ( 19.9% of F)
Diagonalization             ....       0.000 sec  (  0.0%)
Density matrix formation    ....       0.310 sec  (  0.5%)
Total Energy calculation    ....       0.059 sec  (  0.1%)
Population analysis         ....       0.178 sec  (  0.3%)
Orbital Transformation      ....       0.077 sec  (  0.1%)
Orbital Orthonormalization  ....       0.000 sec  (  0.0%)
DIIS solution               ....       0.540 sec  (  0.9%)
  MO trafo                  ....       0.000 sec  (  0.0 % of DIIS)
  Orb grad                  ....       0.000 sec  (  0.0 % of DIIS)
  Energy W gradient         ....       0.000 sec  (  0.0 % of DIIS)
  DIIS error                ....       0.029 sec  (  5.3 % of DIIS)
  DIIS work                 ....       0.448 sec  ( 83.0 % of DIIS)
  Form Q                    ....       0.000 sec  (  0.0 % of DIIS)
  Form QpQm                 ....       0.000 sec  (  0.0 % of DIIS)
  Exp/Cayley                ....       0.000 sec  (  0.0 % of DIIS)
  Orb update                ....       0.000 sec  (  0.0 % of DIIS)
  Wake-sleep                ....       0.024 sec  (  4.4 % of DIIS)
SOSCF solution              ....       0.175 sec  (  0.3%)
  MO trafo                  ....       0.081 sec  ( 46.5 % of SOSCF)
  Orb grad                  ....       0.003 sec  (  1.5 % of SOSCF)
  Rot update                ....       0.039 sec  ( 22.0 % of SOSCF)
  Step                      ....       0.052 sec  ( 29.9 % of SOSCF)
Finished LeanSCF after  58.2 sec

Maximum memory used throughout the entire LEANSCF-calculation: 42.1 MB


-------------------------------------------------------------------------------
                          DFT DISPERSION CORRECTION                            
                                                                               
                                DFTD4 V3.4.0                                   
-------------------------------------------------------------------------------
The R2SCAN3C composite method is recognized
Using three-body term ABC
Active option DFTDOPT                   ...         5   

-------------------------   ----------------
Dispersion correction           -0.008569223
-------------------------   ----------------

------------------   -----------------
gCP correction             0.013057187
------------------   -----------------

-------------------------   --------------------
FINAL SINGLE POINT ENERGY      -496.456638199458
-------------------------   --------------------


------------------------------------------------------------------------------
                              ORCA PROPERTY CALCULATIONS
------------------------------------------------------------------------------

GBWName                                 ... sp_solv.gbw
Number of atoms                         ...     22
Number of basis functions               ...    288
Max core memory                         ...   1024 MB

Electric properties:
Dipole moment                           ... YES
Quadrupole moment                       ...  NO
Static polarizability (Dipole/Dipole)   ...  NO
Static polarizability (Dipole/Quad.)    ...  NO
Static polarizability (Quad./Quad.)     ...  NO
Static polarizability (Velocity)        ...  NO

Atomic electric properties:
Dipole moment                           ...  NO
Quadrupole moment                       ...  NO
Static polarizability                   ...  NO

Choice of electric origin               ... Center of mass
Position of electric origin             ...     0.000011    -0.000001     0.000001

General magnetic properties:
Magnetizability                         ...  NO

EPR properties:
g-Tensor (aka g-matrix)                 ...  NO
Zero-Field splitting spin-orbit         ...  NO
Zero-field splitting spin-spin          ...  NO
Hyperfine couplings                     ...  NO (   0 nuclei)
Quadrupole couplings                    ...  NO (   0 nuclei)
Contact density                         ...  NO (   0 nuclei)

NMR properties:
Chemical shifts                         ...  NO (   0 nuclei)
Spin-rotation constants                 ...  NO (   0 nuclei)
Spin-spin couplings                     ...  NO (   0 nuclei,    0 pairs)

Choice of magnetic origin               ... GIAO
Position of magnetic origin             ...     0.000000     0.000000     0.000000

Properties with geometric perturbations:
SCF Hessian                             ...  NO
IR spectrum                             ...  NO
VCD spectrum                            ...  NO
X-ray spectroscopy properties:
SCF XES/XAS/RIXS spectra                ...  NO


-------------
DIPOLE MOMENT
-------------

Method             : SCF
Type of density    : Electron Density
Multiplicity       :   1
Irrep              :   0
Energy             :  -496.4611261628116949 Eh
Relativity type    : 
Basis              : AO
                                X                 Y                 Z
Electronic contribution:      2.620758903      -0.032034398       0.547691055
Nuclear contribution   :     -4.270609849      -1.115453802      -1.409034325
                        -----------------------------------------
Total Dipole Moment    :     -1.649850946      -1.147488199      -0.861343270
                        -----------------------------------------
Magnitude (a.u.)       :      2.186469652
Magnitude (Debye)      :      5.557564189



--------------------
Rotational spectrum 
--------------------
 
Rotational constants in cm-1:             0.089352             0.017914             0.016456 
Rotational constants in MHz :          2678.698429           537.036001           493.336402 

Dipole components along the rotational axes: 
x,y,z [a.u.] :    -1.674310    -1.187955    -0.752395 
x,y,z [Debye]:    -4.255758    -3.019541    -1.912437 

 

Dipole moment calculation done in   0.0 sec 

Maximum memory used throughout the entire PROP-calculation: 20.3 MB

--------------------------------
SUGGESTED CITATIONS FOR THIS RUN
--------------------------------

Below you find a list of papers that are relevant to this ORCA run
We neither can nor want to force you to cite these papers, but we appreciate if you do
You receive ORCA, which is the product of decades of hard work by many enthusiastic individuals, for free
The only thing we kindly ask in return is that you cite our papers,
We deeply appreciate it, if you show your appreciation for ORCA by not just citing the generic ORCA reference.

Please note that relegating all ORCA citations to the supporting information does *not* help us.
SI sections are not indexed - citations you put there will not count into any citation statistics
But we need these citations in order to attract the funding resources that allow us to do what we are doing

Therefore, if you are a happy ORCA user, please consider citing a few of the papers listed below in the main body of your paper

In addition to the list printed below, the program has created the file sp_solv.bibtex that contains the list in bibtex format
You can import this file easily into all common literature databanks and citation aid programs


List of essential papers. We consider these as the minimum necessary citations

  1. Neese,F.
     Software update: the ORCA program system, version 5.0
     WIRES Comput. Molec. Sci., 2022 12(1)e1606
     doi.org/10.1002/wcms.1606
  2. Grimme,S.; Hansen,A.; Ehlert,S.; Mewes,J.
     r2SCAN-3c: A 'Swiss army knife' composite electronic-structure method
     J. Chem. Phys., 2021 154 064103
     doi.org/10.1063/5.0040021

List of papers to cite with high priority. The work reported in these papers was absolutely
necessary for this run to complete.
Our perspective: the developers of density functionals and basis sets usually get cited in chemistry papers
Good! But without the algorithms to do something with them, the functionals or basis sets would not do anything.
Hence, in our opinion, the algorithm design and method developments papers are equally worthy of getting cited

  1. Neese,F.
     An improvement of the resolution of the identity approximation for the formation of the Coulomb matrix
     J. Comp. Chem., 2003 24(14)1740-1747
     doi.org/10.1002/jcc.10318
  2. Garcia-Rates,M.; Neese,F.
     Effect of the Solute Cavity on the Solvation Energy and its Derivatives within the Framework of the Gaussian Charge Scheme
     J. Comput. Chem., 2020 41 922-939
     doi.org/10.1002/jcc.26139
  3. Neese,F.
     The SHARK Integral Generation and Digestion System
     J. Comp. Chem., 2022  1-16
     doi.org/10.1002/jcc.26942
  4. Lehtola,S.; Steigemann,C.; Oliveira,M.; Marques,M.
     Recent developments in Libxc - A comprehensive library of functionals for density functional theory
     Software X, 2018 7 
     doi.org/10.1016/j.softx.2017.11.002
  5. Caldeweyher,E.; Bannwarth,C.; Grimme,S.
     Extension of the D3 dispersion coefficient model
     J. Chem. Phys., 2017 147 034112-XXXX
     doi.org/10.1063/1.4993215
  6. Caldeweyher,E.; Ehlert,S.; Hansen,A.; Neugebauer,H.; Spicher,S.; Bannwarth,C.; Grimme,S.
     A generally applicable atomic-charge dependent London dispersion correction
     J. Chem. Phys., 2019 150 154122-XXXX
     doi.org/10.1063/1.5090222
  7. Caldeweyher,E.; Mewes,J.; Ehlert,S.; Grimme,S.
     Extension and evaluation of the D4 London-dispersion model for periodic systems
     Phys. Chem. Chem. Phys., 2020 22(16)8499-8512
     doi.org/10.1039/D0CP00502A

List of suggested additional citations. These are papers that are important in the 'surrounding' of 
of this run, or papers that preceded the highly important papers. If you like your results we are grateful for a citation.

  1. Neese,F.
     The ORCA program system
     WIRES Comput. Molec. Sci., 2012 2(1)73-78
     doi.org/10.1002/wcms.81
  2. Neese,F.
     Software update: the ORCA program system, version 4.0
     WIRES Comput. Molec. Sci., 2018 8(1)1-6
     doi.org/10.1002/wcms.1327
  3. Neese,F.; Wennmohs,F.; Becker,U.; Riplinger,C.
     The ORCA quantum chemistry program package
     J. Chem. Phys., 2020 152 Art. No. L224108
     doi.org/10.1063/5.0004608

List of optional additional citations

  1. Neese,F.
     Approximate second-order SCF convergence for spin unrestricted wavefunctions
     Chem. Phys. Lett., 2000 325(1-3)93-98
     doi.org/10.1016/s0009-2614(00)00662-x

Timings for individual modules:

Sum of individual times          ...       60.402 sec (=   1.007 min)
Startup calculation              ...        1.598 sec (=   0.027 min)   2.6 %
SCF iterations                   ...       58.678 sec (=   0.978 min)  97.1 %
Property calculations            ...        0.126 sec (=   0.002 min)   0.2 %
                             ****ORCA TERMINATED NORMALLY****
TOTAL RUN TIME: 0 days 0 hours 1 minutes 1 seconds 242 msec
