      -----------------------------------------------------------      
     |                   =====================                   |     
     |                           x T B                           |     
     |                   =====================                   |     
     |                         S. Grimme                         |     
     |          Mulliken Center for Theoretical Chemistry        |     
     |                    University of Bonn                     |     
      -----------------------------------------------------------      

   * xtb version 6.7.1 (edcfbbe) compiled by 'albert@albert-system' on 2024-07-22

   xtb is free software: you can redistribute it and/or modify it under
   the terms of the GNU Lesser General Public License as published by
   the Free Software Foundation, either version 3 of the License, or
   (at your option) any later version.
   
   xtb is distributed in the hope that it will be useful,
   but WITHOUT ANY WARRANTY; without even the implied warranty of
   MERCHANTABILITY or FITNESS FOR A PARTICULAR PURPOSE.  See the
   GNU Lesser General Public License for more details.
   
   Cite this work as:
   * C. Bannwarth, E. Caldeweyher, S. Ehlert, A. Hansen, P. Pracht,
     J. Seibert, S. Spicher, S. Grimme, WIREs Comput. Mol. Sci., 2020, 11,
     e01493. DOI: 10.1002/wcms.1493
   
   for GFN2-xTB:
   * C. Bannwarth, S. Ehlert and S. Grimme., J. Chem. Theory Comput., 2019,
     15, 1652-1671. DOI: 10.1021/acs.jctc.8b01176
   for GFN1-xTB:
   * S. Grimme, C. Bannwarth, P. Shushkov, J. Chem. Theory Comput., 2017,
     13, 1989-2009. DOI: 10.1021/acs.jctc.7b00118
   for GFN0-xTB:
   * P. Pracht, E. Caldeweyher, S. Ehlert, S. Grimme, ChemRxiv, 2019, preprint.
     DOI: 10.26434/chemrxiv.8326202.v1
   for GFN-FF:
   * S. Spicher and S. Grimme, Angew. Chem. Int. Ed., 2020, 59, 15665-15673.
     DOI: 10.1002/anie.202004239
   
   for ALPB and GBSA implicit solvation:
   * S. Ehlert, M. Stahn, S. Spicher, S. Grimme, J. Chem. Theory Comput.,
     2021, 17, 4250-4261. DOI: 10.1021/acs.jctc.1c00471
   
   for ddCOSMO and CPCM-X implicit solvation:
   * M. Stahn, S. Ehlert, S. Grimme, J. Phys. Chem. A,
     2023, XX, XXXX-XXXX. DOI: 10.1021/acs.jpca.3c04382
   
   for DFT-D4:
   * E. Caldeweyher, C. Bannwarth and S. Grimme, J. Chem. Phys., 2017,
     147, 034112. DOI: 10.1063/1.4993215
   * E. Caldeweyher, S. Ehlert, A. Hansen, H. Neugebauer, S. Spicher,
     C. Bannwarth and S. Grimme, J. Chem. Phys., 2019, 150, 154122.
     DOI: 10.1063/1.5090222
   * E. Caldeweyher, J.-M. Mewes, S. Ehlert and S. Grimme, Phys. Chem. Chem. Phys.
     2020, 22, 8499-8512. DOI: 10.1039/D0CP00502A
   
   for sTDA-xTB:
   * S. Grimme and C. Bannwarth, J. Chem. Phys., 2016, 145, 054103.
     DOI: 10.1063/1.4959605
   
   in the mass-spec context:
   * V. Asgeirsson, C. Bauer and S. Grimme, Chem. Sci., 2017, 8, 4879.
     DOI: 10.1039/c7sc00601b
   * J. Koopman and S. Grimme, ACS Omega 2019, 4, 12, 15120-15133.
     DOI: 10.1021/acsomega.9b02011
   
   for metadynamics refer to:
   * S. Grimme, J. Chem. Theory Comput., 2019, 155, 2847-2862
     DOI: 10.1021/acs.jctc.9b00143
   
   for SPH calculations refer to:
   * S. Spicher and S. Grimme, J. Chem. Theory Comput., 2021, 17, 1701-1714
     DOI: 10.1021/acs.jctc.0c01306
   
   for ONIOM refer to:
   * C. Plett, A. Katbashev, S. Ehlert, S. Grimme, M. Bursch,
     Phys. Chem. Chem. Phys., 2023, 25, 17860-17868. DOI: 10.1039/D3CP02178E
   
   for DIPRO refer to:
   * J. Kohn, N. Gildemeister, S. Grimme, D. Fazzi, A. Hansen,
     J. Chem. Phys., 2023, just accepted.
   
   for PTB refer to:
   * S. Grimme, M. Mueller, A. Hansen, J. Chem. Phys., 2023, 158, 124111.
     DOI: 10.1063/5.0137838
   
   with help from (in alphabetical order)
   P. Atkinson, C. Bannwarth, F. Bohle, G. Brandenburg, E. Caldeweyher
   M. Checinski, S. Dohm, S. Ehlert, S. Ehrlich, I. Gerasimov, C. Hölzer
   A. Katbashev, J. Kohn, J. Koopman, C. Lavigne, S. Lehtola, F. März, M. Müller,
   F. Musil, H. Neugebauer, J. Pisarek, C. Plett, P. Pracht, F. Pultar,
   J. Seibert, P. Shushkov, S. Spicher, M. Stahn, M. Steiner, T. Strunk,
   J. Stückrath, T. Rose, and J. Unsleber
   
 * started run on 2025/04/11 at 12:23:16.454     
   ID    Z sym.   atoms
    1    6 C      1-4
    2    8 O      5
    3    1 H      6-13

           -------------------------------------------------
          |                Calculation Setup                |
           -------------------------------------------------

          program call               : /srv/scratch/z5358697/.xtb/bin/xtb gas.coord --gfn2 --sp --chrg 0 --norestart --parallel 1
          hostname                   : k075
          coordinate file            : gas.coord
          omp threads                :                     1


           -------------------------------------------------
          |                 G F N 2 - x T B                 |
           -------------------------------------------------

        Reference                      10.1021/acs.jctc.8b01176
      * Hamiltonian:
        H0-scaling (s, p, d)           1.850000    2.230000    2.230000
        zeta-weighting                 0.500000
      * Dispersion:
        s8                             2.700000
        a1                             0.520000
        a2                             5.000000
        s9                             5.000000
      * Repulsion:
        kExp                           1.500000    1.000000
        rExp                           1.000000
      * Coulomb:
        alpha                          2.000000
        third order                    shell-resolved
        anisotropic                    true
        a3                             3.000000
        a5                             4.000000
        cn-shift                       1.200000
        cn-exp                         4.000000
        max-rad                        5.000000


          ...................................................
          :                      SETUP                      :
          :.................................................:
          :  # basis functions                  28          :
          :  # atomic orbitals                  28          :
          :  # shells                           18          :
          :  # electrons                        30          :
          :  max. iterations                   250          :
          :  Hamiltonian                  GFN2-xTB          :
          :  restarted?                      false          :
          :  GBSA solvation                  false          :
          :  PC potential                    false          :
          :  electronic temp.          300.0000000     K    :
          :  accuracy                    1.0000000          :
          :  -> integral cutoff          0.2500000E+02      :
          :  -> integral neglect         0.1000000E-07      :
          :  -> SCF convergence          0.1000000E-05 Eh   :
          :  -> wf. convergence          0.1000000E-03 e    :
          :  Broyden damping             0.4000000          :
          :  net charge                          0          :
          :  unpaired electrons                  0          :
          ...................................................

 iter      E             dE          RMSdq      gap      omega  full diag
   1    -16.8439889 -0.168440E+02  0.431E+00    4.59       0.0  T
   2    -16.8910563 -0.470673E-01  0.215E+00    3.57       1.0  T
   3    -16.8955480 -0.449173E-02  0.147E+00    4.01       1.0  T
   4    -16.8993339 -0.378590E-02  0.195E-01    3.75       1.0  T
   5    -16.8994617 -0.127835E-03  0.893E-02    3.79       1.0  T
   6    -16.8994809 -0.191719E-04  0.317E-02    3.79       1.0  T
   7    -16.8994814 -0.471197E-06  0.102E-02    3.79       2.7  T
   8    -16.8994815 -0.148020E-06  0.232E-03    3.79      12.0  T
   9    -16.8994815 -0.204515E-08  0.790E-04    3.79      35.1  T
  10    -16.8994815 -0.182921E-08  0.238E-04    3.79     116.6  T

   *** convergence criteria satisfied after 10 iterations ***

         #    Occupation            Energy/Eh            Energy/eV
      -------------------------------------------------------------
         1        2.0000           -0.7168722             -19.5071
       ...           ...                  ...                  ...
         9        2.0000           -0.5186250             -14.1125
        10        2.0000           -0.4962316             -13.5031
        11        2.0000           -0.4781309             -13.0106
        12        2.0000           -0.4711137             -12.8197
        13        2.0000           -0.4556749             -12.3995
        14        2.0000           -0.4450608             -12.1107
        15        2.0000           -0.4048549             -11.0167 (HOMO)
        16                         -0.2657357              -7.2310 (LUMO)
        17                          0.0772198               2.1013
        18                          0.0908032               2.4709
        19                          0.1146487               3.1197
        20                          0.1338685               3.6427
       ...                                ...                  ...
        28                          0.5867463              15.9662
      -------------------------------------------------------------
                  HL-Gap            0.1391192 Eh            3.7856 eV
             Fermi-level           -0.3352953 Eh           -9.1238 eV

 SCC (total)                   0 d,  0 h,  0 min,  0.007 sec
 SCC setup                      ...        0 min,  0.000 sec (  2.137%)
 Dispersion                     ...        0 min,  0.000 sec (  0.771%)
 classical contributions        ...        0 min,  0.000 sec (  0.203%)
 integral evaluation            ...        0 min,  0.001 sec ( 10.006%)
 iterations                     ...        0 min,  0.004 sec ( 56.769%)
 molecular gradient             ...        0 min,  0.002 sec ( 27.889%)
 printout                       ...        0 min,  0.000 sec (  2.017%)

         :::::::::::::::::::::::::::::::::::::::::::::::::::::
         ::                     SUMMARY                     ::
         :::::::::::::::::::::::::::::::::::::::::::::::::::::
         :: total energy             -16.684631242096 Eh    ::
         :: gradient norm              0.022971537576 Eh/a0 ::
         :: HOMO-LUMO gap              3.785627074334 eV    ::
         ::.................................................::
         :: SCC energy               -16.899479219322 Eh    ::
         :: -> isotropic ES            0.023706604800 Eh    ::
         :: -> anisotropic ES          0.002730248008 Eh    ::
         :: -> anisotropic XC          0.007658716668 Eh    ::
         :: -> dispersion             -0.005986984413 Eh    ::
         :: repulsion energy           0.214847977226 Eh    ::
         :: add. restraining           0.000000000000 Eh    ::
         :: total charge               0.000000000000 e     ::
         :::::::::::::::::::::::::::::::::::::::::::::::::::::

           -------------------------------------------------
          |                Property Printout                |
           -------------------------------------------------

    * Orbital Energies and Occupations

         #    Occupation            Energy/Eh            Energy/eV
      -------------------------------------------------------------
         1        2.0000           -0.7168722             -19.5071
       ...           ...                  ...                  ...
         3        2.0000           -0.6246356             -16.9972
         4        2.0000           -0.5961016             -16.2208
         5        2.0000           -0.5825917             -15.8531
         6        2.0000           -0.5559993             -15.1295
         7        2.0000           -0.5422514             -14.7554
         8        2.0000           -0.5305933             -14.4382
         9        2.0000           -0.5186250             -14.1125
        10        2.0000           -0.4962316             -13.5031
        11        2.0000           -0.4781309             -13.0106
        12        2.0000           -0.4711137             -12.8197
        13        2.0000           -0.4556749             -12.3995
        14        2.0000           -0.4450608             -12.1107
        15        2.0000           -0.4048549             -11.0167 (HOMO)
        16                         -0.2657357              -7.2310 (LUMO)
        17                          0.0772198               2.1013
        18                          0.0908032               2.4709
        19                          0.1146487               3.1197
        20                          0.1338685               3.6427
        21                          0.1429275               3.8893
        22                          0.1668035               4.5390
        23                          0.2051829               5.5833
        24                          0.2146549               5.8411
        25                          0.2363530               6.4315
        26                          0.2656979               7.2300
       ...                                ...                  ...
        28                          0.5867463              15.9662
      -------------------------------------------------------------
                  HL-Gap            0.1391192 Eh            3.7856 eV
             Fermi-level           -0.3352953 Eh           -9.1238 eV

     #   Z          covCN         q      C6AA      α(0)
     1   6 C        3.753    -0.106    22.586     6.777
     2   6 C        3.802    -0.052    21.513     6.604
     3   6 C        3.804    -0.086    22.138     6.698
     4   6 C        2.759     0.213    23.489     7.937
     5   8 O        0.856    -0.329    20.316     6.043
     6   1 H        0.925     0.041     2.430     2.438
     7   1 H        0.925     0.039     2.461     2.453
     8   1 H        0.925     0.042     2.426     2.436
     9   1 H        0.924     0.038     2.480     2.463
    10   1 H        0.924     0.040     2.454     2.450
    11   1 H        0.924     0.073     2.051     2.239
    12   1 H        0.924     0.069     2.101     2.267
    13   1 H        0.922     0.019     2.749     2.593

 Mol. C6AA /au·bohr⁶  :       1276.456443
 Mol. C8AA /au·bohr⁸  :      27137.325654
 Mol. α(0) /au        :         53.396792


Wiberg/Mayer (AO) data.
largest (>0.10) Wiberg bond orders for each atom

 ---------------------------------------------------------------------------
     #   Z sym  total        # sym  WBO       # sym  WBO       # sym  WBO
 ---------------------------------------------------------------------------
     1   6 C    3.996 --     2 C    1.019     7 H    0.987     6 H    0.987
                             8 H    0.986
     2   6 C    3.996 --     1 C    1.019     3 C    0.992    10 H    0.979
                             9 H    0.977
     3   6 C    3.995 --     4 C    1.021     2 C    0.992    12 H    0.968
                            11 H    0.932
     4   6 C    3.915 --     5 O    1.918     3 C    1.021    13 H    0.932
     5   8 O    2.082 --     4 C    1.918
     6   1 H    0.998 --     1 C    0.987
     7   1 H    0.998 --     1 C    0.987
     8   1 H    0.998 --     1 C    0.986
     9   1 H    0.999 --     2 C    0.977
    10   1 H    0.998 --     2 C    0.979
    11   1 H    0.995 --     3 C    0.932
    12   1 H    0.995 --     3 C    0.968
    13   1 H    1.000 --     4 C    0.932
 ---------------------------------------------------------------------------

Topologies differ in total number of bonds
Writing topology from bond orders to xtbtopo.mol

molecular dipole:
                 x           y           z       tot (Debye)
 q only:       -1.097       0.183      -0.270
   full:       -1.222       0.215      -0.403       3.317
molecular quadrupole (traceless):
                xx          xy          yy          xz          yz          zz
 q only:       -4.781       0.526       2.372      -1.833       0.263       2.409
  q+dip:       -7.519       0.626       3.332      -2.530       0.004       4.187
   full:       -7.316       0.906       3.963      -2.622      -0.026       3.353


           -------------------------------------------------
          | TOTAL ENERGY              -16.684631242096 Eh   |
          | GRADIENT NORM               0.022971537576 Eh/α |
          | HOMO-LUMO GAP               3.785627074334 eV   |
           -------------------------------------------------

------------------------------------------------------------------------
 * finished run on 2025/04/11 at 12:23:16.489     
------------------------------------------------------------------------
 total:
 * wall-time:     0 d,  0 h,  0 min,  0.034 sec
 *  cpu-time:     0 d,  0 h,  0 min,  0.015 sec
 * ratio c/w:     0.431 speedup
 SCF:
 * wall-time:     0 d,  0 h,  0 min,  0.008 sec
 *  cpu-time:     0 d,  0 h,  0 min,  0.007 sec
 * ratio c/w:     0.987 speedup

