      -----------------------------------------------------------      
     |                   =====================                   |     
     |                           x T B                           |     
     |                   =====================                   |     
     |                         S. Grimme                         |     
     |          Mulliken Center for Theoretical Chemistry        |     
     |                    University of Bonn                     |     
      -----------------------------------------------------------      

   * xtb version 6.7.1 (edcfbbe) compiled by 'albert@albert-system' on 2024-07-22

   xtb is free software: you can redistribute it and/or modify it under
   the terms of the GNU Lesser General Public License as published by
   the Free Software Foundation, either version 3 of the License, or
   (at your option) any later version.
   
   xtb is distributed in the hope that it will be useful,
   but WITHOUT ANY WARRANTY; without even the implied warranty of
   MERCHANTABILITY or FITNESS FOR A PARTICULAR PURPOSE.  See the
   GNU Lesser General Public License for more details.
   
   Cite this work as:
   * C. Bannwarth, E. Caldeweyher, S. Ehlert, A. Hansen, P. Pracht,
     J. Seibert, S. Spicher, S. Grimme, WIREs Comput. Mol. Sci., 2020, 11,
     e01493. DOI: 10.1002/wcms.1493
   
   for GFN2-xTB:
   * C. Bannwarth, S. Ehlert and S. Grimme., J. Chem. Theory Comput., 2019,
     15, 1652-1671. DOI: 10.1021/acs.jctc.8b01176
   for GFN1-xTB:
   * S. Grimme, C. Bannwarth, P. Shushkov, J. Chem. Theory Comput., 2017,
     13, 1989-2009. DOI: 10.1021/acs.jctc.7b00118
   for GFN0-xTB:
   * P. Pracht, E. Caldeweyher, S. Ehlert, S. Grimme, ChemRxiv, 2019, preprint.
     DOI: 10.26434/chemrxiv.8326202.v1
   for GFN-FF:
   * S. Spicher and S. Grimme, Angew. Chem. Int. Ed., 2020, 59, 15665-15673.
     DOI: 10.1002/anie.202004239
   
   for ALPB and GBSA implicit solvation:
   * S. Ehlert, M. Stahn, S. Spicher, S. Grimme, J. Chem. Theory Comput.,
     2021, 17, 4250-4261. DOI: 10.1021/acs.jctc.1c00471
   
   for ddCOSMO and CPCM-X implicit solvation:
   * M. Stahn, S. Ehlert, S. Grimme, J. Phys. Chem. A,
     2023, XX, XXXX-XXXX. DOI: 10.1021/acs.jpca.3c04382
   
   for DFT-D4:
   * E. Caldeweyher, C. Bannwarth and S. Grimme, J. Chem. Phys., 2017,
     147, 034112. DOI: 10.1063/1.4993215
   * E. Caldeweyher, S. Ehlert, A. Hansen, H. Neugebauer, S. Spicher,
     C. Bannwarth and S. Grimme, J. Chem. Phys., 2019, 150, 154122.
     DOI: 10.1063/1.5090222
   * E. Caldeweyher, J.-M. Mewes, S. Ehlert and S. Grimme, Phys. Chem. Chem. Phys.
     2020, 22, 8499-8512. DOI: 10.1039/D0CP00502A
   
   for sTDA-xTB:
   * S. Grimme and C. Bannwarth, J. Chem. Phys., 2016, 145, 054103.
     DOI: 10.1063/1.4959605
   
   in the mass-spec context:
   * V. Asgeirsson, C. Bauer and S. Grimme, Chem. Sci., 2017, 8, 4879.
     DOI: 10.1039/c7sc00601b
   * J. Koopman and S. Grimme, ACS Omega 2019, 4, 12, 15120-15133.
     DOI: 10.1021/acsomega.9b02011
   
   for metadynamics refer to:
   * S. Grimme, J. Chem. Theory Comput., 2019, 155, 2847-2862
     DOI: 10.1021/acs.jctc.9b00143
   
   for SPH calculations refer to:
   * S. Spicher and S. Grimme, J. Chem. Theory Comput., 2021, 17, 1701-1714
     DOI: 10.1021/acs.jctc.0c01306
   
   for ONIOM refer to:
   * C. Plett, A. Katbashev, S. Ehlert, S. Grimme, M. Bursch,
     Phys. Chem. Chem. Phys., 2023, 25, 17860-17868. DOI: 10.1039/D3CP02178E
   
   for DIPRO refer to:
   * J. Kohn, N. Gildemeister, S. Grimme, D. Fazzi, A. Hansen,
     J. Chem. Phys., 2023, just accepted.
   
   for PTB refer to:
   * S. Grimme, M. Mueller, A. Hansen, J. Chem. Phys., 2023, 158, 124111.
     DOI: 10.1063/5.0137838
   
   with help from (in alphabetical order)
   P. Atkinson, C. Bannwarth, F. Bohle, G. Brandenburg, E. Caldeweyher
   M. Checinski, S. Dohm, S. Ehlert, S. Ehrlich, I. Gerasimov, C. Hölzer
   A. Katbashev, J. Kohn, J. Koopman, C. Lavigne, S. Lehtola, F. März, M. Müller,
   F. Musil, H. Neugebauer, J. Pisarek, C. Plett, P. Pracht, F. Pultar,
   J. Seibert, P. Shushkov, S. Spicher, M. Stahn, M. Steiner, T. Strunk,
   J. Stückrath, T. Rose, and J. Unsleber
   
 * started run on 2025/04/11 at 12:23:16.519     
   ID    Z sym.   atoms
    1    6 C      1-4
    2    8 O      5
    3    1 H      6-13

           -------------------------------------------------
          |                Calculation Setup                |
           -------------------------------------------------

          program call               : /srv/scratch/z5358697/.xtb/bin/xtb solv.coord --gfn2 --sp --chrg 0 --norestart --parallel 1 --alpb water reference -I xtb_sp-xcontrol-inp
          hostname                   : k075
          coordinate file            : solv.coord
          omp threads                :                     1


           -------------------------------------------------
          |                 G F N 2 - x T B                 |
           -------------------------------------------------

        Reference                      10.1021/acs.jctc.8b01176
      * Hamiltonian:
        H0-scaling (s, p, d)           1.850000    2.230000    2.230000
        zeta-weighting                 0.500000
      * Dispersion:
        s8                             2.700000
        a1                             0.520000
        a2                             5.000000
        s9                             5.000000
      * Repulsion:
        kExp                           1.500000    1.000000
        rExp                           1.000000
      * Coulomb:
        alpha                          2.000000
        third order                    shell-resolved
        anisotropic                    true
        a3                             3.000000
        a5                             4.000000
        cn-shift                       1.200000
        cn-exp                         4.000000
        max-rad                        5.000000

      * Solvation model:               ALPB
        Solvent                        water
        Parameter file                 internal GFN2-xTB/ALPB
        Dielectric constant                8.0200E+01
        Reference state                gsolv=reference [X=1]
        Free energy shift                  2.8945E-03 Eh       1.8164E+00 kcal/mol
        Temperature                        2.9815E+02 K
        Density                            1.0000E+00 kg/L
        Solvent mass                       1.8000E+01 g/mol
        Interaction kernel             P16
        Born radius scaling (c1)           1.4744E+00
        Born radii integrator          GBOBC
        Born offset                        0.0000E+00 a0       0.0000E+00 AA
        H-bond correction              true
        Ion screening                  false
        Surface tension                    1.0000E-05 Eh       1.5569E+01 dyn/cm
        Grid points                               974 per atom

          ...................................................
          :                      SETUP                      :
          :.................................................:
          :  # basis functions                  28          :
          :  # atomic orbitals                  28          :
          :  # shells                           18          :
          :  # electrons                        30          :
          :  max. iterations                   250          :
          :  Hamiltonian                  GFN2-xTB          :
          :  restarted?                      false          :
          :  GBSA solvation                   true          :
          :  PC potential                    false          :
          :  electronic temp.          300.0000000     K    :
          :  accuracy                    1.0000000          :
          :  -> integral cutoff          0.2500000E+02      :
          :  -> integral neglect         0.1000000E-07      :
          :  -> SCF convergence          0.1000000E-05 Eh   :
          :  -> wf. convergence          0.1000000E-03 e    :
          :  Broyden damping             0.4000000          :
          :  net charge                          0          :
          :  unpaired electrons                  0          :
          ...................................................

 iter      E             dE          RMSdq      gap      omega  full diag
   1    -16.8435735 -0.168436E+02  0.458E+00    4.55       0.0  T
   2    -16.8970162 -0.534428E-01  0.215E+00    3.59       1.0  T
   3    -16.8994876 -0.247137E-02  0.128E+00    3.93       1.0  T
   4    -16.9011443 -0.165674E-02  0.158E-01    3.73       1.0  T
   5    -16.9012980 -0.153656E-03  0.770E-02    3.77       1.0  T
   6    -16.9013020 -0.408402E-05  0.200E-02    3.76       1.4  T
   7    -16.9013033 -0.129754E-05  0.696E-03    3.77       4.0  T
   8    -16.9013034 -0.446090E-07  0.260E-03    3.77      10.7  T
   9    -16.9013034 -0.281988E-07  0.968E-04    3.77      28.7  T
  10    -16.9013034 -0.115599E-08  0.213E-04    3.77     130.3  T

   *** convergence criteria satisfied after 10 iterations ***

         #    Occupation            Energy/Eh            Energy/eV
      -------------------------------------------------------------
         1        2.0000           -0.7269932             -19.7825
       ...           ...                  ...                  ...
         9        2.0000           -0.5111428             -13.9089
        10        2.0000           -0.4862855             -13.2325
        11        2.0000           -0.4678629             -12.7312
        12        2.0000           -0.4608672             -12.5408
        13        2.0000           -0.4434556             -12.0670
        14        2.0000           -0.4319971             -11.7552
        15        2.0000           -0.4088303             -11.1248 (HOMO)
        16                         -0.2704153              -7.3584 (LUMO)
        17                          0.0842211               2.2918
        18                          0.0988468               2.6898
        19                          0.1256691               3.4196
        20                          0.1447968               3.9401
       ...                                ...                  ...
        28                          0.5814489              15.8220
      -------------------------------------------------------------
                  HL-Gap            0.1384150 Eh            3.7665 eV
             Fermi-level           -0.3396228 Eh           -9.2416 eV

 SCC (total)                   0 d,  0 h,  0 min,  0.008 sec
 SCC setup                      ...        0 min,  0.001 sec (  9.541%)
 Dispersion                     ...        0 min,  0.000 sec (  0.668%)
 classical contributions        ...        0 min,  0.000 sec (  0.198%)
 integral evaluation            ...        0 min,  0.001 sec (  9.319%)
 iterations                     ...        0 min,  0.004 sec ( 51.046%)
 molecular gradient             ...        0 min,  0.002 sec ( 27.142%)
 printout                       ...        0 min,  0.000 sec (  1.909%)

         :::::::::::::::::::::::::::::::::::::::::::::::::::::
         ::                     SUMMARY                     ::
         :::::::::::::::::::::::::::::::::::::::::::::::::::::
         :: total energy             -16.686453121427 Eh    ::
         :: total w/o Gsasa/hb       -16.689610563153 Eh    ::
         :: gradient norm              0.000042040704 Eh/a0 ::
         :: HOMO-LUMO gap              3.766463296215 eV    ::
         ::.................................................::
         :: SCC energy               -16.901301098654 Eh    ::
         :: -> isotropic ES            0.033219617482 Eh    ::
         :: -> anisotropic ES          0.001967846470 Eh    ::
         :: -> anisotropic XC          0.008030545255 Eh    ::
         :: -> dispersion             -0.005891954802 Eh    ::
         :: -> Gsolv                  -0.003580676309 Eh    ::
         ::    -> Gelec               -0.006738118035 Eh    ::
         ::    -> Gsasa                0.001820179626 Eh    ::
         ::    -> Ghb                 -0.001557287061 Eh    ::
         ::    -> Gshift               0.002894549160 Eh    ::
         :: repulsion energy           0.214847977226 Eh    ::
         :: add. restraining           0.000000000000 Eh    ::
         :: total charge               0.000000000000 e     ::
         :::::::::::::::::::::::::::::::::::::::::::::::::::::

           -------------------------------------------------
          |                Property Printout                |
           -------------------------------------------------

    * Orbital Energies and Occupations

         #    Occupation            Energy/Eh            Energy/eV
      -------------------------------------------------------------
         1        2.0000           -0.7269932             -19.7825
       ...           ...                  ...                  ...
         3        2.0000           -0.6171727             -16.7941
         4        2.0000           -0.5951572             -16.1951
         5        2.0000           -0.5727662             -15.5858
         6        2.0000           -0.5555029             -15.1160
         7        2.0000           -0.5422220             -14.7546
         8        2.0000           -0.5295732             -14.4104
         9        2.0000           -0.5111428             -13.9089
        10        2.0000           -0.4862855             -13.2325
        11        2.0000           -0.4678629             -12.7312
        12        2.0000           -0.4608672             -12.5408
        13        2.0000           -0.4434556             -12.0670
        14        2.0000           -0.4319971             -11.7552
        15        2.0000           -0.4088303             -11.1248 (HOMO)
        16                         -0.2704153              -7.3584 (LUMO)
        17                          0.0842211               2.2918
        18                          0.0988468               2.6898
        19                          0.1256691               3.4196
        20                          0.1447968               3.9401
        21                          0.1551366               4.2215
        22                          0.1799341               4.8963
        23                          0.2178217               5.9272
        24                          0.2253750               6.1328
        25                          0.2470529               6.7227
        26                          0.2735342               7.4432
       ...                                ...                  ...
        28                          0.5814489              15.8220
      -------------------------------------------------------------
                  HL-Gap            0.1384150 Eh            3.7665 eV
             Fermi-level           -0.3396228 Eh           -9.2416 eV

     #   Z          covCN         q      C6AA      α(0)
     1   6 C        3.753    -0.118    22.827     6.813
     2   6 C        3.802    -0.057    21.607     6.618
     3   6 C        3.804    -0.095    22.315     6.725
     4   6 C        2.759     0.224    23.290     7.903
     5   8 O        0.856    -0.401    21.699     6.245
     6   1 H        0.925     0.046     2.371     2.408
     7   1 H        0.925     0.047     2.353     2.399
     8   1 H        0.925     0.049     2.338     2.391
     9   1 H        0.924     0.048     2.349     2.397
    10   1 H        0.924     0.043     2.415     2.430
    11   1 H        0.924     0.103     1.758     2.073
    12   1 H        0.924     0.078     2.003     2.213
    13   1 H        0.922     0.035     2.511     2.478

 Mol. C6AA /au·bohr⁶  :       1264.582767
 Mol. C8AA /au·bohr⁸  :      27018.240084
 Mol. α(0) /au        :         53.093911


Wiberg/Mayer (AO) data.
largest (>0.10) Wiberg bond orders for each atom

 ---------------------------------------------------------------------------
     #   Z sym  total        # sym  WBO       # sym  WBO       # sym  WBO
 ---------------------------------------------------------------------------
     1   6 C    3.994 --     2 C    1.019     6 H    0.987     7 H    0.987
                             8 H    0.985
     2   6 C    3.993 --     1 C    1.019     3 C    0.988    10 H    0.979
                             9 H    0.976
     3   6 C    3.991 --     4 C    1.034     2 C    0.988    12 H    0.966
                            11 H    0.919
     4   6 C    3.891 --     5 O    1.871     3 C    1.034    13 H    0.932
     5   8 O    2.039 --     4 C    1.871
     6   1 H    0.998 --     1 C    0.987
     7   1 H    0.998 --     1 C    0.987
     8   1 H    0.997 --     1 C    0.985
     9   1 H    0.998 --     2 C    0.976
    10   1 H    0.998 --     2 C    0.979
    11   1 H    0.989 --     3 C    0.919
    12   1 H    0.994 --     3 C    0.966
    13   1 H    0.999 --     4 C    0.932
 ---------------------------------------------------------------------------

Topologies differ in total number of bonds
Writing topology from bond orders to xtbtopo.mol

molecular dipole:
                 x           y           z       tot (Debye)
 q only:       -1.419       0.273      -0.364
   full:       -1.456       0.282      -0.470       3.955
molecular quadrupole (traceless):
                xx          xy          yy          xz          yz          zz
 q only:       -5.964       0.553       2.987      -2.202       0.331       2.977
  q+dip:       -8.478       0.641       3.845      -2.855       0.048       4.634
   full:       -8.244       0.926       4.455      -2.917       0.022       3.789


           -------------------------------------------------
          | TOTAL ENERGY              -16.686453121427 Eh   |
          | GRADIENT NORM               0.000042040704 Eh/α |
          | HOMO-LUMO GAP               3.766463296215 eV   |
           -------------------------------------------------

------------------------------------------------------------------------
 * finished run on 2025/04/11 at 12:23:16.558     
------------------------------------------------------------------------
 total:
 * wall-time:     0 d,  0 h,  0 min,  0.039 sec
 *  cpu-time:     0 d,  0 h,  0 min,  0.016 sec
 * ratio c/w:     0.412 speedup
 SCF:
 * wall-time:     0 d,  0 h,  0 min,  0.008 sec
 *  cpu-time:     0 d,  0 h,  0 min,  0.008 sec
 * ratio c/w:     0.988 speedup

