21
 energy: -312.205186802953 gnorm: 0.030210774788 xtb: 6.7.1 (edcfbbe)
C            1.79045073379340       -0.82691722076643        1.20425077183364
C            1.47395535265315       -0.24674297030934       -0.16698284917399
C            0.28661930532701        0.72296093472036       -0.21208260199398
H            0.45347932720095        1.50244052336577        0.55136455614432
C           -1.12110728359679        0.12655580375608        0.01746297470774
C           -1.33100284398980       -1.18800374382644       -0.73006818002351
C           -1.47153339815208       -0.01851962260821        1.49710062906340
O            0.36046349105973        1.32435740088686       -1.50048047436490
H            2.76530896852538       -1.30751475757939        1.17848853782222
H            1.05826947136895       -1.57271156139691        1.49867473856410
H            1.81342932750358       -0.04298586231905        1.95736882956736
H            2.33377082883416        0.32814331984541       -0.51998725723042
H            1.30784038357954       -1.04493925536304       -0.88967888849424
H           -1.82126918740705        0.85994958718107       -0.40576729987981
H           -1.01688587135061       -1.08384024378028       -1.76624426418267
H           -0.76377734903845       -1.99218580608279       -0.26949605761942
H           -2.38367784935627       -1.46047335284717       -0.71328933291608
H           -1.30489081837823        0.91749574930657        2.02533014149748
H           -0.87764337988891       -0.79179495245087        1.97226571287396
H           -2.52069463711699       -0.28660486082700        1.59779452660802
H           -0.32481807034394        2.00122978908680       -1.58053871460038
21
 energy: -312.206176944687 gnorm: 0.012971554944 xtb: 6.7.1 (edcfbbe)
C            1.78454951995651       -0.82920270614462        1.20325163936425
C            1.47568174654586       -0.23719003344373       -0.16877355525887
C            0.29027004793115        0.72971652010156       -0.21515870533006
H            0.45259104909425        1.50745150747260        0.55100798559441
C           -1.11354064474739        0.12728364312154        0.01786365518145
C           -1.33019380924970       -1.18545045105340       -0.73532295385559
C           -1.46723787924185       -0.01601845517806        1.49957710834449
O            0.35602333898297        1.32899236057645       -1.51929522346350
H            2.76280816830507       -1.31608746858629        1.18733095046948
H            1.04994401605942       -1.57862875029422        1.50260830517918
H            1.80999952272594       -0.04939363308904        1.96961653643356
H            2.34441275088253        0.33332762190365       -0.51532108977611
H            1.31544712594004       -1.03789866074886       -0.89801079403606
H           -1.80915088295046        0.86930779275028       -0.40129149124532
H           -1.02479796760148       -1.09763018582884       -1.78177448152422
H           -0.76074061186249       -1.99830490370703       -0.27627594596682
H           -2.38696348231789       -1.46456374947516       -0.71449368945707
H           -1.30297900310113        0.92189508827511        2.03784912447471
H           -0.87625483976275       -0.79523738002420        1.98377136969338
H           -2.52167158858049       -0.28553215650445        1.60607768313695
H           -0.34191056683446        1.99306222286214       -1.58775086468533
21
 energy: -312.206411629327 gnorm: 0.004681619781 xtb: 6.7.1 (edcfbbe)
C            1.77932435457178       -0.83126921783322        1.20262246890644
C            1.48209732979701       -0.22904584986318       -0.16914648962396
C            0.29430043445794        0.72954162733307       -0.21495579272484
H            0.45233148297513        1.51552469859803        0.54278546041657
C           -1.11005542311900        0.12933964490224        0.01699854771503
C           -1.33109258089669       -1.18290866012292       -0.73584290920921
C           -1.46281665536357       -0.01546341925825        1.49981394830098
O            0.35378578269862        1.32771969106987       -1.53132961073078
H            2.75848161518569       -1.32221490853676        1.19391733766781
H            1.04101290531428       -1.58275353981654        1.49620114947457
H            1.80255557486849       -0.05802540202828        1.98012884253181
H            2.35726852874130        0.34101670288703       -0.50462375891503
H            1.32986175219119       -1.02781988748606       -0.90605411478583
H           -1.80453698318332        0.87632022940105       -0.39720117691679
H           -1.03487157677838       -1.10238363056035       -1.78819001371860
H           -0.75856361667061       -2.00102632267829       -0.28212893985477
H           -2.38939566944221       -1.46599081741319       -0.70889382227283
H           -1.29798486148581        0.92294550666152        2.04242258272183
H           -0.87592026495639       -0.79795426029545        1.99032253341831
H           -2.52023025115729       -0.28290159583507        1.60953935110231
H           -0.35926645421914        1.97724698386520       -1.59089983007159
21
 energy: -312.206475914285 gnorm: 0.002833885657 xtb: 6.7.1 (edcfbbe)
C            1.77560273008815       -0.83465025670459        1.20275832685013
C            1.48462523404749       -0.22469684222679       -0.16692812675664
C            0.29607228239049        0.72994478819104       -0.21554557061682
H            0.45217776145451        1.52248114457983        0.53504865057397
C           -1.10694699224369        0.12882693336232        0.01827020827609
C           -1.33095132594653       -1.18176391794170       -0.73517498175237
C           -1.45994120558776       -0.01518194736876        1.50115045073539
O            0.35365711821723        1.32566798587470       -1.53874747064674
H            2.75461615592356       -1.32581265116847        1.19654874846631
H            1.03518749984863       -1.58727397553748        1.48783459428752
H            1.79476413226321       -0.06587378811353        1.98489328417771
H            2.36089376487448        0.34909842516679       -0.49340203726286
H            1.33974502367531       -1.01984935246973       -0.90957776004608
H           -1.80153078144840        0.87695239867318       -0.39356675437552
H           -1.04129336875799       -1.10028445701406       -1.78918015121033
H           -0.75544009044632       -2.00032354618052       -0.28594688763361
H           -2.38894791348795       -1.46583311929249       -0.70232734776167
H           -1.29301442218166        0.92282491339063        2.04379612683007
H           -0.87551665107508       -0.79895826351941        1.99216187503914
H           -2.51812621420719       -0.27980588679110        1.61066527907289
H           -0.36934776587049        1.96440849816649       -1.59724442352200
21
 energy: -312.206526638594 gnorm: 0.002874429983 xtb: 6.7.1 (edcfbbe)
C            1.76910628291538       -0.84002259481598        1.20285450499434
C            1.48856301897774       -0.21881659236943       -0.16370956314005
C            0.29713831505177        0.73003227443221       -0.21579780081705
H            0.45109917193482        1.53102771981741        0.52544852151744
C           -1.10461648938703        0.12932666177267        0.01999597678500
C           -1.32986754405845       -1.18021088486481       -0.73332835933895
C           -1.45529186536621       -0.01421338794281        1.50346464955773
O            0.35362355745718        1.31960638980078       -1.54661415336735
H            2.74798693953700       -1.32981725363492        1.19881562993795
H            1.02681277808743       -1.59529155133352        1.47373199991122
H            1.78103961097091       -0.07823902378241        1.99103153775282
H            2.36504962857052        0.36204603270428       -0.47655619498639
H            1.35420330889724       -1.00741147134396       -0.91483630440275
H           -1.80045572383481        0.87731100819340       -0.38956666136357
H           -1.04959113282075       -1.09443325108643       -1.78878272717995
H           -0.74870702004091       -1.99749038414008       -0.29078803115587
H           -2.38648111216857       -1.46624105093750       -0.69138395144205
H           -1.28385622644004        0.92264967747008        2.04534066756420
H           -0.87417829720068       -0.80020174479395        1.99290387785400
H           -2.51408600113295       -0.27392133986783        1.61229729619394
H           -0.38120686712093        1.94420711410783       -1.60903435813520
21
 energy: -312.206550424662 gnorm: 0.002859534153 xtb: 6.7.1 (edcfbbe)
C            1.76407502767503       -0.84435530440041        1.20264895613887
C            1.49052469245168       -0.21479533306775       -0.16130564352121
C            0.29709448443867        0.73151154101959       -0.21702609823698
H            0.44998172673340        1.53638616424961        0.51993703285180
C           -1.10318239129691        0.13013107001138        0.02115778161896
C           -1.32866543876623       -1.17958130781221       -0.73160651142991
C           -1.45202489023516       -0.01300134773429        1.50521098723883
O            0.35342369780973        1.31541146397069       -1.55089943892317
H            2.74339890552328       -1.33233035808644        1.20037526444509
H            1.02137279713338       -1.60246715024727        1.46275358908040
H            1.76975409376486       -0.08801455755297        1.99543666430058
H            2.36685876151820        0.37116948898909       -0.46431430321823
H            1.36337458757504       -0.99826623001894       -0.91846318548506
H           -1.80048719821612        0.87704965800580       -0.38766220004798
H           -1.05515179164250       -1.09025682256791       -1.78809875147625
H           -0.74207810653994       -1.99470674771329       -0.29363200322101
H           -2.38379862078932       -1.46850301680141       -0.68302635019341
H           -1.27606940802236        0.92278313090036        2.04665332332709
H           -0.87309676325073       -0.80117632062489        1.99247498087655
H           -2.51130115421491       -0.26856370791849        1.61467561971798
H           -0.38771905849338        1.93147149960691       -1.61980266808128
21
 energy: -312.206573176778 gnorm: 0.002168174720 xtb: 6.7.1 (edcfbbe)
C            1.75645668072347       -0.85016523644912        1.20168372806894
C            1.49312532324876       -0.20923213068161       -0.15882768718355
C            0.29657554094395        0.73419193643464       -0.21921619396195
H            0.44792822137207        1.54257025771597        0.51422508776620
C           -1.10188697647569        0.13158095973271        0.02230136296904
C           -1.32658414147558       -1.17925536178795       -0.72926436912856
C           -1.44746764431653       -0.01044648846168        1.50745124662986
O            0.35299327871760        1.31012713001733       -1.55495265084903
H            2.73727848274975       -1.33478356576794        1.20279843012586
H            1.01426248396675       -1.61339143760830        1.44720401857211
H            1.75251861494392       -0.10177738394473        2.00168305144231
H            2.36970559787441        0.38279885067744       -0.44866250021315
H            1.37523309333463       -0.98588620439721       -0.92406757649908
H           -1.80138449811881        0.87672521968337       -0.38616400273401
H           -1.06261762253023       -1.08644068176183       -1.78770050261348
H           -0.73149410310674       -1.99087918599723       -0.29711459369357
H           -2.37946936846045       -1.47374614458219       -0.67146303044452
H           -1.26404255820115        0.92369230813468        2.04894801785863
H           -0.87194729037129       -0.80254180769380        1.99177527233436
H           -2.50780383718523       -0.25945792706773        1.61921510006028
H           -0.39509570488441        1.91621197216324       -1.63436438955737
21
 energy: -312.206581590561 gnorm: 0.000908700561 xtb: 6.7.1 (edcfbbe)
C            1.75239353750986       -0.85290134596168        1.20054875039029
C            1.49402362466145       -0.20653486902539       -0.15817764749240
C            0.29628193184827        0.73624785549351       -0.22099238840018
H            0.44675243583354        1.54481797695366        0.51270224163921
C           -1.10136684038915        0.13234722734813        0.02246898172529
C           -1.32527291283482       -1.17969567115173       -0.72779638931640
C           -1.44537352603460       -0.00878369086520        1.50814818800762
O            0.35259239888676        1.30871501109333       -1.55587550752015
H            2.73470916431898       -1.33499300337939        1.20451703937524
H            1.01132272092876       -1.61950810393007        1.43902057174349
H            1.74247071393445       -0.10862461434447        2.00444329303273
H            2.37115531650320        0.38739620734436       -0.44200665777290
H            1.38011460949376       -0.98019445836759       -0.92702723826402
H           -1.80201622336129        0.87637861766708       -0.38637773564816
H           -1.06622503513286       -1.08642589866356       -1.78752590336184
H           -0.72528897339829       -1.98922921705007       -0.29819254686177
H           -2.37687833516006       -1.47814134453159       -0.66538709355456
H           -1.25693543893339        0.92444622627180        2.04989575298246
H           -0.87222987039063       -0.80356221471506        1.99137362377235
H           -2.50666077665042       -0.25339625386108        1.62216354060043
H           -0.39728498849756        1.91153631032681       -1.64043459179610
21
 energy: -312.206584066804 gnorm: 0.000551951057 xtb: 6.7.1 (edcfbbe)
C            1.75029222723628       -0.85366494098866        1.19931881959851
C            1.49429580099056       -0.20555156826592       -0.15884764876649
C            0.29641400329102        0.73721105069974       -0.22180584531648
H            0.44634879639554        1.54493156041922        0.51335438474585
C           -1.10125066136562        0.13228691969493        0.02216642734469
C           -1.32434235414655       -1.18063566014445       -0.72697185198960
C           -1.44470626507171       -0.00754763321882        1.50801876446686
O            0.35233326597582        1.30944518927616       -1.55517431734018
H            2.73405732417795       -1.33345998374568        1.20586025098372
H            1.01068077238333       -1.62272102778770        1.43496264397567
H            1.73632141628585       -0.11120249581543        2.00506317676839
H            2.37218268701936        0.38810339201914       -0.44085625293014
H            1.38130325423357       -0.97839594811051       -0.92887981807946
H           -1.80215962880413        0.87582958320720       -0.38741256843147
H           -1.06769527690726       -1.08883412568917       -1.78764668232783
H           -0.72198142866365       -1.98909694365026       -0.29799294799458
H           -2.37531550890107       -1.48159629808665       -0.66238555356129
H           -1.25259221844934        0.92508538480505        2.05011210278893
H           -0.87391208865140       -0.80441720166457        1.99138563198016
H           -2.50691575420144       -0.24859113649764        1.62369959493324
H           -0.39707465744445        1.91271654032135       -1.64047975265622
21
 energy: -312.206584066804 gnorm: 0.000551951057 xtb: 6.7.1 (edcfbbe)
C            1.75029222723628       -0.85366494098866        1.19931881959851
C            1.49429580099056       -0.20555156826592       -0.15884764876649
C            0.29641400329102        0.73721105069974       -0.22180584531648
H            0.44634879639554        1.54493156041922        0.51335438474585
C           -1.10125066136562        0.13228691969493        0.02216642734469
C           -1.32434235414655       -1.18063566014445       -0.72697185198960
C           -1.44470626507171       -0.00754763321882        1.50801876446686
O            0.35233326597582        1.30944518927616       -1.55517431734018
H            2.73405732417795       -1.33345998374568        1.20586025098372
H            1.01068077238333       -1.62272102778770        1.43496264397567
H            1.73632141628585       -0.11120249581543        2.00506317676839
H            2.37218268701936        0.38810339201914       -0.44085625293014
H            1.38130325423357       -0.97839594811051       -0.92887981807946
H           -1.80215962880413        0.87582958320720       -0.38741256843147
H           -1.06769527690726       -1.08883412568917       -1.78764668232783
H           -0.72198142866365       -1.98909694365026       -0.29799294799458
H           -2.37531550890107       -1.48159629808665       -0.66238555356129
H           -1.25259221844934        0.92508538480505        2.05011210278893
H           -0.87391208865140       -0.80441720166457        1.99138563198016
H           -2.50691575420144       -0.24859113649764        1.62369959493324
H           -0.39707465744445        1.91271654032135       -1.64047975265622
