      -----------------------------------------------------------      
     |                   =====================                   |     
     |                           x T B                           |     
     |                   =====================                   |     
     |                         S. Grimme                         |     
     |          Mulliken Center for Theoretical Chemistry        |     
     |                    University of Bonn                     |     
      -----------------------------------------------------------      

   * xtb version 6.7.1 (edcfbbe) compiled by 'albert@albert-system' on 2024-07-22

   xtb is free software: you can redistribute it and/or modify it under
   the terms of the GNU Lesser General Public License as published by
   the Free Software Foundation, either version 3 of the License, or
   (at your option) any later version.
   
   xtb is distributed in the hope that it will be useful,
   but WITHOUT ANY WARRANTY; without even the implied warranty of
   MERCHANTABILITY or FITNESS FOR A PARTICULAR PURPOSE.  See the
   GNU Lesser General Public License for more details.
   
   Cite this work as:
   * C. Bannwarth, E. Caldeweyher, S. Ehlert, A. Hansen, P. Pracht,
     J. Seibert, S. Spicher, S. Grimme, WIREs Comput. Mol. Sci., 2020, 11,
     e01493. DOI: 10.1002/wcms.1493
   
   for GFN2-xTB:
   * C. Bannwarth, S. Ehlert and S. Grimme., J. Chem. Theory Comput., 2019,
     15, 1652-1671. DOI: 10.1021/acs.jctc.8b01176
   for GFN1-xTB:
   * S. Grimme, C. Bannwarth, P. Shushkov, J. Chem. Theory Comput., 2017,
     13, 1989-2009. DOI: 10.1021/acs.jctc.7b00118
   for GFN0-xTB:
   * P. Pracht, E. Caldeweyher, S. Ehlert, S. Grimme, ChemRxiv, 2019, preprint.
     DOI: 10.26434/chemrxiv.8326202.v1
   for GFN-FF:
   * S. Spicher and S. Grimme, Angew. Chem. Int. Ed., 2020, 59, 15665-15673.
     DOI: 10.1002/anie.202004239
   
   for ALPB and GBSA implicit solvation:
   * S. Ehlert, M. Stahn, S. Spicher, S. Grimme, J. Chem. Theory Comput.,
     2021, 17, 4250-4261. DOI: 10.1021/acs.jctc.1c00471
   
   for ddCOSMO and CPCM-X implicit solvation:
   * M. Stahn, S. Ehlert, S. Grimme, J. Phys. Chem. A,
     2023, XX, XXXX-XXXX. DOI: 10.1021/acs.jpca.3c04382
   
   for DFT-D4:
   * E. Caldeweyher, C. Bannwarth and S. Grimme, J. Chem. Phys., 2017,
     147, 034112. DOI: 10.1063/1.4993215
   * E. Caldeweyher, S. Ehlert, A. Hansen, H. Neugebauer, S. Spicher,
     C. Bannwarth and S. Grimme, J. Chem. Phys., 2019, 150, 154122.
     DOI: 10.1063/1.5090222
   * E. Caldeweyher, J.-M. Mewes, S. Ehlert and S. Grimme, Phys. Chem. Chem. Phys.
     2020, 22, 8499-8512. DOI: 10.1039/D0CP00502A
   
   for sTDA-xTB:
   * S. Grimme and C. Bannwarth, J. Chem. Phys., 2016, 145, 054103.
     DOI: 10.1063/1.4959605
   
   in the mass-spec context:
   * V. Asgeirsson, C. Bauer and S. Grimme, Chem. Sci., 2017, 8, 4879.
     DOI: 10.1039/c7sc00601b
   * J. Koopman and S. Grimme, ACS Omega 2019, 4, 12, 15120-15133.
     DOI: 10.1021/acsomega.9b02011
   
   for metadynamics refer to:
   * S. Grimme, J. Chem. Theory Comput., 2019, 155, 2847-2862
     DOI: 10.1021/acs.jctc.9b00143
   
   for SPH calculations refer to:
   * S. Spicher and S. Grimme, J. Chem. Theory Comput., 2021, 17, 1701-1714
     DOI: 10.1021/acs.jctc.0c01306
   
   for ONIOM refer to:
   * C. Plett, A. Katbashev, S. Ehlert, S. Grimme, M. Bursch,
     Phys. Chem. Chem. Phys., 2023, 25, 17860-17868. DOI: 10.1039/D3CP02178E
   
   for DIPRO refer to:
   * J. Kohn, N. Gildemeister, S. Grimme, D. Fazzi, A. Hansen,
     J. Chem. Phys., 2023, just accepted.
   
   for PTB refer to:
   * S. Grimme, M. Mueller, A. Hansen, J. Chem. Phys., 2023, 158, 124111.
     DOI: 10.1063/5.0137838
   
   with help from (in alphabetical order)
   P. Atkinson, C. Bannwarth, F. Bohle, G. Brandenburg, E. Caldeweyher
   M. Checinski, S. Dohm, S. Ehlert, S. Ehrlich, I. Gerasimov, C. Hölzer
   A. Katbashev, J. Kohn, J. Koopman, C. Lavigne, S. Lehtola, F. März, M. Müller,
   F. Musil, H. Neugebauer, J. Pisarek, C. Plett, P. Pracht, F. Pultar,
   J. Seibert, P. Shushkov, S. Spicher, M. Stahn, M. Steiner, T. Strunk,
   J. Stückrath, T. Rose, and J. Unsleber
   
 * started run on 2025/04/11 at 12:15:01.202     
   ID    Z sym.   atoms
    1    6 C      1-3, 5-7
    2    1 H      4, 9-21
    3    8 O      8

           -------------------------------------------------
          |                Calculation Setup                |
           -------------------------------------------------

          program call               : /srv/scratch/z5358697/.xtb/bin/xtb solv.coord --gfn2 --sp --chrg 0 --norestart --parallel 1 --alpb water reference -I xtb_sp-xcontrol-inp
          hostname                   : k121
          coordinate file            : solv.coord
          omp threads                :                     1


           -------------------------------------------------
          |                 G F N 2 - x T B                 |
           -------------------------------------------------

        Reference                      10.1021/acs.jctc.8b01176
      * Hamiltonian:
        H0-scaling (s, p, d)           1.850000    2.230000    2.230000
        zeta-weighting                 0.500000
      * Dispersion:
        s8                             2.700000
        a1                             0.520000
        a2                             5.000000
        s9                             5.000000
      * Repulsion:
        kExp                           1.500000    1.000000
        rExp                           1.000000
      * Coulomb:
        alpha                          2.000000
        third order                    shell-resolved
        anisotropic                    true
        a3                             3.000000
        a5                             4.000000
        cn-shift                       1.200000
        cn-exp                         4.000000
        max-rad                        5.000000

      * Solvation model:               ALPB
        Solvent                        water
        Parameter file                 internal GFN2-xTB/ALPB
        Dielectric constant                8.0200E+01
        Reference state                gsolv=reference [X=1]
        Free energy shift                  2.8945E-03 Eh       1.8164E+00 kcal/mol
        Temperature                        2.9815E+02 K
        Density                            1.0000E+00 kg/L
        Solvent mass                       1.8000E+01 g/mol
        Interaction kernel             P16
        Born radius scaling (c1)           1.4744E+00
        Born radii integrator          GBOBC
        Born offset                        0.0000E+00 a0       0.0000E+00 AA
        H-bond correction              true
        Ion screening                  false
        Surface tension                    1.0000E-05 Eh       1.5569E+01 dyn/cm
        Grid points                               974 per atom

          ...................................................
          :                      SETUP                      :
          :.................................................:
          :  # basis functions                  42          :
          :  # atomic orbitals                  42          :
          :  # shells                           28          :
          :  # electrons                        44          :
          :  max. iterations                   250          :
          :  Hamiltonian                  GFN2-xTB          :
          :  restarted?                      false          :
          :  GBSA solvation                   true          :
          :  PC potential                    false          :
          :  electronic temp.          300.0000000     K    :
          :  accuracy                    1.0000000          :
          :  -> integral cutoff          0.2500000E+02      :
          :  -> integral neglect         0.1000000E-07      :
          :  -> SCF convergence          0.1000000E-05 Eh   :
          :  -> wf. convergence          0.1000000E-03 e    :
          :  Broyden damping             0.4000000          :
          :  net charge                          0          :
          :  unpaired electrons                  0          :
          ...................................................

 iter      E             dE          RMSdq      gap      omega  full diag
   1    -24.3309757 -0.243310E+02  0.294E+00   11.93       0.0  T
   2    -24.3617333 -0.307576E-01  0.155E+00   11.83       1.0  T
   3    -24.3626931 -0.959821E-03  0.562E-01   11.82       1.0  T
   4    -24.3628865 -0.193416E-03  0.112E-01   11.82       1.0  T
   5    -24.3629228 -0.363523E-04  0.617E-02   11.83       1.0  T
   6    -24.3629253 -0.244865E-05  0.102E-02   11.83       2.1  T
   7    -24.3629257 -0.440710E-06  0.517E-03   11.83       4.2  T
   8    -24.3629258 -0.702291E-07  0.217E-03   11.83      10.1  T
   9    -24.3629258 -0.754186E-08  0.876E-04   11.83      24.9  T
  10    -24.3629258 -0.231212E-08  0.195E-04   11.83     112.0  T

   *** convergence criteria satisfied after 10 iterations ***

         #    Occupation            Energy/Eh            Energy/eV
      -------------------------------------------------------------
         1        2.0000           -0.6828733             -18.5819
       ...           ...                  ...                  ...
        16        2.0000           -0.4556955             -12.4001
        17        2.0000           -0.4446263             -12.0989
        18        2.0000           -0.4423814             -12.0378
        19        2.0000           -0.4333059             -11.7909
        20        2.0000           -0.4257411             -11.5850
        21        2.0000           -0.4149795             -11.2922
        22        2.0000           -0.3977681             -10.8238 (HOMO)
        23                          0.0370113               1.0071 (LUMO)
        24                          0.0707618               1.9255
        25                          0.0732498               1.9932
        26                          0.1003678               2.7311
        27                          0.1252758               3.4089
       ...                                ...                  ...
        42                          0.3273847               8.9086
      -------------------------------------------------------------
                  HL-Gap            0.4347794 Eh           11.8309 eV
             Fermi-level           -0.1803784 Eh           -4.9083 eV

 SCC (total)                   0 d,  0 h,  0 min,  0.015 sec
 SCC setup                      ...        0 min,  0.001 sec (  8.513%)
 Dispersion                     ...        0 min,  0.000 sec (  0.745%)
 classical contributions        ...        0 min,  0.000 sec (  0.173%)
 integral evaluation            ...        0 min,  0.002 sec (  9.997%)
 iterations                     ...        0 min,  0.007 sec ( 47.133%)
 molecular gradient             ...        0 min,  0.005 sec ( 32.386%)
 printout                       ...        0 min,  0.000 sec (  0.964%)

         :::::::::::::::::::::::::::::::::::::::::::::::::::::
         ::                     SUMMARY                     ::
         :::::::::::::::::::::::::::::::::::::::::::::::::::::
         :: total energy             -24.054199172266 Eh    ::
         :: total w/o Gsasa/hb       -24.052076082774 Eh    ::
         :: gradient norm              0.000027075411 Eh/a0 ::
         :: HOMO-LUMO gap             11.830949891286 eV    ::
         ::.................................................::
         :: SCC energy               -24.362845335188 Eh    ::
         :: -> isotropic ES            0.036359274015 Eh    ::
         :: -> anisotropic ES          0.005868402635 Eh    ::
         :: -> anisotropic XC          0.009492541666 Eh    ::
         :: -> dispersion             -0.013524012921 Eh    ::
         :: -> Gsolv                  -0.006158267374 Eh    ::
         ::    -> Gelec               -0.004035177881 Eh    ::
         ::    -> Gsasa               -0.000079784758 Eh    ::
         ::    -> Ghb                 -0.004937853895 Eh    ::
         ::    -> Gshift               0.002894549160 Eh    ::
         :: repulsion energy           0.308646162922 Eh    ::
         :: add. restraining           0.000000000000 Eh    ::
         :: total charge              -0.000000000000 e     ::
         :::::::::::::::::::::::::::::::::::::::::::::::::::::

           -------------------------------------------------
          |                Property Printout                |
           -------------------------------------------------

    * Orbital Energies and Occupations

         #    Occupation            Energy/Eh            Energy/eV
      -------------------------------------------------------------
         1        2.0000           -0.6828733             -18.5819
       ...           ...                  ...                  ...
        10        2.0000           -0.5103126             -13.8863
        11        2.0000           -0.4951256             -13.4731
        12        2.0000           -0.4835440             -13.1579
        13        2.0000           -0.4785496             -13.0220
        14        2.0000           -0.4693869             -12.7727
        15        2.0000           -0.4595531             -12.5051
        16        2.0000           -0.4556955             -12.4001
        17        2.0000           -0.4446263             -12.0989
        18        2.0000           -0.4423814             -12.0378
        19        2.0000           -0.4333059             -11.7909
        20        2.0000           -0.4257411             -11.5850
        21        2.0000           -0.4149795             -11.2922
        22        2.0000           -0.3977681             -10.8238 (HOMO)
        23                          0.0370113               1.0071 (LUMO)
        24                          0.0707618               1.9255
        25                          0.0732498               1.9932
        26                          0.1003678               2.7311
        27                          0.1252758               3.4089
        28                          0.1344063               3.6574
        29                          0.1405722               3.8252
        30                          0.1511612               4.1133
        31                          0.1761511               4.7933
        32                          0.1850935               5.0367
        33                          0.2095866               5.7031
       ...                                ...                  ...
        42                          0.3273847               8.9086
      -------------------------------------------------------------
                  HL-Gap            0.4347794 Eh           11.8309 eV
             Fermi-level           -0.1803784 Eh           -4.9083 eV

     #   Z          covCN         q      C6AA      α(0)
     1   6 C        3.751    -0.109    22.639     6.785
     2   6 C        3.799    -0.062    21.690     6.631
     3   6 C        3.722     0.112    18.843     6.199
     4   1 H        0.922     0.002     3.020     2.718
     5   6 C        3.847    -0.026    21.005     6.519
     6   6 C        3.754    -0.111    22.682     6.791
     7   6 C        3.755    -0.117    22.792     6.807
     8   8 O        1.655    -0.510    23.102     6.488
     9   1 H        0.925     0.035     2.520     2.482
    10   1 H        0.925     0.048     2.344     2.394
    11   1 H        0.925     0.043     2.408     2.427
    12   1 H        0.925     0.040     2.442     2.444
    13   1 H        0.924     0.036     2.500     2.472
    14   1 H        0.923     0.027     2.625     2.534
    15   1 H        0.925     0.047     2.355     2.400
    16   1 H        0.925     0.040     2.446     2.446
    17   1 H        0.925     0.037     2.491     2.468
    18   1 H        0.925     0.047     2.356     2.400
    19   1 H        0.925     0.035     2.514     2.480
    20   1 H        0.925     0.041     2.434     2.440
    21   1 H        0.805     0.342     0.608     1.225

 Mol. C6AA /au·bohr⁶  :       2903.038479
 Mol. C8AA /au·bohr⁸  :      60097.802892
 Mol. α(0) /au        :         79.550750


Wiberg/Mayer (AO) data.
largest (>0.10) Wiberg bond orders for each atom

 ---------------------------------------------------------------------------
     #   Z sym  total        # sym  WBO       # sym  WBO       # sym  WBO
 ---------------------------------------------------------------------------
     1   6 C    3.995 --     2 C    1.020     9 H    0.987    10 H    0.985
                            11 H    0.983
     2   6 C    3.996 --     1 C    1.020     3 C    0.990    13 H    0.979
                            12 H    0.974
     3   6 C    3.949 --     2 C    0.990     8 O    0.983     5 C    0.972
                             4 H    0.962
     4   1 H    1.000 --     3 C    0.962
     5   6 C    3.995 --     6 C    1.010     7 C    1.009     3 C    0.972
                            14 H    0.967
     6   6 C    3.996 --     5 C    1.010    17 H    0.987    15 H    0.984
                            16 H    0.982
     7   6 C    3.996 --     5 C    1.009    19 H    0.986    18 H    0.986
                            20 H    0.983
     8   8 O    1.921 --     3 C    0.983    21 H    0.866
     9   1 H    0.999 --     1 C    0.987
    10   1 H    0.998 --     1 C    0.985
    11   1 H    0.998 --     1 C    0.983
    12   1 H    0.998 --     2 C    0.974
    13   1 H    0.999 --     2 C    0.979
    14   1 H    0.999 --     5 C    0.967
    15   1 H    0.998 --     6 C    0.984
    16   1 H    0.998 --     6 C    0.982
    17   1 H    0.999 --     6 C    0.987
    18   1 H    0.998 --     7 C    0.986
    19   1 H    0.999 --     7 C    0.986
    20   1 H    0.998 --     7 C    0.983
    21   1 H    0.883 --     8 O    0.866
 ---------------------------------------------------------------------------

Topologies differ in total number of bonds
Writing topology from bond orders to xtbtopo.mol

molecular dipole:
                 x           y           z       tot (Debye)
 q only:       -0.572       0.018       0.100
   full:       -0.745       0.168       0.114       1.964
molecular quadrupole (traceless):
                xx          xy          yy          xz          yz          zz
 q only:       -1.601      -1.773       0.790       2.063      -1.256       0.811
  q+dip:       -1.973      -1.900       1.749       3.562      -1.880       0.224
   full:       -2.079      -2.133       1.501       3.248      -1.833       0.578


           -------------------------------------------------
          | TOTAL ENERGY              -24.054199172266 Eh   |
          | GRADIENT NORM               0.000027075411 Eh/α |
          | HOMO-LUMO GAP              11.830949891286 eV   |
           -------------------------------------------------

------------------------------------------------------------------------
 * finished run on 2025/04/11 at 12:15:01.253     
------------------------------------------------------------------------
 total:
 * wall-time:     0 d,  0 h,  0 min,  0.051 sec
 *  cpu-time:     0 d,  0 h,  0 min,  0.022 sec
 * ratio c/w:     0.437 speedup
 SCF:
 * wall-time:     0 d,  0 h,  0 min,  0.015 sec
 *  cpu-time:     0 d,  0 h,  0 min,  0.014 sec
 * ratio c/w:     0.921 speedup

