21
 energy: -24.060325013819 gnorm: 0.028575869118 xtb: 6.7.1 (edcfbbe)
C           -2.28970963135800       -0.07917945710264       -1.03333052930609
C           -1.77574378335323        0.61949305391370        0.22422746399955
C           -0.56821694612682       -0.02324912818308        0.91586249842044
C            0.75658568721657       -0.09490133647765        0.13942145433110
C            1.07531450148384        1.21355438288524       -0.57758301976070
C            0.82665237487116       -1.27762285002505       -0.82462576411003
O            1.75708409137381       -0.31285405043558        1.18298001833222
H           -2.43603150519212       -1.15165683695601       -0.86045045835304
H           -1.60389445350660        0.03611433604922       -1.87731791545813
H           -3.25236952274580        0.34499653515799       -1.33794117494020
H           -1.55247164745359        1.66797834931499       -0.00647892081515
H           -2.58465192514098        0.64131414434837        0.96440677914756
H           -0.36319897580319        0.55806003959868        1.82328578122876
H           -0.83016541700705       -1.03825431365509        1.24226737146366
H            2.08916189954182        1.17447394582028       -0.99147512160025
H            1.01351785984333        2.06029606155589        0.11396403977422
H            0.38011108273698        1.38801465195108       -1.40467976535092
H            1.83158810430396       -1.34541139067732       -1.25821839908761
H            0.11612131173333       -1.17343465027742       -1.64715203710084
H            0.61210056254301       -2.21266456963294       -0.29738179815307
H            2.60173006160132       -0.45788725140236        0.73523452932847
21
 energy: -24.061231562007 gnorm: 0.013769350369 xtb: 6.7.1 (edcfbbe)
C           -2.29127151025385       -0.07927018004541       -1.02725161877608
C           -1.77827470666300        0.62531561225778        0.22174844765803
C           -0.57313346975154       -0.02657055267333        0.90425367365006
C            0.75861601680562       -0.09609066134114        0.13745678816982
C            1.07947863746001        1.21197357449553       -0.58299671140739
C            0.83054187232642       -1.27792374409475       -0.82824905393752
O            1.74133463585056       -0.30646444797310        1.18185831378604
H           -2.43067674072988       -1.14441194880818       -0.84414006225096
H           -1.60868673585867        0.04181359750021       -1.86605761068457
H           -3.25133750512779        0.34414815603615       -1.32100737168371
H           -1.54869448306925        1.66675029483523       -0.01689694195899
H           -2.58485325597571        0.63882456838370        0.96101934751530
H           -0.36247073947011        0.54345128461049        1.81427257067469
H           -0.83442057087768       -1.04038579826240        1.22050114985299
H            2.08864597978137        1.17749368839664       -0.99346341975827
H            1.01944884156358        2.04854768409201        0.11145870643671
H            0.38485556219404        1.38253438823853       -1.40229339845209
H            1.82959688048437       -1.34703177813839       -1.26063242670889
H            0.11837973949319       -1.17156085370907       -1.64053821585632
H            0.61930985352553       -2.20575907710411       -0.29870992905061
H            2.59712542785452       -0.44820414092612        0.75468279477172
21
 energy: -24.061492162125 gnorm: 0.004066796837 xtb: 6.7.1 (edcfbbe)
C           -2.29651075109911       -0.07834971839158       -1.02451400039294
C           -1.77670937444732        0.63103309975133        0.21939424630684
C           -0.57540984560139       -0.02986725626152        0.89743851586706
C            0.76335412669912       -0.09738877096967        0.13808740600497
C            1.08112267379321        1.21227117510053       -0.58766531517690
C            0.83506330165845       -1.27950705931268       -0.83104324136581
O            1.72802057350418       -0.30203971996762        1.18317746404860
H           -2.42968709802323       -1.13905064002342       -0.83225097634257
H           -1.61845442175114        0.04305195309803       -1.86321605647808
H           -3.25710068788700        0.34162779446069       -1.31153506124552
H           -1.54024519254615        1.66701741921771       -0.02388616404817
H           -2.57832871447858        0.64656238110160        0.96134822944156
H           -0.36218585962513        0.52612031658386        1.81440738353125
H           -0.84037462664420       -1.04551140167991        1.19701542853685
H            2.08722083182370        1.17588647963198       -0.99809493650468
H            1.02464338633068        2.04333579516276        0.10965028328661
H            0.38486261724540        1.37943549781921       -1.40151821161362
H            1.83023635231506       -1.34473171532969       -1.26562220357521
H            0.11822655136353       -1.17129819383209       -1.63478831741019
H            0.62970086533283       -2.20457446132800       -0.29919287170960
H            2.59606902159883       -0.43684330906124        0.77782343082951
21
 energy: -24.061551513933 gnorm: 0.002302916814 xtb: 6.7.1 (edcfbbe)
C           -2.30086891149823       -0.07726764665174       -1.02295467552261
C           -1.77488612897226        0.63493562598625        0.21815344197533
C           -0.57721908752348       -0.03379218411644        0.89469855964062
C            0.76606251825023       -0.09838159181569        0.14008246563528
C            1.08209541988379        1.21185396130055       -0.58892905985392
C            0.83890903192355       -1.28031425220073       -0.83151885012539
O            1.72436900081598       -0.30019165893647        1.18512386750828
H           -2.43261546678474       -1.13752762887859       -0.82663070677199
H           -1.62614235393778        0.04205647657920       -1.86488520087212
H           -3.26303107279519        0.34174768748089       -1.30655728653765
H           -1.53290794104677        1.66862586461182       -0.02868808606564
H           -2.57481085426922        0.65762392088053        0.96162595943269
H           -0.36558885089751        0.51360963182893        1.81720263584678
H           -0.84601960339585       -1.05164745479497        1.18382030627362
H            2.08731284256065        1.17353969774620       -1.00213217562315
H            1.02784586745627        2.04322384913414        0.10855326023422
H            0.38335939679449        1.37776627619544       -1.40084014011213
H            1.83277912234193       -1.34053804318108       -1.27021226538477
H            0.11743562363386       -1.17321605186319       -1.63145252994622
H            0.63953844299019       -2.20664540346746       -0.29894159160271
H            2.59789673403184       -0.42828141006731        0.78949710386145
21
 energy: -24.061591600889 gnorm: 0.002678493369 xtb: 6.7.1 (edcfbbe)
C           -2.30750293745192       -0.07508409398342       -1.02094534561973
C           -1.77164019038429        0.63897388520787        0.21606464642449
C           -0.57922597279373       -0.03941134545660        0.89205322658324
C            0.76840696230816       -0.09965418207835        0.14252078269626
C            1.08258737332086        1.21075019153522       -0.58918343616026
C            0.84456998386620       -1.28124773040353       -0.83104238382620
O            1.72199853641537       -0.29835735384173        1.18875843225649
H           -2.44002312522322       -1.13533717041997       -0.82091585246079
H           -1.63725115878701        0.03964263286206       -1.86808711371860
H           -3.27130051760037        0.34437041861669       -1.30071090354929
H           -1.52112814036756        1.66979967820770       -0.03592474958335
H           -2.57004266777964        0.67404357871535        0.96128629602053
H           -0.37104811914230        0.49673879674304        1.82224264507832
H           -0.85324109397309       -1.06021395721373        1.16777921995451
H            2.08692766773387        1.17011897115056       -1.00636834224328
H            1.03137005185495        2.04416668760844        0.10718689148369
H            0.38118105379251        1.37604460404504       -1.39974724174237
H            1.83666129785289       -1.33329845791579       -1.27666198407880
H            0.11638271895681       -1.17839444595175       -1.62646190536953
H            0.65552239402157       -2.21043797892621       -0.29805899876647
H            2.60030961294169       -0.41603306273060        0.80123114861112
21
 energy: -24.061609499991 gnorm: 0.002286644545 xtb: 6.7.1 (edcfbbe)
C           -2.31182582910192       -0.07331990873228       -1.01948588292832
C           -1.76955212017614        0.64114509017150        0.21450553193078
C           -0.58066029345890       -0.04356346346190        0.89006398495296
C            0.76888425478424       -0.10042423847265        0.14348587306564
C            1.08256965232522        1.20957460704641       -0.58870043728875
C            0.84839275227135       -1.28174471392433       -0.83014546513113
O            1.72148185281959       -0.29743525399229        1.19144473523100
H           -2.44714542914837       -1.13334021736011       -0.81775148273926
H           -1.64411431376248        0.03716622860657       -1.86973778334461
H           -3.27559944677763        0.34822846884471       -1.29722493196843
H           -1.51273895162188        1.66984257119704       -0.04093396196314
H           -2.56694467788045        0.68494625643737        0.96075846951633
H           -0.37487562393801        0.48544400253274        1.82488188099235
H           -0.85754959385335       -1.06594970088915        1.15766495739511
H            2.08651492727765        1.16804756836021       -1.00765558975637
H            1.03274493083104        2.04430279407999        0.10670112736349
H            0.38037569167014        1.37493783052871       -1.39908070042984
H            1.83876373369503       -1.32736158863828       -1.28116772797121
H            0.11515750537591       -1.18377639968111       -1.62214130486641
H            0.66813399677984       -2.21269464455523       -0.29648025687732
H            2.60150071145087       -0.40684562232761        0.80601399680712
21
 energy: -24.061625100377 gnorm: 0.001283456360 xtb: 6.7.1 (edcfbbe)
C           -2.31652167553499       -0.07095296944645       -1.01800262021774
C           -1.76753435601167        0.64312443228036        0.21270782851273
C           -0.58220881916557       -0.04818462108484        0.88755001527325
C            0.76862859455358       -0.10130912581872        0.14369977395953
C            1.08235503331714        1.20808739847245       -0.58782830819892
C            0.85260140543520       -1.28253065726531       -0.82890226555656
O            1.72129980071227       -0.29658370663574        1.19419211203915
H           -2.45701718827604       -1.13011991654835       -0.81423434830910
H           -1.65047555522201        0.03371784065049       -1.87049671014745
H           -3.27890029781209        0.35471403944406       -1.29448089152043
H           -1.50384274829799        1.66925410327751       -0.04612933251690
H           -2.56355474263105        0.69547791707862        0.95998672343261
H           -0.37862602290501        0.47323423533469        1.82693164250375
H           -0.86169099016403       -1.07196489986459        1.14662980335764
H            2.08623083433911        1.16645319550061       -1.00708290754784
H            1.03278920751416        2.04354026270771        0.10681598762070
H            0.38053813707851        1.37354215797814       -1.39874394726164
H            1.84022753591680       -1.32022058080326       -1.28682184877289
H            0.11287353662282       -1.19184614646210       -1.61604627416787
H            0.68399598385876       -2.21470894775782       -0.29342194728302
H            2.60234605623384       -0.39554434526716        0.80869254679096
21
 energy: -24.061633871012 gnorm: 0.001019031616 xtb: 6.7.1 (edcfbbe)
C           -2.32121848766748       -0.06802606826661       -1.01690912973206
C           -1.76625608604443        0.64483997023773        0.21122659785873
C           -0.58362236623546       -0.05269568588701        0.88446653814263
C            0.76823591599823       -0.10238154379479        0.14308499776573
C            1.08214081380176        1.20672850855664       -0.58705449007679
C            0.85694411064390       -1.28396113825743       -0.82772629739918
O            1.72120309550234       -0.29582559251558        1.19626441030669
H           -2.46988656071750       -1.12536120431418       -0.81028939983968
H           -1.65496722128305        0.02913924228574       -1.86986583830706
H           -3.28028855158618        0.36433593184789       -1.29368770295581
H           -1.49667486163628        1.66849745893457       -0.04986063102641
H           -2.56045011425909        0.70296817927534        0.95962278613255
H           -0.38136264162577        0.46186084284203        1.82757088006783
H           -0.86519782528379       -1.07748346611040        1.13575711226635
H            2.08682939884948        1.16646707220582       -1.00380467809237
H            1.03013660416767        2.04183190899496        0.10743368845097
H            0.38245540384224        1.37143507916195       -1.39974064147088
H            1.84074685568100       -1.31275895210944       -1.29370904376044
H            0.10950146209210       -1.20254526041615       -1.60842379211934
H            0.70230086033186       -2.21630162441407       -0.28882211993670
H            2.60294392499020       -0.38358399248669        0.80948178571521
21
 energy: -24.061638613838 gnorm: 0.000680051299 xtb: 6.7.1 (edcfbbe)
C           -2.32176125819509       -0.06692887424327       -1.01723059893718
C           -1.76646499210167        0.64481003591212        0.21152466312882
C           -0.58359544496518       -0.05340824905112        0.88393294245455
C            0.76839907040940       -0.10274562996172        0.14265485345986
C            1.08186642388299        1.20678718287562       -0.58723344748790
C            0.85774956330269       -1.28481041625864       -0.82766833465209
O            1.72127381057851       -0.29557272708796        1.19584651903670
H           -2.47507704917584       -1.12314759803266       -0.80948448362763
H           -1.65336347615784        0.02696381339087       -1.86860166254644
H           -3.27837213411733        0.36926632048897       -1.29605177807727
H           -1.49705582327761        1.66849275461421       -0.04869654024170
H           -2.56030595560511        0.70142327473455        0.96012051960306
H           -0.38101240620469        0.46063191798038        1.82715345297359
H           -0.86528620652918       -1.07819913713582        1.13444804689677
H            2.08769595586346        1.16827343646781       -1.00109477970898
H            1.02657053182798        2.04142546614552        0.10736336452422
H            0.38398404151296        1.36998329070399       -1.40155819483092
H            1.83985093139410       -1.31092516058946       -1.29677285704962
H            0.10741731951770       -1.20676661946212       -1.60554560001054
H            0.70799993241220       -2.21657278910221       -0.28688094908508
H            2.60300089518930       -0.38180062661876        0.80878989616775
21
 energy: -24.061645643822 gnorm: 0.000535653807 xtb: 6.7.1 (edcfbbe)
C           -2.32285669287932       -0.06347895607897       -1.01797654598685
C           -1.76627174937765        0.64475062363184        0.21254596895531
C           -0.58363297220824       -0.05632899023208        0.88297718257762
C            0.76896884247788       -0.10377715106092        0.14223607599407
C            1.08020265079036        1.20661388737970       -0.58785352363932
C            0.86015090229610       -1.28687315055722       -0.82720648308837
O            1.72173479532136       -0.29459129206822        1.19524796748650
H           -2.49046867970544       -1.11706124104810       -0.80798913501328
H           -1.64820055264653        0.02030058777188       -1.86539748382821
H           -3.27238566618896        0.38421966333952       -1.30312910862433
H           -1.49622325755004        1.66878964114239       -0.04535796740416
H           -2.55994329496640        0.69936310367668        0.96144516598117
H           -0.38094786041795        0.45530057036168        1.82754780047455
H           -0.86603098030441       -1.08166952606619        1.13039084212895
H            2.08920998978843        1.17297095913556       -0.99442290551807
H            1.01574115386244        2.04149502474680        0.10565790302374
H            0.38697230372733        1.36482572957730       -1.40705578504033
H            1.83732992108332       -1.30358430882308       -1.30711804378243
H            0.09990701748954       -1.21895853302057       -1.59642569906761
H            0.72626495046352       -2.21841089423851       -0.28156195017621
H            2.60399290850642       -0.37671608179917        0.80846075653723
21
 energy: -24.061647303863 gnorm: 0.000274793621 xtb: 6.7.1 (edcfbbe)
C           -2.32235272831318       -0.06161594230706       -1.01844962773852
C           -1.76607380969623        0.64407274895328        0.21355599032291
C           -0.58350210747542       -0.05742428507390        0.88344080202547
C            0.76906233004911       -0.10394957642832        0.14246679888048
C            1.07871852740864        1.20635527746417       -0.58851772195710
C            0.86094505567319       -1.28731363218438       -0.82672483116633
O            1.72216168116786       -0.29351907883999        1.19501172794525
H           -2.49526087278838       -1.11447197730977       -0.80917611294564
H           -1.64505528111608        0.01900668582387       -1.86405022762855
H           -3.26903702027414        0.39012013327762       -1.30663567815276
H           -1.49631182440299        1.66876678121636       -0.04246079410109
H           -2.56020348971406        0.69765174686380        0.96218974392972
H           -0.38099360731419        0.45347144556776        1.82853273250531
H           -0.86567653401751       -1.08306092028791        1.13016083490056
H            2.08884302766475        1.17475334017275       -0.99262714658449
H            1.01046788445967        2.04234919374156        0.10339188126641
H            0.38709387384473        1.36165388219379       -1.40974448708663
H            1.83601387936867       -1.30101208357273       -1.31066374017621
H            0.09767108307379       -1.22322979021553       -1.59294293117274
H            0.73258583210216       -2.21899030059677       -0.28033890828011
H            2.60441782986137       -0.37643398268829        0.80859672720403
21
 energy: -24.061647999939 gnorm: 0.000167393646 xtb: 6.7.1 (edcfbbe)
C           -2.32158285268504       -0.06046929906809       -1.01866954532012
C           -1.76588723765314        0.64391707163198        0.21417495881383
C           -0.58361457180077       -0.05836120961677        0.88359341854713
C            0.76901904972606       -0.10399276929170        0.14264894756755
C            1.07750307331078        1.20604203882603       -0.58919251331606
C            0.86138528977304       -1.28749700857214       -0.82626454922179
O            1.72225103972216       -0.29243528691771        1.19516493107397
H           -2.49618946278794       -1.11329537497490       -0.81034715326576
H           -1.64331634390960        0.01969684163293       -1.86358774233278
H           -3.26732851919283        0.39270741523443       -1.30758572575525
H           -1.49588592854702        1.66897973214085       -0.04065783203598
H           -2.56042264568021        0.69700841675086        0.96253254338088
H           -0.38122574561290        0.45173158321657        1.82917446072537
H           -0.86570289330503       -1.08430427784655        1.12951528549314
H            2.08791271823438        1.17523202585938       -0.99265923944157
H            1.00789609050276        2.04285134629732        0.10160342748253
H            0.38623777038691        1.35968339507042       -1.41107880980511
H            1.83563984046181       -1.29918611642837       -1.31202809043422
H            0.09641523127995       -1.22501521726329       -1.59105330268022
H            0.73583720544333       -2.21937559611508       -0.27939417505870
H            2.60457262189504       -0.37673804479588        0.80912573757314
21
 energy: -24.061648539490 gnorm: 0.000197041162 xtb: 6.7.1 (edcfbbe)
C           -2.32091507075289       -0.05953371131289       -1.01898581610002
C           -1.76582937094655        0.64374524996356        0.21470479236011
C           -0.58367861494720       -0.05875844690717        0.88393785019470
C            0.76888021893671       -0.10385324168933        0.14282642791661
C            1.07652945478649        1.20585499572269       -0.58983576759621
C            0.86178468799757       -1.28760525353338       -0.82569009888739
O            1.72239329078535       -0.29130188819246        1.19528057679107
H           -2.49471584284725       -1.11277728228463       -0.81194829405701
H           -1.64256040150305        0.02201354796747       -1.86374498103043
H           -3.26695501397175        0.39318304747975       -1.30763639676491
H           -1.49584626156337        1.66910515428508       -0.03908812308951
H           -2.56070739527507        0.69624072576631        0.96278938603536
H           -0.38139984122039        0.45061255609435        1.82995342904731
H           -0.86572907506737       -1.08491820967071        1.12910995788824
H            2.08679247268430        1.17523176614552       -0.99371986335936
H            1.00683702542530        2.04321880188952        0.10028545175576
H            0.38489148321874        1.35861666596703       -1.41159390436327
H            1.83583733466540       -1.29881312995990       -1.31187256431944
H            0.09649214655883       -1.22571403470444       -1.59023800527791
H            0.73692023873934       -2.21952068432868       -0.27872243846425
H            2.60449226385859       -0.37784696292739        0.80920341331050
21
 energy: -24.061649009755 gnorm: 0.000145465203 xtb: 6.7.1 (edcfbbe)
C           -2.32022361066366       -0.05861695155839       -1.01933162331910
C           -1.76591703703223        0.64376994649184        0.21525089007360
C           -0.58377427377685       -0.05920637441357        0.88402159054608
C            0.76878995642087       -0.10370710906615        0.14288382093831
C            1.07565633332032        1.20579172115686       -0.59047397281248
C            0.86215396672836       -1.28787818271646       -0.82503070829923
O            1.72264181584599       -0.29001117294286        1.19537200495535
H           -2.49277978295192       -1.11238536307077       -0.81367870352954
H           -1.64198669793083        0.02485585346612       -1.86405301937970
H           -3.26685126298569        0.39334102766779       -1.30734104623058
H           -1.49614983331770        1.66945109205334       -0.03743499443411
H           -2.56105551512864        0.69525785646268        0.96312281217530
H           -0.38154731350438        0.44948080987833        1.83036019904703
H           -0.86585082940553       -1.08550203912976        1.12843606420849
H            2.08574335121780        1.17531530912322       -0.99483860407375
H            1.00606806482658        2.04341855365942        0.09934913216035
H            0.38356744642597        1.35800548448632       -1.41195813327876
H            1.83608964158585       -1.29878067806973       -1.31144750459245
H            0.09665177363362       -1.22681810598645       -1.58947651262890
H            0.73793667946873       -2.21961859171583       -0.27759617138550
H            2.60435085678510       -0.37898342000564        0.80887951184955
21
 energy: -24.061649309512 gnorm: 0.000099655686 xtb: 6.7.1 (edcfbbe)
C           -2.31969035434597       -0.05772634565248       -1.01977803901327
C           -1.76603872618803        0.64367804565142        0.21570452731990
C           -0.58381444522490       -0.05950376304538        0.88416266815005
C            0.76866843327202       -0.10362592861468        0.14284562732884
C            1.07494407551224        1.20576902220165       -0.59102676511330
C            0.86250828805182       -1.28827098947148       -0.82442253935575
O            1.72282796688319       -0.28894489313371        1.19524679197896
H           -2.49113293648143       -1.11188420308246       -0.81532057765132
H           -1.64147049096186        0.02749254400721       -1.86432296351456
H           -3.26679848349698        0.39359478007767       -1.30722716705791
H           -1.49660107674900        1.66967180621936       -0.03592621170202
H           -2.56137079660940        0.69399036338424        0.96341170075445
H           -0.38156883108544        0.44862409464193        1.83079642617403
H           -0.86595833135958       -1.08593612223303        1.12782828067699
H            2.08487711829042        1.17542979652011       -0.99573495985204
H            1.00548969596645        2.04341195405504        0.09875761071376
H            0.38249684075024        1.35770843800345       -1.41221707838452
H            1.83630847267876       -1.29887399919209       -1.31120025429796
H            0.09660098864643       -1.22807437665278       -1.58856373160947
H            0.73903992676914       -2.21970624156436       -0.27625062163150
H            2.60419639524364       -0.37964431634932        0.80825230807661
21
 energy: -24.061649393976 gnorm: 0.000178060559 xtb: 6.7.1 (edcfbbe)
C           -2.31915709802828       -0.05683573974657       -1.02022445470745
C           -1.76616041534384        0.64358614481100        0.21615816456620
C           -0.58385461667296       -0.05980115167720        0.88430374575402
C            0.76854691012316       -0.10354474816321        0.14280743371936
C            1.07423181770417        1.20574632324643       -0.59157955741412
C            0.86286260937528       -1.28866379622649       -0.82381437041227
O            1.72301411792038       -0.28787861332455        1.19512157900256
H           -2.48948609001094       -1.11138304309415       -0.81696245177309
H           -1.64095428399288        0.03012923454829       -1.86459290764942
H           -3.26674570400827        0.39384853248755       -1.30711328788524
H           -1.49705232018030        1.66989252038537       -0.03441742896992
H           -2.56168607809016        0.69272287030579        0.96370058933360
H           -0.38159034866649        0.44776737940554        1.83123265330103
H           -0.86606583331364       -1.08637020533630        1.12722049714550
H            2.08401088536303        1.17554428391701       -0.99663131563033
H            1.00491132710633        2.04340535445066        0.09816608926718
H            0.38142623507451        1.35741139152058       -1.41247602349029
H            1.83652730377167       -1.29896732031445       -1.31095300400347
H            0.09655020365924       -1.22933064731910       -1.58765095059004
H            0.74014317406955       -2.21979389141290       -0.27490507187751
H            2.60404193370218       -0.38030521269299        0.80762510430368
