      -----------------------------------------------------------      
     |                   =====================                   |     
     |                           x T B                           |     
     |                   =====================                   |     
     |                         S. Grimme                         |     
     |          Mulliken Center for Theoretical Chemistry        |     
     |                    University of Bonn                     |     
      -----------------------------------------------------------      

   * xtb version 6.7.1 (edcfbbe) compiled by 'albert@albert-system' on 2024-07-22

   xtb is free software: you can redistribute it and/or modify it under
   the terms of the GNU Lesser General Public License as published by
   the Free Software Foundation, either version 3 of the License, or
   (at your option) any later version.
   
   xtb is distributed in the hope that it will be useful,
   but WITHOUT ANY WARRANTY; without even the implied warranty of
   MERCHANTABILITY or FITNESS FOR A PARTICULAR PURPOSE.  See the
   GNU Lesser General Public License for more details.
   
   Cite this work as:
   * C. Bannwarth, E. Caldeweyher, S. Ehlert, A. Hansen, P. Pracht,
     J. Seibert, S. Spicher, S. Grimme, WIREs Comput. Mol. Sci., 2020, 11,
     e01493. DOI: 10.1002/wcms.1493
   
   for GFN2-xTB:
   * C. Bannwarth, S. Ehlert and S. Grimme., J. Chem. Theory Comput., 2019,
     15, 1652-1671. DOI: 10.1021/acs.jctc.8b01176
   for GFN1-xTB:
   * S. Grimme, C. Bannwarth, P. Shushkov, J. Chem. Theory Comput., 2017,
     13, 1989-2009. DOI: 10.1021/acs.jctc.7b00118
   for GFN0-xTB:
   * P. Pracht, E. Caldeweyher, S. Ehlert, S. Grimme, ChemRxiv, 2019, preprint.
     DOI: 10.26434/chemrxiv.8326202.v1
   for GFN-FF:
   * S. Spicher and S. Grimme, Angew. Chem. Int. Ed., 2020, 59, 15665-15673.
     DOI: 10.1002/anie.202004239
   
   for ALPB and GBSA implicit solvation:
   * S. Ehlert, M. Stahn, S. Spicher, S. Grimme, J. Chem. Theory Comput.,
     2021, 17, 4250-4261. DOI: 10.1021/acs.jctc.1c00471
   
   for ddCOSMO and CPCM-X implicit solvation:
   * M. Stahn, S. Ehlert, S. Grimme, J. Phys. Chem. A,
     2023, XX, XXXX-XXXX. DOI: 10.1021/acs.jpca.3c04382
   
   for DFT-D4:
   * E. Caldeweyher, C. Bannwarth and S. Grimme, J. Chem. Phys., 2017,
     147, 034112. DOI: 10.1063/1.4993215
   * E. Caldeweyher, S. Ehlert, A. Hansen, H. Neugebauer, S. Spicher,
     C. Bannwarth and S. Grimme, J. Chem. Phys., 2019, 150, 154122.
     DOI: 10.1063/1.5090222
   * E. Caldeweyher, J.-M. Mewes, S. Ehlert and S. Grimme, Phys. Chem. Chem. Phys.
     2020, 22, 8499-8512. DOI: 10.1039/D0CP00502A
   
   for sTDA-xTB:
   * S. Grimme and C. Bannwarth, J. Chem. Phys., 2016, 145, 054103.
     DOI: 10.1063/1.4959605
   
   in the mass-spec context:
   * V. Asgeirsson, C. Bauer and S. Grimme, Chem. Sci., 2017, 8, 4879.
     DOI: 10.1039/c7sc00601b
   * J. Koopman and S. Grimme, ACS Omega 2019, 4, 12, 15120-15133.
     DOI: 10.1021/acsomega.9b02011
   
   for metadynamics refer to:
   * S. Grimme, J. Chem. Theory Comput., 2019, 155, 2847-2862
     DOI: 10.1021/acs.jctc.9b00143
   
   for SPH calculations refer to:
   * S. Spicher and S. Grimme, J. Chem. Theory Comput., 2021, 17, 1701-1714
     DOI: 10.1021/acs.jctc.0c01306
   
   for ONIOM refer to:
   * C. Plett, A. Katbashev, S. Ehlert, S. Grimme, M. Bursch,
     Phys. Chem. Chem. Phys., 2023, 25, 17860-17868. DOI: 10.1039/D3CP02178E
   
   for DIPRO refer to:
   * J. Kohn, N. Gildemeister, S. Grimme, D. Fazzi, A. Hansen,
     J. Chem. Phys., 2023, just accepted.
   
   for PTB refer to:
   * S. Grimme, M. Mueller, A. Hansen, J. Chem. Phys., 2023, 158, 124111.
     DOI: 10.1063/5.0137838
   
   with help from (in alphabetical order)
   P. Atkinson, C. Bannwarth, F. Bohle, G. Brandenburg, E. Caldeweyher
   M. Checinski, S. Dohm, S. Ehlert, S. Ehrlich, I. Gerasimov, C. Hölzer
   A. Katbashev, J. Kohn, J. Koopman, C. Lavigne, S. Lehtola, F. März, M. Müller,
   F. Musil, H. Neugebauer, J. Pisarek, C. Plett, P. Pracht, F. Pultar,
   J. Seibert, P. Shushkov, S. Spicher, M. Stahn, M. Steiner, T. Strunk,
   J. Stückrath, T. Rose, and J. Unsleber
   
 * started run on 2025/04/11 at 12:05:52.583     
   ID    Z sym.   atoms
    1    6 C      1-8
    2    1 H      9-26

           -------------------------------------------------
          |                Calculation Setup                |
           -------------------------------------------------

          program call               : /srv/scratch/z5358697/.xtb/bin/xtb xtb_rrho.coord --gfn2 --ohess vtight --chrg 0 --enso --norestart -I rrho-xcontrol-inp --parallel 1 --alpb water
          hostname                   : k121
          coordinate file            : xtb_rrho.coord
          omp threads                :                     1


           -------------------------------------------------
          |                 G F N 2 - x T B                 |
           -------------------------------------------------

        Reference                      10.1021/acs.jctc.8b01176
      * Hamiltonian:
        H0-scaling (s, p, d)           1.850000    2.230000    2.230000
        zeta-weighting                 0.500000
      * Dispersion:
        s8                             2.700000
        a1                             0.520000
        a2                             5.000000
        s9                             5.000000
      * Repulsion:
        kExp                           1.500000    1.000000
        rExp                           1.000000
      * Coulomb:
        alpha                          2.000000
        third order                    shell-resolved
        anisotropic                    true
        a3                             3.000000
        a5                             4.000000
        cn-shift                       1.200000
        cn-exp                         4.000000
        max-rad                        5.000000

      * Solvation model:               ALPB
        Solvent                        water
        Parameter file                 internal GFN2-xTB/ALPB
        Dielectric constant                8.0200E+01
        Reference state                gsolv [1 M gas/solution]
        Free energy shift                  1.0808E-03 Eh       6.7819E-01 kcal/mol
        Temperature                        2.9815E+02 K
        Density                            1.0000E+00 kg/L
        Solvent mass                       1.8000E+01 g/mol
        Interaction kernel             P16
        Born radius scaling (c1)           1.4744E+00
        Born radii integrator          GBOBC
        Born offset                        0.0000E+00 a0       0.0000E+00 AA
        H-bond correction              true
        Ion screening                  false
        Surface tension                    1.0000E-05 Eh       1.5569E+01 dyn/cm
        Grid points                               974 per atom

          ...................................................
          :                      SETUP                      :
          :.................................................:
          :  # basis functions                  50          :
          :  # atomic orbitals                  50          :
          :  # shells                           34          :
          :  # electrons                        50          :
          :  max. iterations                   250          :
          :  Hamiltonian                  GFN2-xTB          :
          :  restarted?                      false          :
          :  GBSA solvation                   true          :
          :  PC potential                    false          :
          :  electronic temp.          300.0000000     K    :
          :  accuracy                    1.0000000          :
          :  -> integral cutoff          0.2500000E+02      :
          :  -> integral neglect         0.1000000E-07      :
          :  -> SCF convergence          0.1000000E-05 Eh   :
          :  -> wf. convergence          0.1000000E-03 e    :
          :  Broyden damping             0.4000000          :
          :  net charge                          0          :
          :  unpaired electrons                  0          :
          ...................................................

 iter      E             dE          RMSdq      gap      omega  full diag
   1    -26.6567673 -0.266568E+02  0.226E+00   12.40       0.0  T
   2    -26.7006079 -0.438406E-01  0.120E+00   12.30       1.0  T
   3    -26.7018321 -0.122420E-02  0.580E-01   12.29       1.0  T
   4    -26.7019996 -0.167494E-03  0.102E-01   12.29       1.0  T
   5    -26.7020401 -0.404511E-04  0.533E-02   12.29       1.0  T
   6    -26.7020402 -0.193543E-06  0.459E-03   12.29       4.3  T
   7    -26.7020406 -0.379721E-06  0.105E-03   12.29      18.6  T
   8    -26.7020406 -0.135524E-08  0.536E-04   12.29      36.6  T
   9    -26.7020406 -0.144897E-09  0.653E-05   12.29     300.2  T

   *** convergence criteria satisfied after 9 iterations ***

         #    Occupation            Energy/Eh            Energy/eV
      -------------------------------------------------------------
         1        2.0000           -0.6244893             -16.9932
       ...           ...                  ...                  ...
        19        2.0000           -0.4442379             -12.0883
        20        2.0000           -0.4371595             -11.8957
        21        2.0000           -0.4343542             -11.8194
        22        2.0000           -0.4246852             -11.5563
        23        2.0000           -0.4126993             -11.2301
        24        2.0000           -0.4076381             -11.0924
        25        2.0000           -0.4063118             -11.0563 (HOMO)
        26                          0.0453639               1.2344 (LUMO)
        27                          0.0707485               1.9252
        28                          0.0881364               2.3983
        29                          0.1008137               2.7433
        30                          0.1079618               2.9378
       ...                                ...                  ...
        50                          0.3074124               8.3651
      -------------------------------------------------------------
                  HL-Gap            0.4516757 Eh           12.2907 eV
             Fermi-level           -0.1804740 Eh           -4.9109 eV

 SCC (total)                   0 d,  0 h,  0 min,  0.032 sec
 SCC setup                      ...        0 min,  0.002 sec (  5.722%)
 Dispersion                     ...        0 min,  0.000 sec (  0.606%)
 classical contributions        ...        0 min,  0.000 sec (  0.172%)
 integral evaluation            ...        0 min,  0.002 sec (  6.516%)
 iterations                     ...        0 min,  0.021 sec ( 66.159%)
 molecular gradient             ...        0 min,  0.007 sec ( 20.161%)
 printout                       ...        0 min,  0.000 sec (  0.597%)

         :::::::::::::::::::::::::::::::::::::::::::::::::::::
         ::                     SUMMARY                     ::
         :::::::::::::::::::::::::::::::::::::::::::::::::::::
         :: total energy             -26.320794985502 Eh    ::
         :: total w/o Gsasa/hb       -26.320367826619 Eh    ::
         :: gradient norm              0.024751556201 Eh/a0 ::
         :: HOMO-LUMO gap             12.290720935543 eV    ::
         ::.................................................::
         :: SCC energy               -26.701870557540 Eh    ::
         :: -> isotropic ES            0.006194809228 Eh    ::
         :: -> anisotropic ES          0.009946514050 Eh    ::
         :: -> anisotropic XC          0.016509528151 Eh    ::
         :: -> dispersion             -0.018377060430 Eh    ::
         :: -> Gsolv                  -0.000572445932 Eh    ::
         ::    -> Gelec               -0.000145287049 Eh    ::
         ::    -> Gsasa               -0.000997853789 Eh    ::
         ::    -> Ghb                 -0.000510064793 Eh    ::
         ::    -> Gshift               0.001080759698 Eh    ::
         :: repulsion energy           0.381075572038 Eh    ::
         :: add. restraining           0.000000000000 Eh    ::
         :: total charge              -0.000000000000 e     ::
         :::::::::::::::::::::::::::::::::::::::::::::::::::::

      ----------------------------------------------------------- 
     |                   =====================                   |
     |                        A N C O P T                        |
     |                   =====================                   |
     |               Approximate Normal Coordinate               |
     |                Rational Function Optimizer                |
      ----------------------------------------------------------- 
      ----------------------------------------------------------- 
     |                   =====================                   |
     |                        A N C O P T                        |
     |                   =====================                   |
     |               Approximate Normal Coordinate               |
     |                Rational Function Optimizer                |
      ----------------------------------------------------------- 

          ...................................................
          :                      SETUP                      :
          :.................................................:
          :   optimization level         verytight          :
          :   max. optcycles                   520          :
          :   ANC micro-cycles                  20          :
          :   degrees of freedom                72          :
          :.................................................:
          :   RF solver                   davidson          :
          :   write xtbopt.log                true          :
          :   linear?                        false          :
          :   energy convergence         0.1000000E-06 Eh   :
          :   grad. convergence          0.2000000E-03 Eh/α :
          :   maxmium RF displ.          1.0000000          :
          :   Hlow (freq-cutoff)         0.1000000E-01      :
          :   Hmax (freq-cutoff)         5.0000000          :
          :   S6 in model hess.         20.0000000          :
          ...................................................

generating ANC from exact Hessian ...
Using Lindh-Hessian (1995)
 Shifting diagonal of input Hessian by   8.657345835620941E-003
 Lowest  eigenvalues of input Hessian
    0.000000    0.000000    0.000000    0.000000    0.000000    0.000000
    0.010000    0.010219    0.011627    0.014348    0.015242    0.016124
    0.016579    0.017256    0.017386    0.017596    0.017786    0.020858
 Highest eigenvalues
    1.164817    1.177953    1.211405    1.245564    1.256070    1.259927
 

........................................................................
.............................. CYCLE    1 ..............................
........................................................................

 iter      E             dE          RMSdq      gap      omega  full diag
   1    -26.7020406 -0.267020E+02  0.342E-05   12.29       0.0  T
   2    -26.7020406 -0.141398E-11  0.225E-05   12.29     869.8  T
   3    -26.7020406 -0.866862E-12  0.500E-06   12.29    3919.1  T
     SCC iter.                  ...        0 min,  0.002 sec
     gradient                   ...        0 min,  0.006 sec
 * total energy  :   -26.3207950 Eh     change       -0.8292034E-11 Eh
   gradient norm :     0.0247515 Eh/α   predicted     0.0000000E+00 (-100.00%)
   displ. norm   :     0.1264785 α      lambda       -0.1513258E-02
   maximum displ.:     0.0614833 α      in ANC's #15, #17, #18, ...

........................................................................
.............................. CYCLE    2 ..............................
........................................................................

 iter      E             dE          RMSdq      gap      omega  full diag
   1    -26.7166311 -0.267166E+02  0.988E-02   12.45       0.0  T
   2    -26.7166397 -0.857643E-05  0.555E-02   12.45       1.0  T
   3    -26.7166401 -0.402627E-06  0.899E-03   12.45       2.2  T
   4    -26.7166402 -0.105548E-06  0.195E-03   12.45      10.0  T
   5    -26.7166402 -0.888003E-08  0.116E-03   12.45      17.0  T
   6    -26.7166402 -0.178412E-08  0.155E-04   12.45     126.7  T
   7    -26.7166402 -0.109360E-09  0.961E-05   12.45     204.0  T
     SCC iter.                  ...        0 min,  0.004 sec
     gradient                   ...        0 min,  0.006 sec
 * total energy  :   -26.3216921 Eh     change       -0.8970764E-03 Eh
   gradient norm :     0.0078502 Eh/α   predicted    -0.7687352E-03 ( -14.31%)
   displ. norm   :     0.0523468 α      lambda       -0.1640893E-03
   maximum displ.:     0.0264994 α      in ANC's #2, #15, #9, ...

........................................................................
.............................. CYCLE    3 ..............................
........................................................................

 iter      E             dE          RMSdq      gap      omega  full diag
   1    -26.7218633 -0.267219E+02  0.296E-02   12.48       0.0  T
   2    -26.7218648 -0.145182E-05  0.167E-02   12.48       1.2  T
   3    -26.7218648 -0.546714E-07  0.371E-03   12.48       5.3  T
   4    -26.7218649 -0.187106E-07  0.745E-04   12.48      26.3  T
   5    -26.7218649 -0.238064E-08  0.405E-04   12.48      48.4  T
     SCC iter.                  ...        0 min,  0.003 sec
     gradient                   ...        0 min,  0.007 sec
 * total energy  :   -26.3217759 Eh     change       -0.8380113E-04 Eh
   gradient norm :     0.0017031 Eh/α   predicted    -0.8227341E-04 (  -1.82%)
   displ. norm   :     0.0794163 α      lambda        0.1532028E-03
   maximum displ.:     0.0406043 α      in ANC's #2, #9, #15, ...

........................................................................
.............................. CYCLE    4 ..............................
........................................................................

 iter      E             dE          RMSdq      gap      omega  full diag
   1    -26.7294798 -0.267295E+02  0.443E-02   12.52       0.0  T
   2    -26.7294831 -0.326932E-05  0.249E-02   12.52       1.0  T
   3    -26.7294832 -0.126959E-06  0.554E-03   12.52       3.5  T
   4    -26.7294833 -0.428321E-07  0.112E-03   12.52      17.5  T
   5    -26.7294833 -0.534063E-08  0.607E-04   12.52      32.3  T
   6    -26.7294833 -0.166093E-09  0.709E-05   12.52     276.7  T
     SCC iter.                  ...        0 min,  0.003 sec
     gradient                   ...        0 min,  0.007 sec
 * total energy  :   -26.3216010 Eh     change        0.1748943E-03 Eh
   gradient norm :     0.0114830 Eh/α   predicted     0.7681212E-04 ( -56.08%)
   displ. norm   :     0.0352852 α      lambda       -0.2474513E-03
   maximum displ.:     0.0120702 α      in ANC's #43, #48, #15, ...

........................................................................
.............................. CYCLE    5 ..............................
........................................................................

 iter      E             dE          RMSdq      gap      omega  full diag
   1    -26.7242781 -0.267243E+02  0.296E-02   12.50       0.0  T
   2    -26.7242794 -0.133793E-05  0.167E-02   12.50       1.2  T
   3    -26.7242795 -0.529905E-07  0.355E-03   12.50       5.5  T
   4    -26.7242795 -0.226872E-07  0.787E-04   12.50      24.9  T
   5    -26.7242795 -0.293839E-08  0.426E-04   12.50      46.0  T
     SCC iter.                  ...        0 min,  0.003 sec
     gradient                   ...        0 min,  0.006 sec
 * total energy  :   -26.3217679 Eh     change       -0.1669240E-03 Eh
   gradient norm :     0.0042098 Eh/α   predicted    -0.1238801E-03 ( -25.79%)
   displ. norm   :     0.0277959 α      lambda       -0.5341085E-04
   maximum displ.:     0.0174905 α      in ANC's #2, #15, #4, ...

........................................................................
.............................. CYCLE    6 ..............................
........................................................................

 iter      E             dE          RMSdq      gap      omega  full diag
   1    -26.7212998 -0.267213E+02  0.162E-02   12.48       0.0  T
   2    -26.7213002 -0.443644E-06  0.904E-03   12.48       2.2  T
   3    -26.7213003 -0.180815E-07  0.206E-03   12.48       9.5  T
   4    -26.7213003 -0.537507E-08  0.425E-04   12.48      46.2  T
   5    -26.7213003 -0.680384E-09  0.236E-04   12.48      83.3  T
     SCC iter.                  ...        0 min,  0.003 sec
     gradient                   ...        0 min,  0.006 sec
 * total energy  :   -26.3217974 Eh     change       -0.2950374E-04 Eh
   gradient norm :     0.0003140 Eh/α   predicted    -0.2674683E-04 (  -9.34%)
   displ. norm   :     0.0365936 α      lambda       -0.5751776E-05
   maximum displ.:     0.0311609 α      in ANC's #2, #9, #1, ...

........................................................................
.............................. CYCLE    7 ..............................
........................................................................

 iter      E             dE          RMSdq      gap      omega  full diag
   1    -26.7208390 -0.267208E+02  0.672E-03   12.48       0.0  T
   2    -26.7208391 -0.127319E-07  0.397E-03   12.48       4.9  T
   3    -26.7208391 -0.111217E-08  0.276E-04   12.48      71.0  T
   4    -26.7208391 -0.330967E-09  0.111E-04   12.48     176.9  T
     SCC iter.                  ...        0 min,  0.002 sec
     gradient                   ...        0 min,  0.006 sec
 * total energy  :   -26.3218049 Eh     change       -0.7469458E-05 Eh
   gradient norm :     0.0005802 Eh/α   predicted    -0.2905700E-05 ( -61.10%)
   displ. norm   :     0.0572212 α      lambda       -0.7981635E-05
   maximum displ.:     0.0432782 α      in ANC's #2, #1, #9, ...

........................................................................
.............................. CYCLE    8 ..............................
........................................................................

 iter      E             dE          RMSdq      gap      omega  full diag
   1    -26.7209867 -0.267210E+02  0.101E-02   12.48       0.0  T
   2    -26.7209867 -0.517739E-08  0.605E-03   12.48       3.2  T
   3    -26.7209867 -0.185295E-08  0.249E-04   12.48      78.7  T
   4    -26.7209867 -0.267573E-09  0.141E-04   12.48     139.2  T
     SCC iter.                  ...        0 min,  0.002 sec
     gradient                   ...        0 min,  0.006 sec
 * total energy  :   -26.3218151 Eh     change       -0.1019610E-04 Eh
   gradient norm :     0.0003956 Eh/α   predicted    -0.3998619E-05 ( -60.78%)
   displ. norm   :     0.0731786 α      lambda       -0.7540548E-05
   maximum displ.:     0.0547295 α      in ANC's #2, #1, #11, ...

........................................................................
.............................. CYCLE    9 ..............................
........................................................................

 iter      E             dE          RMSdq      gap      omega  full diag
   1    -26.7212208 -0.267212E+02  0.126E-02   12.48       0.0  T
   2    -26.7212208 -0.106202E-07  0.750E-03   12.48       2.6  T
   3    -26.7212208 -0.280346E-08  0.323E-04   12.48      60.8  T
   4    -26.7212208 -0.486043E-09  0.175E-04   12.48     112.3  T
     SCC iter.                  ...        0 min,  0.002 sec
     gradient                   ...        0 min,  0.006 sec
 * total energy  :   -26.3218240 Eh     change       -0.8978971E-05 Eh
   gradient norm :     0.0002121 Eh/α   predicted    -0.3780543E-05 ( -57.90%)
   displ. norm   :     0.0621981 α      lambda       -0.4457849E-05
   maximum displ.:     0.0464583 α      in ANC's #2, #1, #11, ...

........................................................................
.............................. CYCLE   10 ..............................
........................................................................

 iter      E             dE          RMSdq      gap      omega  full diag
   1    -26.7211696 -0.267212E+02  0.111E-02   12.48       0.0  T
   2    -26.7211696 -0.751075E-08  0.661E-03   12.48       3.0  T
   3    -26.7211696 -0.173521E-08  0.266E-04   12.48      73.6  T
   4    -26.7211696 -0.477819E-09  0.142E-04   12.48     138.4  T
     SCC iter.                  ...        0 min,  0.002 sec
     gradient                   ...        0 min,  0.006 sec
 * total energy  :   -26.3218294 Eh     change       -0.5364385E-05 Eh
   gradient norm :     0.0002665 Eh/α   predicted    -0.2233046E-05 ( -58.37%)
   displ. norm   :     0.0545551 α      lambda       -0.3457374E-05
   maximum displ.:     0.0401334 α      in ANC's #2, #1, #11, ...

........................................................................
.............................. CYCLE   11 ..............................
........................................................................

 iter      E             dE          RMSdq      gap      omega  full diag
   1    -26.7212933 -0.267213E+02  0.929E-03   12.48       0.0  T
   2    -26.7212933 -0.495113E-08  0.553E-03   12.48       3.5  T
   3    -26.7212933 -0.120885E-08  0.231E-04   12.48      85.0  T
   4    -26.7212933 -0.353555E-09  0.119E-04   12.48     164.2  T
     SCC iter.                  ...        0 min,  0.002 sec
     gradient                   ...        0 min,  0.006 sec
 * total energy  :   -26.3218338 Eh     change       -0.4439712E-05 Eh
   gradient norm :     0.0002115 Eh/α   predicted    -0.1731482E-05 ( -61.00%)
   displ. norm   :     0.0733387 α      lambda       -0.4539841E-05
   maximum displ.:     0.0518600 α      in ANC's #2, #1, #11, ...

........................................................................
.............................. CYCLE   12 ..............................
........................................................................

 iter      E             dE          RMSdq      gap      omega  full diag
   1    -26.7212948 -0.267213E+02  0.125E-02   12.48       0.0  T
   2    -26.7212948 -0.681680E-08  0.745E-03   12.48       2.6  T
   3    -26.7212948 -0.234696E-08  0.261E-04   12.48      75.0  T
   4    -26.7212948 -0.234152E-09  0.147E-04   12.48     133.1  T
     SCC iter.                  ...        0 min,  0.002 sec
     gradient                   ...        0 min,  0.006 sec
 * total energy  :   -26.3218399 Eh     change       -0.6042794E-05 Eh
   gradient norm :     0.0001907 Eh/α   predicted    -0.2276967E-05 ( -62.32%)
   displ. norm   :     0.1420887 α      lambda       -0.8155112E-05
   maximum displ.:     0.0970254 α      in ANC's #2, #1, #9, ...

........................................................................
.............................. CYCLE   13 ..............................
........................................................................

 iter      E             dE          RMSdq      gap      omega  full diag
   1    -26.7211143 -0.267211E+02  0.243E-02   12.47       0.0  T
   2    -26.7211143 -0.269759E-07  0.145E-02   12.47       1.4  T
   3    -26.7211144 -0.896557E-08  0.529E-04   12.47      37.1  T
   4    -26.7211144 -0.116470E-08  0.294E-04   12.47      66.7  T
     SCC iter.                  ...        0 min,  0.002 sec
     gradient                   ...        0 min,  0.006 sec
 * total energy  :   -26.3218494 Eh     change       -0.9508163E-05 Eh
   gradient norm :     0.0004160 Eh/α   predicted    -0.4114280E-05 ( -56.73%)
   displ. norm   :     0.1753805 α      lambda       -0.7239049E-05
   maximum displ.:     0.1172380 α      in ANC's #2, #1, #9, ...

........................................................................
.............................. CYCLE   14 ..............................
........................................................................

 iter      E             dE          RMSdq      gap      omega  full diag
   1    -26.7209364 -0.267209E+02  0.299E-02   12.47       0.0  T
   2    -26.7209364 -0.370791E-07  0.178E-02   12.47       1.1  T
   3    -26.7209364 -0.143026E-07  0.615E-04   12.47      31.9  T
   4    -26.7209364 -0.732424E-09  0.347E-04   12.47      56.5  T
     SCC iter.                  ...        0 min,  0.002 sec
     gradient                   ...        0 min,  0.006 sec
 * total energy  :   -26.3218555 Eh     change       -0.6099790E-05 Eh
   gradient norm :     0.0007737 Eh/α   predicted    -0.3670437E-05 ( -39.83%)
   displ. norm   :     0.0420458 α      lambda       -0.2325161E-05
   maximum displ.:     0.0244025 α      in ANC's #1, #2, #9, ...

........................................................................
.............................. CYCLE   15 ..............................
........................................................................

 iter      E             dE          RMSdq      gap      omega  full diag
   1    -26.7212697 -0.267213E+02  0.825E-03   12.47       0.0  T
   2    -26.7212697 -0.122440E-07  0.489E-03   12.47       4.0  T
   3    -26.7212697 -0.153086E-08  0.257E-04   12.47      76.2  T
   4    -26.7212697 -0.117232E-09  0.117E-04   12.47     168.0  T
     SCC iter.                  ...        0 min,  0.002 sec
     gradient                   ...        0 min,  0.006 sec
 * total energy  :   -26.3218577 Eh     change       -0.2203545E-05 Eh
   gradient norm :     0.0003019 Eh/α   predicted    -0.1168399E-05 ( -46.98%)
   displ. norm   :     0.0390163 α      lambda        0.4071263E-06
   maximum displ.:     0.0225734 α      in ANC's #1, #2, #9, ...

........................................................................
.............................. CYCLE   16 ..............................
........................................................................

 iter      E             dE          RMSdq      gap      omega  full diag
   1    -26.7215554 -0.267216E+02  0.769E-03   12.46       0.0  T
   2    -26.7215554 -0.973946E-08  0.456E-03   12.46       4.3  T
   3    -26.7215554 -0.119807E-08  0.239E-04   12.46      82.0  T
   4    -26.7215554 -0.171667E-09  0.109E-04   12.46     180.6  T
     SCC iter.                  ...        0 min,  0.002 sec
     gradient                   ...        0 min,  0.006 sec
 * total energy  :   -26.3218575 Eh     change        0.1731057E-06 Eh
   gradient norm :     0.0006686 Eh/α   predicted     0.2015159E-06 (  16.41%)
   displ. norm   :     0.0151923 α      lambda       -0.1472442E-05
   maximum displ.:     0.0096254 α      in ANC's #1, #9, #2, ...

........................................................................
.............................. CYCLE   17 ..............................
........................................................................

 iter      E             dE          RMSdq      gap      omega  full diag
   1    -26.7214387 -0.267214E+02  0.531E-03   12.47       0.0  T
   2    -26.7214387 -0.648406E-08  0.313E-03   12.47       6.3  T
   3    -26.7214387  0.899334E-10  0.270E-04   12.47      72.7  T
   4    -26.7214387 -0.869299E-09  0.771E-05   12.47     254.3  T
     SCC iter.                  ...        0 min,  0.002 sec
     gradient                   ...        0 min,  0.006 sec
 * total energy  :   -26.3218587 Eh     change       -0.1198151E-05 Eh
   gradient norm :     0.0002193 Eh/α   predicted    -0.7366085E-06 ( -38.52%)
   displ. norm   :     0.0072049 α      lambda       -0.2913201E-06
   maximum displ.:     0.0045071 α      in ANC's #2, #7, #9, ...

........................................................................
.............................. CYCLE   18 ..............................
........................................................................

 iter      E             dE          RMSdq      gap      omega  full diag
   1    -26.7213677 -0.267214E+02  0.186E-03   12.47       0.0  T
   2    -26.7213677 -0.585946E-09  0.110E-03   12.47      17.8  T
   3    -26.7213677 -0.779146E-10  0.629E-05   12.47     312.0  T
   4    -26.7213677 -0.201474E-10  0.302E-05   12.47     650.0  T
     SCC iter.                  ...        0 min,  0.002 sec
     gradient                   ...        0 min,  0.006 sec
 * total energy  :   -26.3218590 Eh     change       -0.3235976E-06 Eh
   gradient norm :     0.0001104 Eh/α   predicted    -0.1469281E-06 ( -54.60%)
   displ. norm   :     0.0157143 α      lambda       -0.3856720E-06
   maximum displ.:     0.0092636 α      in ANC's #2, #7, #9, ...

........................................................................
.............................. CYCLE   19 ..............................
........................................................................

 iter      E             dE          RMSdq      gap      omega  full diag
   1    -26.7212800 -0.267213E+02  0.297E-03   12.47       0.0  T
   2    -26.7212800 -0.716586E-09  0.179E-03   12.47      11.0  T
   3    -26.7212800 -0.167166E-09  0.818E-05   12.47     239.7  T
   4    -26.7212800 -0.465903E-10  0.425E-05   12.47     461.9  T
     SCC iter.                  ...        0 min,  0.003 sec
     gradient                   ...        0 min,  0.006 sec
 * total energy  :   -26.3218594 Eh     change       -0.3926217E-06 Eh
   gradient norm :     0.0001487 Eh/α   predicted    -0.1940760E-06 ( -50.57%)
   displ. norm   :     0.0157143 α      lambda        0.0000000E+00
   maximum displ.:     0.0092636 α      in ANC's #2, #7, #9, ...

........................................................................
.............................. CYCLE   20 ..............................
........................................................................

 iter      E             dE          RMSdq      gap      omega  full diag
   1    -26.7211857 -0.267212E+02  0.297E-03   12.47       0.0  T
   2    -26.7211857 -0.758071E-09  0.178E-03   12.47      11.0  T
   3    -26.7211857 -0.168146E-09  0.826E-05   12.47     237.3  T
   4    -26.7211857 -0.470450E-10  0.426E-05   12.47     460.9  T
     SCC iter.                  ...        0 min,  0.002 sec
     gradient                   ...        0 min,  0.006 sec
 * total energy  :   -26.3218595 Eh     change       -0.1498753E-07 Eh
   gradient norm :     0.0002921 Eh/α   predicted     0.1306650E-08 (-108.72%)
   displ. norm   :     0.0041143 α      lambda       -0.1895137E-06
   maximum displ.:     0.0026910 α      in ANC's #9, #11, #8, ...
 * RMSD in coord.:     0.1596510 α      energy gain  -0.1064470E-02 Eh

generating ANC from exact Hessian ...
Using Lindh-Hessian (1995)
 Shifting diagonal of input Hessian by   8.681549650056674E-003
 Lowest  eigenvalues of input Hessian
    0.000000    0.000000    0.000000    0.000000    0.000000    0.000000
    0.010000    0.010307    0.011680    0.014547    0.015500    0.016395
    0.017008    0.017686    0.017786    0.018013    0.018233    0.021359
 Highest eigenvalues
    1.196722    1.201055    1.222978    1.258772    1.267381    1.274523
 

........................................................................
.............................. CYCLE   21 ..............................
........................................................................

 iter      E             dE          RMSdq      gap      omega  full diag
   1    -26.7212682 -0.267213E+02  0.131E-03   12.47       0.0  T
   2    -26.7212682 -0.537330E-09  0.768E-04   12.47      25.6  T
   3    -26.7212682 -0.475886E-10  0.673E-05   12.47     291.2  T
     SCC iter.                  ...        0 min,  0.002 sec
     gradient                   ...        0 min,  0.006 sec
 * total energy  :   -26.3218597 Eh     change       -0.1947914E-06 Eh
   gradient norm :     0.0001193 Eh/α   predicted     0.0000000E+00 (-100.00%)
   displ. norm   :     0.0032962 α      lambda       -0.1916840E-07
   maximum displ.:     0.0024250 α      in ANC's #1, #2, #11, ...

........................................................................
.............................. CYCLE   22 ..............................
........................................................................

 iter      E             dE          RMSdq      gap      omega  full diag
   1    -26.7213575 -0.267214E+02  0.973E-04   12.47       0.0  T
   2    -26.7213575 -0.420915E-09  0.569E-04   12.47      34.4  T
   3    -26.7213575 -0.177351E-10  0.579E-05   12.47     338.6  T
     SCC iter.                  ...        0 min,  0.002 sec
     gradient                   ...        0 min,  0.006 sec
 * total energy  :   -26.3218597 Eh     change       -0.9526585E-07 Eh
   gradient norm :     0.0000614 Eh/α   predicted    -0.4828825E-07 ( -49.31%)
   displ. norm   :     0.0053736 α      lambda       -0.8636334E-07
   maximum displ.:     0.0038596 α      in ANC's #1, #2, #11, ...

   *** GEOMETRY OPTIMIZATION CONVERGED AFTER 22 ITERATIONS ***

------------------------------------------------------------------------
 total energy gain   :        -0.0010648 Eh       -0.6681 kcal/mol
 total RMSD          :         0.1598285 a0        0.0846 Å
 total power (kW/mol):        -0.1270694 (step)   -8.5329 (real)
------------------------------------------------------------------------

 ANCopt (total)                0 d,  0 h,  0 min,  0.328 sec
 optimizer setup                ...        0 min,  0.000 sec (  0.110%)
 model hessian                  ...        0 min,  0.038 sec ( 11.699%)
 ANC generation                 ...        0 min,  0.001 sec (  0.419%)
 coordinate transformation      ...        0 min,  0.000 sec (  0.076%)
 single point calculation       ...        0 min,  0.276 sec ( 84.098%)
 optimization log               ...        0 min,  0.009 sec (  2.667%)
 hessian update                 ...        0 min,  0.000 sec (  0.079%)
 rational function              ...        0 min,  0.002 sec (  0.522%)

================
 final structure:
================
$coord
       -4.64109358503270        1.43332422296188        1.01967327745467      C
       -2.33517012092728       -0.31363213261558        1.01296123756232      C
       -3.15725094538370       -2.91172594932592        0.04557112165331      C
       -0.16755630017216        0.83593558516560       -0.56934769702400      C
        0.61583707328612        3.40370624704917        0.50982937077426      C
        2.11873425761176       -0.95828580834056       -0.85360378927967      C
        3.96872702136029       -0.01532254665628       -2.86711317166428      C
        3.52446029530478       -1.41859822422960        1.62493678069293      C
       -6.19805151922961        0.54011431582181        2.02175265608995      H
       -4.23644452019066        3.21542654152815        1.95157766855457      H
       -5.25140255278194        1.81903542878367       -0.90568389263646      H
       -1.68884180103335       -0.51952506163210        2.96839537430807      H
       -3.55410583537562       -2.83469708030221       -1.97039829824486      H
       -4.86894634926444       -3.50802865751477        1.01542953994187      H
       -1.72261206467141       -4.34043004186838        0.38324729993740      H
       -0.90896647658417        1.14606835258793       -2.48124002322643      H
        0.93878542346884        3.27403541534451        2.53485230067924      H
       -0.84282502931670        4.80815615115826        0.17483232690713      H
        2.33450072710371        4.07796694533527       -0.38508208460813      H
        1.39772274174567       -2.77317206724814       -1.52976381047001      H
        2.98162577529869        0.41384584207279       -4.61818562823632      H
        4.96403453155683        1.67144626213532       -2.24830978455669      H
        5.37352166287222       -1.46462327903514       -3.25692359683108      H
        4.36876152947244        0.31865503766000        2.32155690724196      H
        5.03057121805404       -2.78643508739226        1.32808507866508      H
        2.26315100458003       -2.16108305241725        3.06525007367211      H
$end
 
 Bond Distances (Angstroems)
 ---------------------------
C1-C2=1.5309         C1-H9=1.0879         C1-H10=1.0855        C1-H11=1.0881        C2-C1=1.5309         C2-C3=1.5302         
C2-C4=1.5450         C2-H12=1.0953        C3-C2=1.5302         C3-H13=1.0880        C3-H14=1.0879        C3-H15=1.0862        
C4-C2=1.5450         C4-C5=1.5311         C4-C6=1.5453         C4-H16=1.0975        C5-C4=1.5311         C5-H17=1.0873        
C5-H18=1.0861        C5-H19=1.0857        C6-C4=1.5453         C6-C7=1.5306         C6-C8=1.5274         C6-H20=1.0936        
C7-C6=1.5306         C7-H21=1.0877        C7-H22=1.0869        C7-H23=1.0878        C8-C6=1.5274         C8-H24=1.0866        
C8-H25=1.0880        C8-H26=1.0866        H9-C1=1.0879         H10-C1=1.0855        H11-C1=1.0881        H12-C2=1.0953        
H13-C3=1.0880        H14-C3=1.0879        H15-C3=1.0862        H16-C4=1.0975        H17-C5=1.0873        H18-C5=1.0861        
H19-C5=1.0857        H20-C6=1.0936        H21-C7=1.0877        H22-C7=1.0869        H23-C7=1.0878        H24-C8=1.0866        
H25-C8=1.0880        H26-C8=1.0866        
 C  H  Rav=1.0885 sigma=0.0033  Rmin=1.0855  Rmax=1.0975    18
 C  C  Rav=1.5343 sigma=0.0069  Rmin=1.5274  Rmax=1.5453     7
 
 selected bond angles (degree)
 --------------------
H9-C1-C2=110.03                H10-C1-C2=111.62               H10-C1-H9=107.78               H11-C1-C2=110.35               
H11-C1-H9=108.25               H11-C1-H10=108.72              C3-C2-C1=108.47                C4-C2-C1=110.81                
C4-C2-C3=112.55                H12-C2-C1=107.87               H12-C2-C3=108.39               H12-C2-C4=108.62               
H13-C3-C2=110.44               H14-C3-C2=109.85               H14-C3-H13=108.22              H15-C3-C2=111.82               
H15-C3-H13=108.80              H15-C3-H14=107.60              C5-C4-C2=110.38                C6-C4-C2=113.09                
C6-C4-C5=111.69                H16-C4-C2=107.04               H16-C4-C5=107.93               H16-C4-C6=106.38               
H17-C5-C4=110.74               H18-C5-C4=110.73               H18-C5-H17=108.41              H19-C5-C4=110.84               
H19-C5-H17=108.60              H19-C5-H18=107.41              C7-C6-C4=111.61                C8-C6-C4=113.31                
C8-C6-C7=109.77                H20-C6-C4=107.35               H20-C6-C7=106.36               H20-C6-C8=108.11               
H21-C7-C6=110.73               H22-C7-C6=111.59               H22-C7-H21=108.54              H23-C7-C6=109.83               
H23-C7-H21=108.29              H23-C7-H22=107.76              H24-C8-C6=110.89               H25-C8-C6=109.81               
H25-C8-H24=108.10              H26-C8-C6=111.15               H26-C8-H24=108.69              H26-C8-H25=108.10              
 
 selected dihedral angles (degree)
 ---------------------------------
C3-C2-C1-H9= 51.80            C3-C2-C1-H10=171.41           C3-C2-C1-H11=292.42           C4-C2-C1-H9=175.82            
C4-C2-C1-H10=295.43           C4-C2-C1-H11= 56.44           H12-C2-C1-H9=294.60           H12-C2-C1-H10= 54.21          
H12-C2-C1-H11=175.22          H13-C3-C2-C1= 71.31           H13-C3-C2-C4=308.34           H13-C3-C2-H12=188.17          
H14-C3-C2-C1=312.01           H14-C3-C2-C4=189.04           H14-C3-C2-H12= 68.88          H15-C3-C2-C1=192.62           
H15-C3-C2-C4= 69.65           H15-C3-C2-H12=309.48          C5-C4-C2-C1= 59.50            C5-C4-C2-C3=181.15            
C5-C4-C2-H12=301.18           C6-C4-C2-C1=185.45            C6-C4-C2-C3=307.10            C6-C4-C2-H12= 67.12           
H16-C4-C2-C1=302.28           H16-C4-C2-C3= 63.93           H16-C4-C2-H12=183.95          H17-C5-C4-C2= 49.82           
H17-C5-C4-C6=283.09           H17-C5-C4-H16=166.49          H18-C5-C4-C2=289.53           H18-C5-C4-C6=162.80           
H18-C5-C4-H16= 46.20          H19-C5-C4-C2=170.42           H19-C5-C4-C6= 43.69           H19-C5-C4-H16=287.09          
C7-C6-C4-C2=167.86            C7-C6-C4-C5=293.10            C7-C6-C4-H16= 50.64           C8-C6-C4-C2=292.39            
C8-C6-C4-C5= 57.63            C8-C6-C4-H16=175.17           H20-C6-C4-C2= 51.68           H20-C6-C4-C5=176.92           
H20-C6-C4-H16=294.46          H21-C7-C6-C4=309.38           H21-C7-C6-C8=182.89           H21-C7-C6-H20= 66.17          
H22-C7-C6-C4= 70.40           H22-C7-C6-C8=303.91           H22-C7-C6-H20=187.18          H23-C7-C6-C4=189.83           
H23-C7-C6-C8= 63.34           H23-C7-C6-H20=306.61          H24-C8-C6-C4=295.70           H24-C8-C6-C7= 61.22           
H24-C8-C6-H20=176.84          H25-C8-C6-C4=176.30           H25-C8-C6-C7=301.82           H25-C8-C6-H20= 57.44          
H26-C8-C6-C4= 56.74           H26-C8-C6-C7=182.25           H26-C8-C6-H20=297.88          
           -------------------------------------------------
          |                Final Singlepoint                |
           -------------------------------------------------

          ...................................................
          :                      SETUP                      :
          :.................................................:
          :  # basis functions                  50          :
          :  # atomic orbitals                  50          :
          :  # shells                           34          :
          :  # electrons                        50          :
          :  max. iterations                   250          :
          :  Hamiltonian                  GFN2-xTB          :
          :  restarted?                      false          :
          :  GBSA solvation                   true          :
          :  PC potential                    false          :
          :  electronic temp.          300.0000000     K    :
          :  accuracy                    1.0000000          :
          :  -> integral cutoff          0.2500000E+02      :
          :  -> integral neglect         0.1000000E-07      :
          :  -> SCF convergence          0.1000000E-05 Eh   :
          :  -> wf. convergence          0.1000000E-03 e    :
          :  Broyden damping             0.4000000          :
          :  net charge                          0          :
          :  unpaired electrons                  0          :
          ...................................................

 iter      E             dE          RMSdq      gap      omega  full diag
   1    -26.7213575 -0.267214E+02  0.182E-05   12.47       0.0  T
   2    -26.7213575 -0.991207E-12  0.108E-05   12.47    1808.8  T
   3    -26.7213575 -0.248690E-13  0.487E-06   12.47    4029.2  T

   *** convergence criteria satisfied after 3 iterations ***

         #    Occupation            Energy/Eh            Energy/eV
      -------------------------------------------------------------
         1        2.0000           -0.6254705             -17.0199
       ...           ...                  ...                  ...
        19        2.0000           -0.4436975             -12.0736
        20        2.0000           -0.4365154             -11.8782
        21        2.0000           -0.4340763             -11.8118
        22        2.0000           -0.4252549             -11.5718
        23        2.0000           -0.4131231             -11.2417
        24        2.0000           -0.4077347             -11.0950
        25        2.0000           -0.4057982             -11.0423 (HOMO)
        26                          0.0523970               1.4258 (LUMO)
        27                          0.0757090               2.0601
        28                          0.0945731               2.5735
        29                          0.1100742               2.9953
        30                          0.1154617               3.1419
       ...                                ...                  ...
        50                          0.3241460               8.8205
      -------------------------------------------------------------
                  HL-Gap            0.4581952 Eh           12.4681 eV
             Fermi-level           -0.1767006 Eh           -4.8083 eV

 SCC (total)                   0 d,  0 h,  0 min,  0.013 sec
 SCC setup                      ...        0 min,  0.002 sec ( 12.602%)
 Dispersion                     ...        0 min,  0.000 sec (  0.818%)
 classical contributions        ...        0 min,  0.000 sec (  0.229%)
 integral evaluation            ...        0 min,  0.002 sec ( 15.370%)
 iterations                     ...        0 min,  0.002 sec ( 19.421%)
 molecular gradient             ...        0 min,  0.006 sec ( 50.347%)
 printout                       ...        0 min,  0.000 sec (  1.022%)

         :::::::::::::::::::::::::::::::::::::::::::::::::::::
         ::                     SUMMARY                     ::
         :::::::::::::::::::::::::::::::::::::::::::::::::::::
         :: total energy             -26.321859745740 Eh    ::
         :: total w/o Gsasa/hb       -26.321390934318 Eh    ::
         :: gradient norm              0.000061465412 Eh/a0 ::
         :: HOMO-LUMO gap             12.468124933009 eV    ::
         ::.................................................::
         :: SCC energy               -26.721187539598 Eh    ::
         :: -> isotropic ES            0.006548375502 Eh    ::
         :: -> anisotropic ES          0.009328968725 Eh    ::
         :: -> anisotropic XC          0.016072535735 Eh    ::
         :: -> dispersion             -0.018408509099 Eh    ::
         :: -> Gsolv                  -0.000611792158 Eh    ::
         ::    -> Gelec               -0.000142980735 Eh    ::
         ::    -> Gsasa               -0.001006860568 Eh    ::
         ::    -> Ghb                 -0.000542710552 Eh    ::
         ::    -> Gshift               0.001080759698 Eh    ::
         :: repulsion energy           0.399327793858 Eh    ::
         :: add. restraining           0.000000000000 Eh    ::
         :: total charge               0.000000000000 e     ::
         :::::::::::::::::::::::::::::::::::::::::::::::::::::

           ------------------------------------------------- 
          |                Numerical Hessian                |
           ------------------------------------------------- 
step length          :   0.00500
SCC accuracy         :   0.30000
Hessian scale factor :   1.00000
frozen atoms in %    :   0.00000    0
RMS gradient         :   0.00006
estimated CPU  time      0.03 min
estimated wall time      0.03 min

writing file <hessian>.

 projected vibrational frequencies (cm⁻¹)
eigval :       -0.00    -0.00    -0.00     0.00     0.00     0.00
eigval :       34.69    68.24   176.34   178.90   200.95   216.39
eigval :      243.92   245.70   281.96   314.22   362.29   403.35
eigval :      423.86   433.86   477.74   578.90   803.46   871.93
eigval :      940.16   949.70   950.08   973.02   984.36   987.94
eigval :     1000.23  1047.02  1070.40  1120.07  1146.92  1174.95
eigval :     1180.80  1190.04  1210.28  1277.34  1300.64  1319.25
eigval :     1327.52  1349.16  1362.60  1403.20  1406.82  1411.62
eigval :     1420.99  1421.08  1488.32  1495.67  1496.94  1497.77
eigval :     1504.14  1507.53  1511.14  1515.13  1519.54  1530.60
eigval :     2900.43  2925.53  2950.29  3018.85  3020.18  3020.75
eigval :     3022.69  3023.78  3025.91  3029.41  3030.89  3038.00
eigval :     3039.54  3041.50  3045.48  3047.12  3054.83  3058.97
           -------------------------------------------------
          |                Property Printout                |
           -------------------------------------------------

    * Orbital Energies and Occupations

         #    Occupation            Energy/Eh            Energy/eV
      -------------------------------------------------------------
         1        2.0000           -0.6254705             -17.0199
       ...           ...                  ...                  ...
        13        2.0000           -0.4746812             -12.9167
        14        2.0000           -0.4712500             -12.8234
        15        2.0000           -0.4653094             -12.6617
        16        2.0000           -0.4574851             -12.4488
        17        2.0000           -0.4542890             -12.3618
        18        2.0000           -0.4487490             -12.2111
        19        2.0000           -0.4436975             -12.0736
        20        2.0000           -0.4365154             -11.8782
        21        2.0000           -0.4340762             -11.8118
        22        2.0000           -0.4252549             -11.5718
        23        2.0000           -0.4131230             -11.2416
        24        2.0000           -0.4077347             -11.0950
        25        2.0000           -0.4057981             -11.0423 (HOMO)
        26                          0.0523970               1.4258 (LUMO)
        27                          0.0757090               2.0601
        28                          0.0945731               2.5735
        29                          0.1100742               2.9953
        30                          0.1154617               3.1419
        31                          0.1299583               3.5363
        32                          0.1328924               3.6162
        33                          0.1470585               4.0017
        34                          0.1530568               4.1649
        35                          0.1722100               4.6861
        36                          0.1885669               5.1312
       ...                                ...                  ...
        50                          0.3241460               8.8205
      -------------------------------------------------------------
                  HL-Gap            0.4581952 Eh           12.4681 eV
             Fermi-level           -0.1767006 Eh           -4.8083 eV

     #   Z          covCN         q      C6AA      α(0)
     1   6 C        3.757    -0.112    22.702     6.793
     2   6 C        3.850    -0.017    20.836     6.493
     3   6 C        3.756    -0.111    22.686     6.791
     4   6 C        3.851    -0.026    20.997     6.517
     5   6 C        3.754    -0.110    22.661     6.788
     6   6 C        3.850    -0.019    20.884     6.500
     7   6 C        3.755    -0.110    22.664     6.788
     8   6 C        3.755    -0.110    22.658     6.787
     9   1 H        0.925     0.035     2.521     2.483
    10   1 H        0.925     0.038     2.475     2.460
    11   1 H        0.925     0.034     2.526     2.486
    12   1 H        0.924     0.027     2.625     2.534
    13   1 H        0.925     0.035     2.520     2.483
    14   1 H        0.925     0.037     2.494     2.470
    15   1 H        0.925     0.035     2.523     2.484
    16   1 H        0.924     0.027     2.634     2.538
    17   1 H        0.925     0.035     2.521     2.483
    18   1 H        0.925     0.035     2.517     2.481
    19   1 H        0.925     0.039     2.464     2.455
    20   1 H        0.924     0.032     2.559     2.502
    21   1 H        0.925     0.033     2.545     2.495
    22   1 H        0.925     0.035     2.515     2.480
    23   1 H        0.925     0.035     2.523     2.484
    24   1 H        0.925     0.039     2.459     2.452
    25   1 H        0.925     0.033     2.548     2.496
    26   1 H        0.925     0.033     2.538     2.491

 Mol. C6AA /au·bohr⁶  :       4361.512012
 Mol. C8AA /au·bohr⁸  :      90534.472238
 Mol. α(0) /au        :         98.213040


Wiberg/Mayer (AO) data.
largest (>0.10) Wiberg bond orders for each atom

 ---------------------------------------------------------------------------
     #   Z sym  total        # sym  WBO       # sym  WBO       # sym  WBO
 ---------------------------------------------------------------------------
     1   6 C    3.996 --     2 C    1.008    11 H    0.987     9 H    0.985
                            10 H    0.984
     2   6 C    3.995 --     3 C    1.009     1 C    1.008     4 C    0.984
                            12 H    0.967
     3   6 C    3.997 --     2 C    1.009    13 H    0.987    14 H    0.985
                            15 H    0.983
     4   6 C    3.994 --     5 C    1.009     2 C    0.984     6 C    0.983
                            16 H    0.967
     5   6 C    3.997 --     4 C    1.009    17 H    0.986    18 H    0.984
                            19 H    0.981
     6   6 C    3.995 --     8 C    1.010     7 C    1.008     4 C    0.983
                            20 H    0.964
     7   6 C    3.996 --     6 C    1.008    23 H    0.987    21 H    0.986
                            22 H    0.983
     8   6 C    3.997 --     6 C    1.010    25 H    0.986    24 H    0.985
                            26 H    0.984
     9   1 H    0.998 --     1 C    0.985
    10   1 H    0.999 --     1 C    0.984
    11   1 H    0.999 --     1 C    0.987
    12   1 H    0.999 --     2 C    0.967
    13   1 H    0.999 --     3 C    0.987
    14   1 H    0.998 --     3 C    0.985
    15   1 H    0.999 --     3 C    0.983
    16   1 H    0.999 --     4 C    0.967
    17   1 H    0.999 --     5 C    0.986
    18   1 H    0.999 --     5 C    0.984
    19   1 H    0.998 --     5 C    0.981
    20   1 H    0.999 --     6 C    0.964
    21   1 H    0.999 --     7 C    0.986
    22   1 H    0.999 --     7 C    0.983
    23   1 H    0.998 --     7 C    0.987
    24   1 H    0.998 --     8 C    0.985
    25   1 H    0.999 --     8 C    0.986
    26   1 H    0.999 --     8 C    0.984
 ---------------------------------------------------------------------------

Topologies differ in total number of bonds
Writing topology from bond orders to xtbtopo.mol

molecular dipole:
                 x           y           z       tot (Debye)
 q only:        0.003       0.014       0.010
   full:       -0.001       0.008       0.002       0.021
molecular quadrupole (traceless):
                xx          xy          yy          xz          yz          zz
 q only:        0.082       0.076       0.142      -0.063       0.099      -0.224
  q+dip:       -0.146       0.099      -0.242       0.222      -0.041       0.387
   full:        0.018       0.061      -0.081       0.046       0.012       0.062

           -------------------------------------------------
          |                Geometry Summary                 |
           -------------------------------------------------

      molecular mass/u    :      114.2288207
   center of mass at/Å    :       -0.0023025       0.0072699      -0.0025647
  moments of inertia/u·Å² :        0.1831780E+03   0.3793928E+03   0.4432187E+03
rotational constants/cm⁻¹ :        0.9202869E-01   0.4443319E-01   0.3803457E-01

 * 23 selected distances

     #   Z          #   Z                                           value/Å
     1   6 C        2   6 C                                       1.5308856
     2   6 C        3   6 C                                       1.5302057
     4   6 C        5   6 C                                       1.5311225 (max)
     6   6 C        7   6 C                                       1.5305827
     6   6 C        8   6 C                                       1.5274000
     1   6 C        9   1 H                                       1.0878558
     1   6 C       10   1 H                                       1.0855327 (min)
     1   6 C       11   1 H                                       1.0881319
     2   6 C       12   1 H                                       1.0952633
     3   6 C       13   1 H                                       1.0880430
     3   6 C       14   1 H                                       1.0878556
     3   6 C       15   1 H                                       1.0862205
     4   6 C       16   1 H                                       1.0974789
     5   6 C       17   1 H                                       1.0873051
     5   6 C       18   1 H                                       1.0860901
     5   6 C       19   1 H                                       1.0856905
     6   6 C       20   1 H                                       1.0936011
     7   6 C       21   1 H                                       1.0876890
     7   6 C       22   1 H                                       1.0869079
     7   6 C       23   1 H                                       1.0878259
     8   6 C       24   1 H                                       1.0865767
     8   6 C       25   1 H                                       1.0880313
     8   6 C       26   1 H                                       1.0866430

 * 2 distinct bonds (by element types)

   Z      Z             #   av. dist./Å        max./Å        min./Å
   1 H    6 C          18     1.0884857     1.0974789     1.0855327
   6 C    6 C           5     1.5300393     1.5311225     1.5274000

           -------------------------------------------------
          |               Frequency Printout                |
           -------------------------------------------------
 projected vibrational frequencies (cm⁻¹)
eigval :       -0.00    -0.00    -0.00     0.00     0.00     0.00
eigval :       34.69    68.24   176.34   178.90   200.95   216.39
eigval :      243.92   245.70   281.96   314.22   362.29   403.35
eigval :      423.86   433.86   477.74   578.90   803.46   871.93
eigval :      940.16   949.70   950.08   973.02   984.36   987.94
eigval :     1000.23  1047.02  1070.40  1120.07  1146.92  1174.95
eigval :     1180.80  1190.04  1210.28  1277.34  1300.64  1319.25
eigval :     1327.52  1349.16  1362.60  1403.20  1406.82  1411.62
eigval :     1420.99  1421.08  1488.32  1495.67  1496.94  1497.77
eigval :     1504.14  1507.53  1511.14  1515.13  1519.54  1530.60
eigval :     2900.43  2925.53  2950.29  3018.85  3020.18  3020.75
eigval :     3022.69  3023.78  3025.91  3029.41  3030.89  3038.00
eigval :     3039.54  3041.50  3045.48  3047.12  3054.83  3058.97
 reduced masses (amu)
   1:  9.36   2:  9.90   3:  9.60   4: 10.16   5:  9.47   6:  9.22   7:  7.85   8:  7.81
   9:  5.51  10:  1.25  11:  2.51  12:  2.85  13:  2.93  14:  4.70  15:  7.07  16:  8.06
  17:  7.48  18:  7.99  19:  7.59  20:  8.50  21:  8.19  22:  7.78  23:  7.68  24:  7.57
  25:  3.15  26:  5.95  27:  3.28  28:  5.48  29:  3.89  30:  3.61  31:  3.11  32:  6.48
  33:  4.81  34:  8.01  35:  7.33  36:  6.77  37:  7.37  38:  6.95  39:  7.01  40:  3.94
  41:  4.50  42:  4.50  43:  3.67  44:  4.50  45:  4.92  46:  3.25  47:  3.32  48:  3.20
  49:  3.05  50:  3.01  51:  1.60  52:  1.57  53:  1.55  54:  1.59  55:  1.59  56:  1.55
  57:  1.57  58:  1.57  59:  1.53  60:  1.56  61:  1.74  62:  1.75  63:  1.74  64:  1.94
  65:  1.92  66:  1.92  67:  1.90  68:  1.72  69:  1.89  70:  1.68  71:  1.82  72:  1.57
  73:  1.84  74:  1.69  75:  1.46  76:  1.33  77:  1.56  78:  1.41
 IR intensities (km·mol⁻¹)
   1:  0.00   2:  0.00   3:  0.00   4:  0.00   5:  0.00   6:  0.00   7:  0.01   8:  0.04
   9:  0.16  10:  0.06  11:  0.11  12:  0.10  13:  0.09  14:  0.16  15:  0.84  16:  0.06
  17:  0.55  18:  0.88  19:  0.41  20:  1.04  21:  0.69  22:  2.33  23:  0.75  24:  1.12
  25:  2.36  26:  1.94  27:  1.58  28:  0.34  29:  0.48  30:  0.89  31:  9.33  32:  5.97
  33: 16.26  34: 14.49  35: 11.79  36:  4.80  37:  2.32  38:  1.30  39:  4.78  40:  8.43
  41:  4.00  42:  8.04  43:  4.54  44:  8.96  45:  2.12  46:  0.51  47:  0.27  48:  2.46
  49:  0.97  50:  1.15  51:  0.47  52:  0.09  53:  1.18  54:  0.03  55:  1.25  56:  0.37
  57:  1.10  58:  0.13  59:  1.63  60:  0.52  61: 95.24  62:102.85  63: 71.29  64:  7.46
  65:  2.91  66:150.99  67:161.98  68: 16.06  69: 78.22  70:154.79  71: 48.19  72: 11.80
  73: 65.02  74: 87.97  75: 65.84  76: 54.59  77: 43.81  78: 77.77
 Raman intensities (Ä⁴*amu⁻¹)
   1:  0.00   2:  0.00   3:  0.00   4:  0.00   5:  0.00   6:  0.00   7:  0.00   8:  0.00
   9:  0.00  10:  0.00  11:  0.00  12:  0.00  13:  0.00  14:  0.00  15:  0.00  16:  0.00
  17:  0.00  18:  0.00  19:  0.00  20:  0.00  21:  0.00  22:  0.00  23:  0.00  24:  0.00
  25:  0.00  26:  0.00  27:  0.00  28:  0.00  29:  0.00  30:  0.00  31:  0.00  32:  0.00
  33:  0.00  34:  0.00  35:  0.00  36:  0.00  37:  0.00  38:  0.00  39:  0.00  40:  0.00
  41:  0.00  42:  0.00  43:  0.00  44:  0.00  45:  0.00  46:  0.00  47:  0.00  48:  0.00
  49:  0.00  50:  0.00  51:  0.00  52:  0.00  53:  0.00  54:  0.00  55:  0.00  56:  0.00
  57:  0.00  58:  0.00  59:  0.00  60:  0.00  61:  0.00  62:  0.00  63:  0.00  64:  0.00
  65:  0.00  66:  0.00  67:  0.00  68:  0.00  69:  0.00  70:  0.00  71:  0.00  72:  0.00
  73:  0.00  74:  0.00  75:  0.00  76:  0.00  77:  0.00  78:  0.00
 output can be read by thermo (or use thermo option).
 writing <g98.out> molden fake output.
 recommended (thermochemical) frequency scaling factor: 1.0
           -------------------------------------------------
          |             Thermodynamic Functions             |
           -------------------------------------------------

Molecule has no symmetry elements
It seems to be the C1 point group
c1  symmetry found (for desy threshold:  0.10E+00) used in thermo

          ...................................................
          :                      SETUP                      :
          :.................................................:
          :  # frequencies                          72      :
          :  # imaginary freq.                       0      :
          :  linear?                             false      :
          :  only rotor calc.                    false      :
          :  symmetry                               c1      :
          :  rotational number                       1      :
          :  scaling factor                  1.0000000      :
          :  rotor cutoff                    0.0000000 cm⁻¹ :
          :  imag. cutoff                 -100.0000000 cm⁻¹ :
          :.................................................:

    mode    ω/cm⁻¹     T·S(HO)/kcal·mol⁻¹    T·S(FR)/kcal·mol⁻¹   T·S(vib)
   ------------------------------------------------------------------------
       1     34.69    -1.65213 (100.00%)    -1.16441 (  0.00%)    -1.65213
       2     68.24    -1.25330 (100.00%)    -0.96421 (  0.00%)    -1.25330
       3    176.34    -0.70566 (100.00%)    -0.68308 (  0.00%)    -0.70566
       4    178.90    -0.69763 (100.00%)    -0.67882 (  0.00%)    -0.69763
       5    200.95    -0.63339 (100.00%)    -0.64440 (  0.00%)    -0.63339
       6    216.39    -0.59306 (100.00%)    -0.62247 (  0.00%)    -0.59306
       7    243.92    -0.52894 (100.00%)    -0.58700 (  0.00%)    -0.52894
       8    245.70    -0.52510 (100.00%)    -0.58484 (  0.00%)    -0.52510
       9    281.96    -0.45371 (100.00%)    -0.54407 (  0.00%)    -0.45371
   ------------------------------------------------------------------------

   temp. (K)  partition function   enthalpy   heat capacity  entropy
                                   cal/mol     cal/K/mol   cal/K/mol   J/K/mol
 298.15  VIB  0.160E+04             5123.053     34.579     31.838
         ROT  0.424E+06              888.752      2.981     28.731
         INT  0.676E+09             6011.805     37.560     60.569
         TR   0.118E+28             1481.254      4.968     40.096
         TOT                        7493.0590    42.5285   100.6652   421.1831

       T/K    H(0)-H(T)+PV         H(T)/Eh          T*S/Eh         G(T)/Eh
   ------------------------------------------------------------------------
    298.15    0.119409E-01    0.254802E+00    0.478293E-01    0.206973E+00
   ------------------------------------------------------------------------

         :::::::::::::::::::::::::::::::::::::::::::::::::::::
         ::                  THERMODYNAMIC                  ::
         :::::::::::::::::::::::::::::::::::::::::::::::::::::
         :: total free energy         -26.114886627344 Eh   ::
         ::.................................................::
         :: total energy              -26.321859745730 Eh   ::
         :: zero point energy           0.242861443894 Eh   ::
         :: G(RRHO) w/o ZPVE           -0.035888325509 Eh   ::
         :: G(RRHO) contrib.            0.206973118386 Eh   ::
         :::::::::::::::::::::::::::::::::::::::::::::::::::::

optimized geometry written to: xtbopt.coord


           -------------------------------------------------
          | TOTAL ENERGY              -26.321859745730 Eh   |
          | TOTAL ENTHALPY            -26.067057352205 Eh   |
          | TOTAL FREE ENERGY         -26.114886627344 Eh   |
          | GRADIENT NORM               0.000061446241 Eh/α |
          | HOMO-LUMO GAP              12.468124658781 eV   |
           -------------------------------------------------

------------------------------------------------------------------------
 * finished run on 2025/04/11 at 12:05:55.061     
------------------------------------------------------------------------
 total:
 * wall-time:     0 d,  0 h,  0 min,  2.477 sec
 *  cpu-time:     0 d,  0 h,  0 min,  2.383 sec
 * ratio c/w:     0.962 speedup
 SCF:
 * wall-time:     0 d,  0 h,  0 min,  0.033 sec
 *  cpu-time:     0 d,  0 h,  0 min,  0.019 sec
 * ratio c/w:     0.584 speedup
 ANC optimizer:
 * wall-time:     0 d,  0 h,  0 min,  0.355 sec
 *  cpu-time:     0 d,  0 h,  0 min,  0.336 sec
 * ratio c/w:     0.947 speedup
 analytical hessian:
 * wall-time:     0 d,  0 h,  0 min,  2.027 sec
 *  cpu-time:     0 d,  0 h,  0 min,  2.012 sec
 * ratio c/w:     0.993 speedup

