12
 energy: -39.724630781223 gnorm: 0.038913963163 xtb: 6.7.1 (edcfbbe)
C            0.25859267442195       -0.48989931887007       -0.82451067954129
H            0.54342476767813       -0.59193231857059       -1.87369350158645
C            1.27824075814607        0.43999540745331       -0.13788159826890
F            2.52743558196575       -0.00877825096618       -0.33786176733618
F            1.07838878125929        0.54774228897579        1.18988581408636
F            1.18241823896615        1.67200935590960       -0.67151507447333
O           -1.04465932691135        0.01001842862023       -0.82098651227487
C           -1.68709089874077        0.23362263807700        0.40059645435933
F           -2.99843817409381       -0.00558780700885        0.17341480902449
F           -1.57794230976670        1.55247213323991        0.72727541240033
Cl           0.38337350152883       -2.14438742403552       -0.06626448398917
H           -1.32553735279394       -0.38604352461246        1.22615914822286
12
 energy: -39.726342562919 gnorm: 0.018053729084 xtb: 6.7.1 (edcfbbe)
C            0.25237277168112       -0.48802413925416       -0.83390833814911
H            0.52861623772880       -0.59859460589386       -1.88727764248103
C            1.26887520751557        0.43768656163404       -0.14063244281204
F            2.51820848908040        0.00040521297539       -0.32834718531886
F            1.07619161334115        0.54441871107153        1.18188092629879
F            1.19350674107942        1.67368889712079       -0.65458243328022
O           -1.04168222235126        0.00504496855325       -0.82539264216101
C           -1.67650275777493        0.22716496129595        0.38495365482908
F           -2.98671813427554        0.00089070028488        0.18107619634222
F           -1.56467233968032        1.53390961458817        0.73056552588671
Cl           0.36996249348402       -2.11243833572940       -0.03835235339828
H           -1.31995185816884       -0.39492093843442        1.21463475486693
12
 energy: -39.726725854985 gnorm: 0.004680151177 xtb: 6.7.1 (edcfbbe)
C            0.24664258035493       -0.48933102104057       -0.83225899475214
H            0.51890973345453       -0.60594577549622       -1.88751064335449
C            1.26366723792589        0.43846191912627       -0.14410710782087
F            2.51252826299023        0.00870898916752       -0.32700352430910
F            1.07491703712263        0.53990116325614        1.17439427360926
F            1.19813453641148        1.67675730677926       -0.64412419984699
O           -1.04181455093176        0.00085183194874       -0.82509704556381
C           -1.67146262238423        0.22391480226778        0.37288155128244
F           -2.98155868086366        0.01530788695661        0.18185511196019
F           -1.55085161896667        1.52159825271752        0.73475721753609
Cl           0.37250862724523       -2.09619247010555       -0.02516182498342
H           -1.32341430069902       -0.40480127736533        1.20599320686601
12
 energy: -39.726757391653 gnorm: 0.002927484914 xtb: 6.7.1 (edcfbbe)
C            0.24684072408189       -0.49090203949311       -0.83152632281630
H            0.51927235593673       -0.60928395429599       -1.88674905077956
C            1.26314446819854        0.44005212591300       -0.14478704431150
F            2.51213052797482        0.01158005579003       -0.33012771447124
F            1.07454105100864        0.53875714478255        1.17396090686276
F            1.19476139086425        1.67796484320779       -0.64395053322525
O           -1.04249703088911       -0.00035486117604       -0.82484608358949
C           -1.67144888145356        0.22267720026801        0.37106969804332
F           -2.98321834192019        0.02581984760713        0.17840367537751
F           -1.54176971714927        1.51853769419916        0.74006512933887
Cl           0.37605074312809       -2.09337481144857       -0.02021064761978
H           -1.32960104812124       -0.41224163714179        1.20331600781383
12
 energy: -39.726797851708 gnorm: 0.002420155403 xtb: 6.7.1 (edcfbbe)
C            0.24867571712473       -0.49594319639927       -0.82879082447738
H            0.52099232986184       -0.61822081341101       -1.88369253803987
C            1.26200247308689        0.44466531604509       -0.14622471741758
F            2.51250341955877        0.02230587345398       -0.33959924764317
F            1.07634172537112        0.53663393856845        1.17392894765025
F            1.18252781311498        1.68165383491127       -0.64338390490850
O           -1.04390263374226       -0.00573793264819       -0.82446446404207
C           -1.67163227246351        0.21911797495824        0.36766740333590
F           -2.98790194590054        0.05509764996270        0.16774666839833
F           -1.51576448152712        1.51074294890547        0.75355120384328
Cl           0.38260592562667       -2.08979522547578       -0.00946408173766
H           -1.34824182845197       -0.43128876065878        1.19734357566164
12
 energy: -39.726807221068 gnorm: 0.002457403591 xtb: 6.7.1 (edcfbbe)
C            0.24945777089875       -0.49752688566444       -0.82765827141123
H            0.52161718402533       -0.62056087048636       -1.88239856761542
C            1.26156266727347        0.44565183820412       -0.14652847230836
F            2.51301160053759        0.02702530779666       -0.34354786350241
F            1.07935933186580        0.53567050137905        1.17434776878180
F            1.17712565033571        1.68261804434368       -0.64245430948158
O           -1.04417741240119       -0.00841644302272       -0.82459958360310
C           -1.67192208627083        0.21802353200103        0.36706440649744
F           -2.98887335940946        0.06464491964769        0.16368267605688
F           -1.50747788753242        1.50794828460088        0.75717436705801
Cl           0.38391693713884       -2.08956918166832       -0.00625291950277
H           -1.35539415480200       -0.43627743891909        1.19578878965394
12
 energy: -39.726822004906 gnorm: 0.001741679350 xtb: 6.7.1 (edcfbbe)
C            0.25064604081145       -0.49963586643845       -0.82551166279106
H            0.52289892649091       -0.62370183358982       -1.87989478251665
C            1.26066521485197        0.44663047276748       -0.14682964762364
F            2.51375045141594        0.03532329792359       -0.35127005041874
F            1.08684158444630        0.53323767895336        1.17541991037324
F            1.16727527517363        1.68417175669427       -0.63973655768910
O           -1.04440483873952       -0.01348594436591       -0.82503223019031
C           -1.67292212614161        0.21671046846144        0.36661987062797
F           -2.98982568912411        0.07940018742189        0.15674090086061
F           -1.49505852946638        1.50337130701066        0.76163288578579
Cl           0.38565890929013       -2.09002121957520       -0.00112774824815
H           -1.36731897734913       -0.44276869705115        1.19360713245324
12
 energy: -39.726831044342 gnorm: 0.001539189569 xtb: 6.7.1 (edcfbbe)
C            0.25152162955129       -0.50231240073524       -0.82292971297633
H            0.52496937413823       -0.62895729628030       -1.87671600254669
C            1.25851961182982        0.44802411465283       -0.14715997528379
F            2.51341520251458        0.04634010087006       -0.36163064463127
F            1.09478074666197        0.52892847511790        1.17653969552874
F            1.15365906968696        1.68680837683043       -0.63515721659361
O           -1.04457832221256       -0.02003136216993       -0.82573722519406
C           -1.67407503545632        0.21565204322352        0.36555710649552
F           -2.99118390971518        0.10003236439211        0.14832794509312
F           -1.47702388403932        1.49735340585026        0.76704838232182
Cl           0.38976088113001       -2.09021323071210        0.00648484380690
H           -1.38155912242990       -0.45239298282735        1.18999082460283
12
 energy: -39.726834092896 gnorm: 0.000617483913 xtb: 6.7.1 (edcfbbe)
C            0.25114750593166       -0.50278894471482       -0.82261682933092
H            0.52581687156646       -0.63144617872436       -1.87597919336567
C            1.25744782832160        0.44851994915375       -0.14703922995994
F            2.51252289207663        0.04962886512203       -0.36458533792549
F            1.09546834338285        0.52670828780435        1.17675592380899
F            1.14953090365041        1.68801799991598       -0.63272521481487
O           -1.04475131372318       -0.02191245159039       -0.82626817347377
C           -1.67401516518731        0.21592289368162        0.36480058642115
F           -2.99108059715398        0.10592031842430        0.14721293073857
F           -1.47144550810407        1.49563150707106        0.76768115414529
Cl           0.39161655685239       -2.09000731579639        0.00890942363876
H           -1.38405207595388       -0.45496332213497        1.18847198074109
12
 energy: -39.726834749863 gnorm: 0.000119086442 xtb: 6.7.1 (edcfbbe)
C            0.25084533918636       -0.50290869590629       -0.82272206328672
H            0.52648872387108       -0.63277743854037       -1.87564242532932
C            1.25699502841725        0.44887400301856       -0.14687649261572
F            2.51206110302654        0.05123341744922       -0.36597087360381
F            1.09533440365769        0.52552865302316        1.17700610225789
F            1.14748231773820        1.68877543861351       -0.63140998251445
O           -1.04499230073017       -0.02281732895655       -0.82678152933362
C           -1.67390100271945        0.21610696610880        0.36448685459878
F           -2.99113475791837        0.10851988278906        0.14706191990098
F           -1.46863085339272        1.49492590573049        0.76767623722012
Cl           0.39223291129708       -2.09011201935417        0.01010707214864
H           -1.38457467077392       -0.45611717576325        1.18768320118042
12
 energy: -39.726834776229 gnorm: 0.000071122213 xtb: 6.7.1 (edcfbbe)
C            0.25075254419711       -0.50290404104744       -0.82276899360846
H            0.52647242758174       -0.63288903237039       -1.87562609346735
C            1.25691281309359        0.44887943145452       -0.14682494155318
F            2.51195053835714        0.05142106270435       -0.36599992144316
F            1.09531720506645        0.52534651160844        1.17707720246188
F            1.14733062297851        1.68885550957605       -0.63109339364842
O           -1.04504635046470       -0.02299177085278       -0.82687665921621
C           -1.67377515670077        0.21617109798122        0.36440990817910
F           -2.99101640438348        0.10843178827596        0.14726457093307
F           -1.46855111596021        1.49499668466750        0.76736688913897
Cl           0.39221614708571       -2.09019276566969        0.01000890660028
H           -1.38435702919152       -0.45589286811557        1.18768054624666
