35
 energy: -799.318050184718 gnorm: 0.000737621813 xtb: 6.7.1 (edcfbbe)
C           -0.47602155697835       -2.52935274835360       -0.26453702379017
C            0.41247837400130       -1.34383688223273       -0.04687460413305
C            1.79493473687976       -1.37791707375340       -0.30310410675355
N            2.59202348614049       -0.32201577405085       -0.10659253717525
C            2.02226154635420        0.80681916831139        0.36512286869829
N            0.69972477906937        0.96231561465634        0.59471257957368
C           -0.04253002757808       -0.10631329730642        0.38431905368625
O           -1.39145605730561        0.06273969414742        0.70559606795765
C           -2.26872654284808        0.11464872771162       -0.36534186834768
O           -1.87368059397963        0.14107913887899       -1.52711189964214
N           -3.54745093803689        0.18486941321446        0.04982723529204
C           -4.60318991780528        0.03821632956885       -0.95316269205514
C           -3.92515827487672       -0.11784039925358        1.43457694621830
N            2.84356841157829        1.86437605320960        0.65943827798197
C            2.24000001034210        3.18614142529442        0.83716835148561
C            4.18785531418184        1.88482340107971        0.07925398795018
C            2.42897713910888       -2.63007607968656       -0.81752480194678
H           -0.63959593430780       -2.71432265978311       -1.33299443849248
H           -0.02855218828247       -3.43483389328261        0.15637928332215
H           -1.45267662413180       -2.38987255907312        0.20411091297606
H           -5.47782507208370        0.60880607973084       -0.63113312709348
H           -4.89010482114101       -1.01468838778478       -1.07072417588219
H           -4.26230095397070        0.42549792655034       -1.91306948232507
H           -3.86508180958798       -1.19338321283610        1.64082037418999
H           -4.95582880146279        0.21028853741899        1.58182446324614
H           -3.28986503947473        0.42069705856795        2.13784020675300
H            1.86343402763360        3.59615631357245       -0.11119500080506
H            3.00267562577044        3.86110339689909        1.23049942969900
H            1.41701415078832        3.14342093468735        1.55021046531737
H            4.74810854951063        2.70007352122243        0.54129846033273
H            4.16160647038868        2.04854834897614       -1.00764948103103
H            4.71120631369301        0.95028203172568        0.27850545436579
H            3.48124042824338       -2.46366868280180       -1.05002643078972
H            2.35356067038827       -3.42895969336775       -0.07044241778996
H            1.91081158869825       -2.98775213171765       -1.71362098656729
35
 energy: -799.318053530657 gnorm: 0.000428873765 xtb: 6.7.1 (edcfbbe)
C           -0.47658488098420       -2.52894450229413       -0.26384876303710
C            0.41217685920956       -1.34355975600048       -0.04659316863495
C            1.79467206852219       -1.37765912129160       -0.30271225169142
N            2.59172513779120       -0.32194615522279       -0.10597956361607
C            2.02222078445197        0.80697258271403        0.36555171957333
N            0.69980620136536        0.96258921890279        0.59551749893929
C           -0.04281585715471       -0.10596581545761        0.38478295629445
O           -1.39170551844915        0.06376850071594        0.70537189824693
C           -2.26871846987194        0.11655572488098       -0.36559141583576
O           -1.87363100285384        0.14279456604976       -1.52715503282427
N           -3.54756729763101        0.18524522788120        0.04939346988330
C           -4.60301568589561        0.03705612342477       -0.95358867541451
C           -3.92485705954717       -0.11810225133575        1.43412401072618
N            2.84380837472832        1.86448165942434        0.65963729621158
C            2.24057687613622        3.18618447799236        0.83742998821445
C            4.18797759399409        1.88385044088329        0.07942065244820
C            2.42872923555087       -2.62946231381162       -0.81798198663459
H           -0.64082082261204       -2.71397146424089       -1.33216862541773
H           -0.02879594934501       -3.43432446971643        0.15693844079745
H           -1.45296307936959       -2.38932709151488        0.20548716514955
H           -5.47870871569687        0.60487425930331       -0.63088016584159
H           -4.88766423464658       -1.01599152881475       -1.07268509759891
H           -4.26369726814145        0.42627586432134       -1.91292911012926
H           -3.86504978645642       -1.19373879940485        1.63995798439044
H           -4.95532688957306        0.21029109399236        1.58192392037952
H           -3.28909725943117        0.41989944837115        2.13735889716474
H            1.86192716495242        3.59493859850231       -0.11055910366173
H            3.00364148492905        3.86189886085375        1.22837483359373
H            1.41890556411186        3.14434286257661        1.55188614607670
H            4.74834235048082        2.69983531168149        0.53992202920175
H            4.16170977395175        2.04565125421637       -1.00776673266139
H            4.71131427692948        0.94969714059283        0.28008016327329
H            3.48078472584891       -2.46259733882520       -1.05092662272349
H            2.35388599696851       -3.42882383730198       -0.07134140426355
H            1.91025211692660       -2.98671929348411       -1.71405269053406
35
 energy: -799.318053530657 gnorm: 0.000428873765 xtb: 6.7.1 (edcfbbe)
C           -0.47658488098420       -2.52894450229413       -0.26384876303710
C            0.41217685920956       -1.34355975600048       -0.04659316863495
C            1.79467206852219       -1.37765912129160       -0.30271225169142
N            2.59172513779120       -0.32194615522279       -0.10597956361607
C            2.02222078445197        0.80697258271403        0.36555171957333
N            0.69980620136536        0.96258921890279        0.59551749893929
C           -0.04281585715471       -0.10596581545761        0.38478295629445
O           -1.39170551844915        0.06376850071594        0.70537189824693
C           -2.26871846987194        0.11655572488098       -0.36559141583576
O           -1.87363100285384        0.14279456604976       -1.52715503282427
N           -3.54756729763101        0.18524522788120        0.04939346988330
C           -4.60301568589561        0.03705612342477       -0.95358867541451
C           -3.92485705954717       -0.11810225133575        1.43412401072618
N            2.84380837472832        1.86448165942434        0.65963729621158
C            2.24057687613622        3.18618447799236        0.83742998821445
C            4.18797759399409        1.88385044088329        0.07942065244820
C            2.42872923555087       -2.62946231381162       -0.81798198663459
H           -0.64082082261204       -2.71397146424089       -1.33216862541773
H           -0.02879594934501       -3.43432446971643        0.15693844079745
H           -1.45296307936959       -2.38932709151488        0.20548716514955
H           -5.47870871569687        0.60487425930331       -0.63088016584159
H           -4.88766423464658       -1.01599152881475       -1.07268509759891
H           -4.26369726814145        0.42627586432134       -1.91292911012926
H           -3.86504978645642       -1.19373879940485        1.63995798439044
H           -4.95532688957306        0.21029109399236        1.58192392037952
H           -3.28909725943117        0.41989944837115        2.13735889716474
H            1.86192716495242        3.59493859850231       -0.11055910366173
H            3.00364148492905        3.86189886085375        1.22837483359373
H            1.41890556411186        3.14434286257661        1.55188614607670
H            4.74834235048082        2.69983531168149        0.53992202920175
H            4.16170977395175        2.04565125421637       -1.00776673266139
H            4.71131427692948        0.94969714059283        0.28008016327329
H            3.48078472584891       -2.46259733882520       -1.05092662272349
H            2.35388599696851       -3.42882383730198       -0.07134140426355
H            1.91025211692660       -2.98671929348411       -1.71405269053406
