
                                 *****************
                                 * O   R   C   A *
                                 *****************

                                            #,                                       
                                            ###                                      
                                            ####                                     
                                            #####                                    
                                            ######                                   
                                           ########,                                 
                                     ,,################,,,,,                         
                               ,,#################################,,                 
                          ,,##########################################,,             
                       ,#########################################, ''#####,          
                    ,#############################################,,   '####,        
                  ,##################################################,,,,####,       
                ,###########''''           ''''###############################       
              ,#####''   ,,,,##########,,,,          '''####'''          '####       
            ,##' ,,,,###########################,,,                        '##       
           ' ,,###''''                  '''############,,,                           
         ,,##''                                '''############,,,,        ,,,,,,###''
      ,#''                                            '''#######################'''  
     '                                                          ''''####''''         
             ,#######,   #######,   ,#######,      ##                                
            ,#'     '#,  ##    ##  ,#'     '#,    #''#        ,####,   ,####,        
            ##       ##  ##   ,#'  ##            #'  '#       #'       #'  '#        
            ##       ##  #######   ##           ,######,      #####,   #    #        
            '#,     ,#'  ##    ##  '#,     ,#' ,#      #,     #,   #   #,  ,#        
             '#######'   ##     ##  '#######'  #'      '#     '####' # '####'        



                #########################################################
                #                        -***-                          #
                #          Department of theory and spectroscopy        #
                #                                                       #
                #                      Frank Neese                      #
                #                                                       #
                #     Directorship, Architecture, Infrastructure        #
                #                    SHARK, DRIVERS                     #
                #        Core code/Algorithms in most modules           #
                #                                                       #
                #        Max Planck Institute fuer Kohlenforschung      #
                #                Kaiser Wilhelm Platz 1                 #
                #                 D-45470 Muelheim/Ruhr                 #
                #                      Germany                          #
                #                                                       #
                #                  All rights reserved                  #
                #                        -***-                          #
                #########################################################


                         Program Version 6.0.0  -   RELEASE  -


 With contributions from (in alphabetic order):
   Daniel Aravena         : Magnetic Suceptibility
   Michael Atanasov       : Ab Initio Ligand Field Theory (pilot matlab implementation)
   Alexander A. Auer      : GIAO ZORA, VPT2 properties, NMR spectrum
   Ute Becker             : All parallelization in ORCA, NUMFREQ, NUMCALC
   Giovanni Bistoni       : ED, misc. LED, open-shell LED, HFLD
   Martin Brehm           : Molecular dynamics
   Dmytro Bykov           : pre 5.0 version of the SCF Hessian
   Marcos Casanova-Páez   : Triplet and SCS-CIS(D). UHF-(DLPNO)-IP/EA/STEOM-CCSD. UHF-CVS-IP/STEOM-CCSD
   Vijay G. Chilkuri      : MRCI spin determinant printing, contributions to CSF-ICE
   Pauline Colinet        : FMM embedding
   Dipayan Datta          : RHF DLPNO-CCSD density
   Achintya Kumar Dutta   : EOM-CC, STEOM-CC
   Nicolas Foglia         : Exact transition moments, OPA infrastructure, MCD improvements
   Dmitry Ganyushin       : Spin-Orbit,Spin-Spin,Magnetic field MRCI
   Miquel Garcia          : C-PCM and meta-GGA Hessian, CCSD/C-PCM, Gaussian charge scheme
   Tiago L. C. Gouveia    : GS-ROHF, GS-ROCIS
   Yang Guo               : DLPNO-NEVPT2, F12-NEVPT2, CIM, IAO-localization
   Andreas Hansen         : Spin unrestricted coupled pair/coupled cluster methods
   Ingolf Harden          : AUTO-CI MPn and infrastructure 
   Benjamin Helmich-Paris : MC-RPA, TRAH-(SCF,CASSCF), AVAS, COSX integrals, SCF dyn. polar.
   Lee Huntington         : MR-EOM, pCC
   Robert Izsak           : Overlap fitted RIJCOSX, COSX-SCS-MP3, EOM
   Riya Kayal             : Wick's Theorem for AUTO-CI, AUTO-CI UHF-CCSDT
   Emily Kempfer          : AUTO-CI, RHF CISDT and CCSDT
   Christian Kollmar      : KDIIS, OOCD, Brueckner-CCSD(T), CCSD density, CASPT2, CASPT2-K, improved NEVPT2
   Axel Koslowski         : Symmetry handling
   Simone Kossmann        : Meta GGA functionals, TD-DFT gradient, OOMP2, (MP2 Hessian; deprecated post 5.0)
   Lucas Lang             : DCDCAS
   Marvin Lechner         : AUTO-CI (C++ implementation), FIC-MRCC
   Spencer Leger          : CASSCF response
   Dagmar Lenk            : GEPOL surface, SMD, ORCA-2-JSON
   Dimitrios Liakos       : Extrapolation schemes; Compound Job, initial MDCI parallelization
   Dimitrios Manganas     : Further ROCIS development; embedding schemes. LFT, Crystal Embedding
   Dimitrios Pantazis     : SARC Basis sets
   Anastasios Papadopoulos: AUTO-CI, single reference methods and gradients
   Taras Petrenko         : pre 6.0 DFT Hessian and TD-DFT gradient, (ASA, deprecated), ECA, 1-Electron XAS/XES, NRVS
   Peter Pinski           : DLPNO-MP2, DLPNO-MP2 Gradient
   Christoph Reimann      : Effective Core Potentials
   Marius Retegan         : Local ZFS, SOC
   Christoph Riplinger    : Optimizer, TS searches, QM/MM, DLPNO-CCSD(T), (RO)-DLPNO pert. Triples
   Michael Roemelt        : Original ROCIS implementation
   Masaaki Saitow         : Open-shell DLPNO-CCSD energy and density
   Barbara Sandhoefer     : DKH picture change effects
   Kantharuban Sivalingam : CASSCF convergence/infrastructure, NEVPT2 and variants, FIC-MRCI
   Bernardo de Souza      : ESD, SOC TD-DFT
   Georgi Stoychev        : AutoAux, RI-MP2 NMR, DLPNO-MP2 response, X2C
   Van Anh Tran           : RI-MP2 g-tensors
   Willem Van den Heuvel  : Paramagnetic NMR
   Zikuan Wang            : NOTCH, Electric field optimization 
   Frank Wennmohs         : Technical directorship and infrastructure
   Hang Xu                : AUTO-CI-Response properties 


 We gratefully acknowledge several colleagues who have allowed us to
 interface, adapt or use parts of their codes:
   Stefan Grimme, W. Hujo, H. Kruse, P. Pracht,  : VdW corrections, initial TS optimization,
                  C. Bannwarth, S. Ehlert,         DFT functionals, gCP, sTDA/sTD-DF
                  L. Wittmann, M. Mueller
   Ed Valeev, F. Pavosevic, A. Kumar             : LibInt (2-el integral package), F12 methods
   Garnet Chan, S. Sharma, J. Yang, R. Olivares  : DMRG
   Ulf Ekstrom                                   : XCFun DFT Library
   Mihaly Kallay                                 : mrcc  (arbitrary order and MRCC methods)
   Frank Weinhold                                : gennbo (NPA and NBO analysis)
   Simon Mueller                                 : openCOSMO-RS
   Christopher J. Cramer and Donald G. Truhlar   : smd solvation model
   Lars Goerigk                                  : TD-DFT with DH, B97 family of functionals
   V. Asgeirsson, H. Jonsson                     : NEB implementation
   FAccTs GmbH                                   : IRC, NEB, NEB-TS, DLPNO-Multilevel, CI-OPT
                                                   MM, QMMM, 2- and 3-layer-ONIOM, Crystal-QMMM,
                                                   LR-CPCM, SF, NACMEs, symmetry and pop. for TD-DFT,
                                                   nearIR, NL-DFT gradient (VV10), updates on ESD,
                                                   ML-optimized integration grids, MBIS, APM,
                                                   GOAT, DOCKER, SOLVATOR, interface openCOSMO-RS
   S Lehtola, MJT Oliveira, MAL Marques          : LibXC Library
   Liviu Ungur et al                             : ANISO software


 Your calculation uses the libint2 library for the computation of 2-el integrals
 For citations please refer to: http://libint.valeyev.net

 Your ORCA version has been built with support for libXC version: 6.2.2
 For citations please refer to: https://libxc.gitlab.io

 This ORCA versions uses:
   CBLAS   interface :  Fast vector & matrix operations
   LAPACKE interface :  Fast linear algebra routines
   SCALAPACK package :  Parallel linear algebra routines
   Shared memory     :  Shared parallel matrices
   BLAS/LAPACK       :  OpenBLAS 0.3.27  USE64BITINT DYNAMIC_ARCH NO_AFFINITY SkylakeX SINGLE_THREADED
        Core in use  :  SkylakeX
   Copyright (c) 2011-2014, The OpenBLAS Project


Your calculation utilizes the geometrical counterpoise correction gCP
Please cite in your paper:
H.Kruse, S. Grimme J.Chem.Phys., 136, (2012), 154101 
   

Your calculation utilizes the atom-pairwise dispersion correction
based on EEQ partial charges (D4)


================================================================================

----- Orbital basis set information -----
Your calculation utilizes the basis: def2-mTZVPP
   Stefan Grimme, Andreas Hansen, Sebastian Ehlert, and Jan-Michael Mewes 
   J. Chem. Phys. 154, 064103 (2021). DOI: 10.1063/5.0040021

----- AuxJ basis set information -----
Your calculation utilizes the auxiliary basis: def2/J
   F. Weigend, Phys. Chem. Chem. Phys. 8, 1057 (2006).

================================================================================
                                        WARNINGS
                       Please study these warnings very carefully!
================================================================================

Using LibXC functional ID 497 : Re-regularized SCAN exchange by Furness et al
[ 1]  J. W. Furness, A. D. Kaplan, J. Ning, J. P. Perdew, and J. Sun.,  J. Phys. Chem. Lett. 11, 8208-8215 (2020)
[ 2]  J. W. Furness, A. D. Kaplan, J. Ning, J. P. Perdew, and J. Sun.,  J. Phys. Chem. Lett. 11, 9248-9248 (2020)
Using LibXC functional ID 498 : Re-regularized SCAN correlation by Furness et al
[ 1]  J. W. Furness, A. D. Kaplan, J. Ning, J. P. Perdew, and J. Sun.,  J. Phys. Chem. Lett. 11, 8208-8215 (2020)
[ 2]  J. W. Furness, A. D. Kaplan, J. Ning, J. P. Perdew, and J. Sun.,  J. Phys. Chem. Lett. 11, 9248-9248 (2020)
Using LibXC functional ID 497 : Re-regularized SCAN exchange by Furness et al
[ 1]  J. W. Furness, A. D. Kaplan, J. Ning, J. P. Perdew, and J. Sun.,  J. Phys. Chem. Lett. 11, 8208-8215 (2020)
[ 2]  J. W. Furness, A. D. Kaplan, J. Ning, J. P. Perdew, and J. Sun.,  J. Phys. Chem. Lett. 11, 9248-9248 (2020)
Using LibXC functional ID 498 : Re-regularized SCAN correlation by Furness et al
[ 1]  J. W. Furness, A. D. Kaplan, J. Ning, J. P. Perdew, and J. Sun.,  J. Phys. Chem. Lett. 11, 8208-8215 (2020)
[ 2]  J. W. Furness, A. D. Kaplan, J. Ning, J. P. Perdew, and J. Sun.,  J. Phys. Chem. Lett. 11, 9248-9248 (2020)

================================================================================
                                       INPUT FILE
================================================================================
NAME = sp_gas.inp
|  1> ! r2scan-3c def2/J RI DEFGRID2 scfconv6 printgap
|  2> %output
|  3>     printlevel normal
|  4> end
|  5> * xyz 0 1
|  6> C -1.2330153349 0.1986035718 -0.2920016948
|  7> C 0.1251573549 0.6602266917 0.2651373603
|  8> C 1.2776276248 -0.1889525449 -0.296474085
|  9> O 1.0884065578 -1.5338456367 0.0876612361
| 10> O 0.3513807477 2.0279364586 0.0210812658
| 11> O -1.6741101185 -1.0098289067 0.2754256688
| 12> H -1.1695865851 0.103870794 -1.3874316363
| 13> H -1.9909418095 0.947739801 -0.0470847524
| 14> H 0.1051682365 0.5514070019 1.3550473088
| 15> H 2.2203258107 0.2076287883 0.0993872282
| 16> H 1.2877998343 -0.1022291167 -1.392735941
| 17> H 1.8509070923 -2.0604934868 -0.1886609458
| 18> H 0.3270304812 2.1957090223 -0.9322182989
| 19> H -0.9342073081 -1.6394758731 0.2485950737
| 20> *
| 21> 
| 22>                          ****END OF INPUT****
================================================================================

                       ****************************
                       * Single Point Calculation *
                       ****************************

---------------------------------
CARTESIAN COORDINATES (ANGSTROEM)
---------------------------------
  C     -1.233015    0.198604   -0.292002
  C      0.125157    0.660227    0.265137
  C      1.277628   -0.188953   -0.296474
  O      1.088407   -1.533846    0.087661
  O      0.351381    2.027936    0.021081
  O     -1.674110   -1.009829    0.275426
  H     -1.169587    0.103871   -1.387432
  H     -1.990942    0.947740   -0.047085
  H      0.105168    0.551407    1.355047
  H      2.220326    0.207629    0.099387
  H      1.287800   -0.102229   -1.392736
  H      1.850907   -2.060493   -0.188661
  H      0.327030    2.195709   -0.932218
  H     -0.934207   -1.639476    0.248595

----------------------------
CARTESIAN COORDINATES (A.U.)
----------------------------
  NO LB      ZA    FRAG     MASS         X           Y           Z
   0 C     6.0000    0    12.011   -2.330061    0.375306   -0.551803
   1 C     6.0000    0    12.011    0.236513    1.247648    0.501037
   2 C     6.0000    0    12.011    2.414366   -0.357069   -0.560255
   3 O     8.0000    0    15.999    2.056790   -2.898548    0.165656
   4 O     8.0000    0    15.999    0.664013    3.832245    0.039838
   5 O     8.0000    0    15.999   -3.163610   -1.908300    0.520479
   6 H     1.0000    0     1.008   -2.210198    0.196287   -2.621866
   7 H     1.0000    0     1.008   -3.762335    1.790969   -0.088977
   8 H     1.0000    0     1.008    0.198739    1.042008    2.560668
   9 H     1.0000    0     1.008    4.195808    0.392362    0.187815
  10 H     1.0000    0     1.008    2.433589   -0.193185   -2.631890
  11 H     1.0000    0     1.008    3.497708   -3.893768   -0.356518
  12 H     1.0000    0     1.008    0.617998    4.149289   -1.761637
  13 H     1.0000    0     1.008   -1.765396   -3.098160    0.469777

--------------------------------
INTERNAL COORDINATES (ANGSTROEM)
--------------------------------
 C      0   0   0     0.000000000000     0.00000000     0.00000000
 C      1   0   0     1.538873902197     0.00000000     0.00000000
 C      2   1   0     1.537758275662   111.31958671     0.00000000
 O      3   2   1     1.411418430333   109.04548963   298.80323109
 O      2   1   3     1.407611596708   111.74902088   124.29361726
 O      1   2   3     1.406004081137   112.86706693    74.22222341
 H      1   2   3     1.101346567719   109.57688758   310.99157222
 H      1   2   3     1.093454132314   108.97457758   192.09331868
 H      2   1   3     1.095511289573   108.31803117   240.42888770
 H      3   2   1     1.096659839162   108.22224166   177.71434420
 H      3   2   1     1.099733824053   109.11385243    59.39488033
 H      4   3   2     0.967015496948   109.60058726   185.36596218
 H      5   2   1     0.968256489091   109.57400614   301.00604847
 H      6   1   2     0.971921474178   107.86843259   311.99883859

---------------------------
INTERNAL COORDINATES (A.U.)
---------------------------
 C      0   0   0     0.000000000000     0.00000000     0.00000000
 C      1   0   0     2.908050229791     0.00000000     0.00000000
 C      2   1   0     2.905942001173   111.31958671     0.00000000
 O      3   2   1     2.667194293699   109.04548963   298.80323109
 O      2   1   3     2.660000420709   111.74902088   124.29361726
 O      1   2   3     2.656962656525   112.86706693    74.22222341
 H      1   2   3     2.081243391522   109.57688758   310.99157222
 H      1   2   3     2.066328850078   108.97457758   192.09331868
 H      2   1   3     2.070216313912   108.31803117   240.42888770
 H      3   2   1     2.072386758086   108.22224166   177.71434420
 H      3   2   1     2.078195747669   109.11385243    59.39488033
 H      4   3   2     1.827394456490   109.60058726   185.36596218
 H      5   2   1     1.829739591774   109.57400614   301.00604847
 H      6   1   2     1.836665409873   107.86843259   311.99883859

---------------------
BASIS SET INFORMATION
---------------------
There are 3 groups of distinct atoms

 Group   1 Type C   : 11s6p1d contracted to 5s3p1d pattern {62111/411/1}
 Group   2 Type O   : 11s6p2d contracted to 5s3p2d pattern {62111/411/11}
 Group   3 Type H   : 4s1p contracted to 2s1p pattern {31/1}

Atom   0C    basis set group =>   1
Atom   1C    basis set group =>   1
Atom   2C    basis set group =>   1
Atom   3O    basis set group =>   2
Atom   4O    basis set group =>   2
Atom   5O    basis set group =>   2
Atom   6H    basis set group =>   3
Atom   7H    basis set group =>   3
Atom   8H    basis set group =>   3
Atom   9H    basis set group =>   3
Atom  10H    basis set group =>   3
Atom  11H    basis set group =>   3
Atom  12H    basis set group =>   3
Atom  13H    basis set group =>   3
---------------------------------
AUXILIARY/J BASIS SET INFORMATION
---------------------------------
There are 3 groups of distinct atoms

 Group   1 Type C   : 12s5p4d2f1g contracted to 6s4p3d1f1g pattern {711111/2111/211/2/1}
 Group   2 Type O   : 12s5p4d2f1g contracted to 6s4p3d1f1g pattern {711111/2111/211/2/1}
 Group   3 Type H   : 5s2p1d contracted to 3s1p1d pattern {311/2/1}

Atom   0C    basis set group =>   1
Atom   1C    basis set group =>   1
Atom   2C    basis set group =>   1
Atom   3O    basis set group =>   2
Atom   4O    basis set group =>   2
Atom   5O    basis set group =>   2
Atom   6H    basis set group =>   3
Atom   7H    basis set group =>   3
Atom   8H    basis set group =>   3
Atom   9H    basis set group =>   3
Atom  10H    basis set group =>   3
Atom  11H    basis set group =>   3
Atom  12H    basis set group =>   3
Atom  13H    basis set group =>   3

Checking for AutoStart:
The File: sp_gas.gbw exists
Trying to determine its content:
     ... Fine, the file contains calculation information
     ... Fine, the calculation information was read
     ... Fine, the file contains a basis set
     ... Fine, the basis set was read
     ... Fine, the file contains a geometry
     ... Fine, the geometry was read
     ... Fine, the file contains a set of orbitals
     ... Fine, the orbitals can be read
     => possible old guess file was deleted
     => GBW file was renamed to GES file
     => GES file is set as startup file
     => Guess is set to MORead
     ... now leaving AutoStart

------------------------------------------------------------------------------
                             ORCA STARTUP CALCULATIONS
                           -- RI-GTO INTEGRALS CHOSEN --
------------------------------------------------------------------------------
------------------------------------------------------------------------------
                   ___                                                        
                  /   \      - P O W E R E D   B Y -                         
                 /     \                                                     
                 |  |  |   _    _      __       _____    __    __             
                 |  |  |  | |  | |    /  \     |  _  \  |  |  /  |          
                  \  \/   | |  | |   /    \    | | | |  |  | /  /          
                 / \  \   | |__| |  /  /\  \   | |_| |  |  |/  /          
                |  |  |   |  __  | /  /__\  \  |    /   |      \           
                |  |  |   | |  | | |   __   |  |    \   |  |\   \          
                \     /   | |  | | |  |  |  |  | |\  \  |  | \   \       
                 \___/    |_|  |_| |__|  |__|  |_| \__\ |__|  \__/        
                                                                              
                      - O R C A' S   B I G   F R I E N D -                    
                                      &                                       
                       - I N T E G R A L  F E E D E R -                       
                                                                              
 v1 FN, 2020, v2 2021, v3 2022-2024                                           
------------------------------------------------------------------------------


----------------------
SHARK INTEGRAL PACKAGE
----------------------

Number of atoms                             ...     14
Number of basis functions                   ...    169
Number of shells                            ...     81
Maximum angular momentum                    ...      2
Integral batch strategy                     ... SHARK/LIBINT Hybrid
RI-J (if used) integral strategy            ... SPLIT-RIJ (Revised 2003 algorithm where possible)
Printlevel                                  ...      1
Contraction scheme used                     ... SEGMENTED contraction
Prescreening option                         ... SCHWARTZ
   Thresh                                   ... 1.000e-10
   Tcut                                     ... 1.000e-11
   Tpresel                                  ... 1.000e-11 
Coulomb Range Separation                    ... NOT USED
Exchange Range Separation                   ... NOT USED
Multipole approximations                    ... NOT USED
Finite Nucleus Model                        ... NOT USED
CABS basis                                  ... NOT available
Auxiliary Coulomb fitting basis             ... AVAILABLE
   # of basis functions in Aux-J            ...    382
   # of shells in Aux-J                     ...    130
   Maximum angular momentum in Aux-J        ...      4
Auxiliary J/K fitting basis                 ... NOT available
Auxiliary Correlation fitting basis         ... NOT available
Auxiliary 'external' fitting basis          ... NOT available

Checking pre-screening integrals            ... done (  0.0 sec) Dimension = 81
Check shell pair data                       ... done (  0.0 sec)
Shell pair information
Shell pair cut-off parameter TPreSel        ...   1.0e-11
Total number of shell pairs                 ...      3321
Shell pairs after pre-screening             ...      3135
Total number of primitive shell pairs       ...     11632
Primitive shell pairs kept                  ...      8216
          la=0 lb=0:    993 shell pairs
          la=1 lb=0:   1132 shell pairs
          la=1 lb=1:    338 shell pairs
          la=2 lb=0:    400 shell pairs
          la=2 lb=1:    227 shell pairs
          la=2 lb=2:     45 shell pairs

Calculating one electron integrals          ... done (  0.0 sec)
Calculating RI/J V-Matrix + Cholesky decomp.... done (  0.1 sec)
Calculating Nuclear repulsion               ... done (  0.0 sec) ENN=    264.818076072831 Eh

Diagonalization of the overlap matrix:
Smallest eigenvalue                        ... 2.184e-04
Time for diagonalization                   ...    0.003 sec
Threshold for overlap eigenvalues          ... 1.000e-07
Number of eigenvalues below threshold      ... 0
Time for construction of square roots      ...    0.012 sec
Total time needed                          ...    0.025 sec

-------------------
DFT GRID GENERATION
-------------------

General Integration Accuracy     IntAcc      ... 4.388
Radial Grid Type                 RadialGrid  ... OptM3 with GC (2021)
Angular Grid (max. ang.)         AngularGrid ... 4 (Lebedev-302)
Angular grid pruning method      GridPruning ... 4 (adaptive)
Weight generation scheme         WeightScheme... mBecke (2022)
Basis function cutoff            BFCut       ... 1.0000e-10
Integration weight cutoff        WCut        ... 1.0000e-14
Partially contracted basis set               ... off
Rotationally invariant grid construction     ... off
Angular grids for H and He will be reduced by one unit
Diffuse basis detected: some atoms will have their outermost
                        angular grid increased by 1.

Total number of grid points                  ...    62920
Total number of batches                      ...      989
Average number of points per batch           ...       63
Average number of grid points per atom       ...     4494
Initializing property integral containers    ... done (  0.0 sec)

SHARK setup successfully completed in   0.9 seconds

Maximum memory used throughout the entire STARTUP-calculation: 27.8 MB
-------------------------------------------------------------------------------
                                 ORCA GUESS
                   Start orbitals & Density for SCF / CASSCF
-------------------------------------------------------------------------------

------------
SCF SETTINGS
------------
Hamiltonian:
 Density Functional     Method          .... DFT(GTOs)
  Functional kind                       .... Exchange
  Functional name                       .... Re-regularized SCAN exchange by Furness et al
  Functional family                     .... MGGA
  Functional refs                              
    [ 0] J. W. Furness, A. D. Kaplan, J. Ning, J. P. Perdew, and J. Sun.,  J. Phys. Chem. Lett. 11, 8208-8215 (2020), doi: 10.1021/acs.jpclett.0c02405
    [ 1] J. W. Furness, A. D. Kaplan, J. Ning, J. P. Perdew, and J. Sun.,  J. Phys. Chem. Lett. 11, 9248-9248 (2020), doi: 10.1021/acs.jpclett.0c03077
  Functional external parameters        .... 6
    Parameter  0 _c1        =  6.670000e-01 : c1 parameter        
    Parameter  1 _c2        =  8.000000e-01 : c2 parameter        
    Parameter  2 _d         =  1.240000e+00 : d parameter         
    Parameter  3 _k1        =  6.500000e-02 : k1 parameter        
    Parameter  4 _eta       =  1.000000e-03 : eta parameter       
    Parameter  5 _dp2       =  3.610000e-01 : dp2 parameter       
  Functional kind                       .... Correlation
  Functional name                       .... Re-regularized SCAN correlation by Furness et al
  Functional family                     .... MGGA
  Functional refs                              
    [ 0] J. W. Furness, A. D. Kaplan, J. Ning, J. P. Perdew, and J. Sun.,  J. Phys. Chem. Lett. 11, 8208-8215 (2020), doi: 10.1021/acs.jpclett.0c02405
    [ 1] J. W. Furness, A. D. Kaplan, J. Ning, J. P. Perdew, and J. Sun.,  J. Phys. Chem. Lett. 11, 9248-9248 (2020), doi: 10.1021/acs.jpclett.0c03077
  Functional external parameters        .... 1
    Parameter  0 _eta       =  1.000000e-03 : Regularization parameter
 Gradients option       PostSCFGGA      .... off
 RI-approximation to the Coulomb term is turned on
   Number of AuxJ basis functions       .... 382


General Settings:
 Integral files         IntName         .... sp_gas
 Hartree-Fock type      HFTyp           .... RHF
 Total Charge           Charge          ....    0
 Multiplicity           Mult            ....    1
 Number of Electrons    NEL             ....   50
 Basis Dimension        Dim             ....  169
 Nuclear Repulsion      ENuc            ....    264.8180760728 Eh

Convergence Acceleration:
 AO-DIIS                CNVDIIS         .... on
   Start iteration      DIISMaxIt       ....    12
   Startup error        DIISStart       ....  0.200000
   # of expansion vecs  DIISMaxEq       ....     5
   Bias factor          DIISBfac        ....   1.050
   Max. coefficient     DIISMaxC        ....  10.000
 MO-DIIS                CNVKDIIS        .... off
 Trust-Rad. Augm. Hess. CNVTRAH         .... auto
   Auto Start mean grad. ratio tolernc. ....  1.125000
   Auto Start start iteration           ....     1
   Auto Start num. interpolation iter.  ....    10
   Max. Number of Micro iterations      ....    24
   Max. Number of Macro iterations      .... Maxiter - #DIIS iter
   Number of Davidson start vectors     ....     2
   Converg. threshold    (grad. norm)   ....   3.330e-04
   Grad. Scal. Fac. for Micro threshold ....   0.100
   Minimum threshold for Micro iter.    ....   1.000e-02
   NR start threshold (gradient norm)   ....   1.000e-04
   Initial trust radius                 ....   0.400
   Minimum AH scaling param. (alpha)    ....   1.000
   Maximum AH scaling param. (alpha)    .... 1000.000
   Quad. conv. algorithm                .... NR
   White noise on init. David. guess    .... on
   Maximum white noise                  ....   0.010
   Pseudo random numbers                .... off
   Inactive MOs                         .... canonical
   Orbital update algorithm             .... Taylor
   Preconditioner                       .... Diag
   Full preconditioner red. dimension   ....   250
   COSX micro iterations for RIJONX calc.... off
 SOSCF                  CNVSOSCF        .... on
   Start iteration      SOSCFMaxIt      ....   150
   Startup grad/error   SOSCFStart      ....  0.003300
   Hessian update       SOSCFHessUp     .... L-BFGS
 Level Shifting         CNVShift        .... on
   Level shift para.    LevelShift      ....    0.2500
   Turn off err/grad.   ShiftErr        ....    0.0010
 Zerner damping         CNVZerner       .... off
 Static damping         CNVDamp         .... on
   Fraction old density DampFac         ....    0.7000
   Max. Damping (<1)    DampMax         ....    0.9800
   Min. Damping (>=0)   DampMin         ....    0.0000
   Turn off err/grad.   DampErr         ....    0.1000

SCF Procedure:
 Maximum # iterations   MaxIter         ....   125
 SCF integral mode      SCFMode         .... Direct
   Integral package                     .... SHARK and LIBINT hybrid scheme
 Reset frequency        DirectResetFreq ....    20
 Integral Threshold     Thresh          ....  1.000e-10 Eh
 Primitive CutOff       TCut            ....  1.000e-11 Eh

Convergence Tolerance:
 Convergence Check Mode ConvCheckMode   .... Total+1el-Energy
 Convergence forced     ConvForced      .... 0
 Energy Change          TolE            ....  1.000e-06 Eh
 1-El. energy change                    ....  1.000e-03 Eh
 Orbital Gradient       TolG            ....  3.330e-04
 Orbital Rotation angle TolX            ....  3.330e-04
 DIIS Error             TolErr          ....  1.000e-06

---------------------
INITIAL GUESS: MOREAD
---------------------
Guess MOs are being read from file: sp_gas.ges
Input Geometry matches current geometry (good)
Atom 0: N(Shells)= 9 and 6 - projection required
Input basis set needs projection
NBasis(read)= 100
NBasis(calc)= 169
Basis set overlap was calculated
Using GuessMode=FMatrix for the initial guess
C*T matrix was formed
Effective Fockian was calculated
Effective Fockian was diagonalized
Initial density was built
                      ------------------
                      INITIAL GUESS DONE (   0.0 sec)
                      ------------------
             **** ENERGY FILE WAS UPDATED (sp_gas.en.tmp) ****
Finished Guess after   0.2 sec
Maximum memory used throughout the entire GUESS-calculation: 11.5 MB

-------------------------------------------------------------------------------------------
                                      ORCA LEAN-SCF
                              memory conserving SCF solver
-------------------------------------------------------------------------------------------

----------------------------------------D-I-I-S--------------------------------------------
Iteration    Energy (Eh)           Delta-E    RMSDP     MaxDP     DIISErr   Damp  Time(sec)
-------------------------------------------------------------------------------------------
               ***  Starting incremental Fock matrix formation  ***
    1    -344.5194186262184530     0.00e+00  3.93e-03  1.43e-01  6.26e-01  0.700   1.9
    2    -344.5816120289921400    -6.22e-02  3.27e-03  8.96e-02  4.40e-01  0.700   1.9
    3    -344.6257584302617261    -4.41e-02  2.42e-03  5.79e-02  3.08e-01  0.700   1.8
    4    -344.6567858167416034    -3.10e-02  1.74e-03  3.90e-02  2.16e-01  0.700   1.8
                               ***Turning on AO-DIIS***
    5    -344.6785691245294174    -2.18e-02  1.25e-03  2.64e-02  1.51e-01  0.700   1.8
    6    -344.6938511704263419    -1.53e-02  8.90e-04  1.80e-02  1.06e-01  0.700   1.7
    7    -344.7045718981474920    -1.07e-02  6.28e-04  1.24e-02  7.41e-02  0.700   1.7
    8    -344.7120882813221669    -7.52e-03  1.47e-03  2.84e-02  5.19e-02  0.000   1.7
                              *** Initializing SOSCF ***
---------------------------------------S-O-S-C-F--------------------------------------
Iteration    Energy (Eh)           Delta-E    RMSDP     MaxDP     MaxGrad    Time(sec)
--------------------------------------------------------------------------------------
    9    -344.7296635379558438    -1.76e-02  1.06e-05  1.37e-04  2.06e-04     1.8
               *** Restarting incremental Fock matrix formation ***
   10    -344.7296637056989539    -1.68e-07  9.30e-06  2.57e-04  2.87e-05     2.0
                  *** Gradient check signals convergence ***

               *****************************************************
               *                     SUCCESS                       *
               *           SCF CONVERGED AFTER  10 CYCLES          *
               *****************************************************

             **** ENERGY FILE WAS UPDATED (sp_gas.en.tmp) ****

----------------
TOTAL SCF ENERGY
----------------

Total Energy       :       -344.72966370569895 Eh           -9380.57105 eV

Components:
Nuclear Repulsion  :        264.81807607283122 Eh            7206.06620 eV
Electronic Energy  :       -609.54773977853017 Eh          -16586.63725 eV
One Electron Energy:       -996.18547628431372 Eh          -27107.58493 eV
Two Electron Energy:        386.63773650578355 Eh           10520.94768 eV

Virial components:
Potential Energy   :       -688.09520606605167 Eh          -18724.02247 eV
Kinetic Energy     :        343.36554236035272 Eh            9343.45142 eV
Virial Ratio       :          2.00397279626828

DFT components:
N(Alpha)           :       25.000038107856 electrons
N(Beta)            :       25.000038107856 electrons
N(Total)           :       50.000076215713 electrons
E(X)               :      -43.318397628299 Eh       
E(C)               :       -1.629283983889 Eh       
E(XC)              :      -44.947681612188 Eh       

---------------
SCF CONVERGENCE
---------------

  Last Energy change         ...    1.6774e-07  Tolerance :   1.0000e-06
  Last MAX-Density change    ...    2.5710e-04  Tolerance :   1.0000e-05
  Last RMS-Density change    ...    9.2965e-06  Tolerance :   1.0000e-06
  Last DIIS Error            ...    2.0646e-04  Tolerance :   1.0000e-06
  Last Orbital Gradient      ...    2.8665e-05  Tolerance :   3.3300e-04
  Last Orbital Rotation      ...    3.9948e-05  Tolerance :   3.3300e-04


----------------
ORBITAL ENERGIES
----------------

  NO   OCC          E(Eh)            E(eV) 
   0   2.0000     -18.977616      -516.4072 
   1   2.0000     -18.963219      -516.0154 
   2   2.0000     -18.935687      -515.2662 
   3   2.0000     -10.091764      -274.6108 
   4   2.0000     -10.088031      -274.5093 
   5   2.0000     -10.072501      -274.0867 
   6   2.0000      -1.016568       -27.6622 
   7   2.0000      -0.999897       -27.2086 
   8   2.0000      -0.974004       -26.5040 
   9   2.0000      -0.726044       -19.7567 
  10   2.0000      -0.646633       -17.5958 
  11   2.0000      -0.582106       -15.8399 
  12   2.0000      -0.516106       -14.0439 
  13   2.0000      -0.490808       -13.3556 
  14   2.0000      -0.452981       -12.3262 
  15   2.0000      -0.425920       -11.5899 
  16   2.0000      -0.422786       -11.5046 
  17   2.0000      -0.390150       -10.6165 
  18   2.0000      -0.370028       -10.0690 
  19   2.0000      -0.349205        -9.5024 
  20   2.0000      -0.306822        -8.3490 
  21   2.0000      -0.300028        -8.1642 
  22   2.0000      -0.261602        -7.1186 
  23   2.0000      -0.254640        -6.9291 
  24   2.0000      -0.222454        -6.0533 
  25   0.0000       0.020319         0.5529 
  26   0.0000       0.060463         1.6453 
  27   0.0000       0.101832         2.7710 
  28   0.0000       0.120639         3.2827 
  29   0.0000       0.129962         3.5364 
  30   0.0000       0.136911         3.7255 
  31   0.0000       0.143912         3.9160 
  32   0.0000       0.155889         4.2420 
  33   0.0000       0.169654         4.6165 
  34   0.0000       0.172758         4.7010 
  35   0.0000       0.194167         5.2836 
*Only the first 10 virtual orbitals were printed.

                    ********************************
                    * MULLIKEN POPULATION ANALYSIS *
                    ********************************

-----------------------
MULLIKEN ATOMIC CHARGES
-----------------------
   0 C :   -0.181320
   1 C :   -0.000218
   2 C :   -0.154228
   3 O :   -0.430371
   4 O :   -0.408824
   5 O :   -0.423173
   6 H :    0.121694
   7 H :    0.150907
   8 H :    0.151714
   9 H :    0.139777
  10 H :    0.119261
  11 H :    0.302976
  12 H :    0.297439
  13 H :    0.314366
Sum of atomic charges:    0.0000000

--------------------------------
MULLIKEN REDUCED ORBITAL CHARGES
--------------------------------
  0 C s       :     3.311937  s :     3.311937
      pz      :     0.994710  p :     2.810427
      px      :     0.961272
      py      :     0.854444
      dz2     :     0.016149  d :     0.058956
      dxz     :     0.005588
      dyz     :     0.010927
      dx2y2   :     0.010818
      dxy     :     0.015473

  1 C s       :     3.170763  s :     3.170763
      pz      :     1.102084  p :     2.762828
      px      :     0.925321
      py      :     0.735423
      dz2     :     0.014054  d :     0.066627
      dxz     :     0.006324
      dyz     :     0.009911
      dx2y2   :     0.016575
      dxy     :     0.019763

  2 C s       :     3.279019  s :     3.279019
      pz      :     1.031796  p :     2.817551
      px      :     1.051530
      py      :     0.734224
      dz2     :     0.013828  d :     0.057658
      dxz     :     0.004086
      dyz     :     0.012590
      dx2y2   :     0.013200
      dxy     :     0.013954

  3 O s       :     3.762842  s :     3.762842
      pz      :     1.836346  p :     4.647044
      px      :     1.583881
      py      :     1.226817
      dz2     :     0.004505  d :     0.020486
      dxz     :     0.004691
      dyz     :     0.003565
      dx2y2   :     0.003097
      dxy     :     0.004628

  4 O s       :     3.758958  s :     3.758958
      pz      :     1.385886  p :     4.634400
      px      :     1.895053
      py      :     1.353461
      dz2     :     0.007935  d :     0.015467
      dxz     :     0.003074
      dyz     :    -0.002941
      dx2y2   :     0.003442
      dxy     :     0.003957

  5 O s       :     3.762677  s :     3.762677
      pz      :     1.808880  p :     4.648890
      px      :     1.597939
      py      :     1.242071
      dz2     :     0.003768  d :     0.011606
      dxz     :     0.003335
      dyz     :     0.000476
      dx2y2   :     0.001992
      dxy     :     0.002035

  6 H s       :     0.861376  s :     0.861376
      pz      :     0.011126  p :     0.016930
      px      :     0.003257
      py      :     0.002547

  7 H s       :     0.831882  s :     0.831882
      pz      :     0.003524  p :     0.017211
      px      :     0.007077
      py      :     0.006610

  8 H s       :     0.831280  s :     0.831280
      pz      :     0.011656  p :     0.017006
      px      :     0.003203
      py      :     0.002146

  9 H s       :     0.843012  s :     0.843012
      pz      :     0.004205  p :     0.017211
      px      :     0.009323
      py      :     0.003682

 10 H s       :     0.863640  s :     0.863640
      pz      :     0.011355  p :     0.017100
      px      :     0.003408
      py      :     0.002336

 11 H s       :     0.653864  s :     0.653864
      pz      :     0.013087  p :     0.043161
      px      :     0.018121
      py      :     0.011952

 12 H s       :     0.659455  s :     0.659455
      pz      :     0.021772  p :     0.043106
      px      :     0.012765
      py      :     0.008569

 13 H s       :     0.641261  s :     0.641261
      pz      :     0.011514  p :     0.044373
      px      :     0.018729
      py      :     0.014130


------------------------
MULLIKEN OVERLAP CHARGES
------------------------
B(  0-C ,  1-C ) :   0.4614 B(  0-C ,  2-C ) :  -0.2713 B(  0-C ,  3-O ) :   0.0642 
B(  0-C ,  4-O ) :  -0.1048 B(  0-C ,  5-O ) :   0.4628 B(  0-C ,  6-H ) :   0.8705 
B(  0-C ,  7-H ) :   0.8106 B(  0-C , 10-H ) :  -0.0512 B(  0-C , 13-H ) :  -0.1005 
B(  1-C ,  2-C ) :   0.5336 B(  1-C ,  3-O ) :  -0.1791 B(  1-C ,  4-O ) :   0.4547 
B(  1-C ,  5-O ) :  -0.1149 B(  1-C ,  6-H ) :  -0.1083 B(  1-C ,  7-H ) :  -0.0623 
B(  1-C ,  8-H ) :   0.8167 B(  1-C ,  9-H ) :  -0.0808 B(  1-C , 12-H ) :  -0.1451 
B(  2-C ,  3-O ) :   0.3994 B(  2-C ,  4-O ) :  -0.1211 B(  2-C ,  8-H ) :  -0.0552 
B(  2-C ,  9-H ) :   0.8134 B(  2-C , 10-H ) :   0.8278 B(  2-C , 11-H ) :  -0.0750 
B(  3-O ,  5-O ) :  -0.0547 B(  3-O ,  9-H ) :  -0.0822 B(  3-O , 10-H ) :  -0.1064 
B(  3-O , 11-H ) :   0.5861 B(  3-O , 13-H ) :   0.0572 B(  4-O ,  8-H ) :  -0.0859 
B(  4-O , 12-H ) :   0.5889 B(  5-O ,  6-H ) :  -0.1120 B(  5-O ,  7-H ) :  -0.0954 
B(  5-O , 13-H ) :   0.5871 B(  6-H ,  7-H ) :  -0.0752 B(  9-H , 10-H ) :  -0.0868 



                     *******************************
                     * LOEWDIN POPULATION ANALYSIS *
                     *******************************

----------------------
LOEWDIN ATOMIC CHARGES
----------------------
   0 C :    0.020849
   1 C :    0.084797
   2 C :    0.028130
   3 O :   -0.629865
   4 O :   -0.586226
   5 O :   -0.604581
   6 H :    0.156019
   7 H :    0.184454
   8 H :    0.194781
   9 H :    0.169034
  10 H :    0.158611
  11 H :    0.274015
  12 H :    0.271135
  13 H :    0.278846

-------------------------------
LOEWDIN REDUCED ORBITAL CHARGES
-------------------------------
  0 C s       :     2.875980  s :     2.875980
      pz      :     1.037681  p :     2.971336
      px      :     1.018453
      py      :     0.915201
      dz2     :     0.038338  d :     0.131835
      dxz     :     0.011000
      dyz     :     0.022840
      dx2y2   :     0.023008
      dxy     :     0.036649

  1 C s       :     2.843769  s :     2.843769
      pz      :     1.067503  p :     2.929516
      px      :     1.014011
      py      :     0.848003
      dz2     :     0.032420  d :     0.141918
      dxz     :     0.012302
      dyz     :     0.019972
      dx2y2   :     0.035741
      dxy     :     0.041484

  2 C s       :     2.877836  s :     2.877836
      pz      :     1.062129  p :     2.964369
      px      :     1.062611
      py      :     0.839628
      dz2     :     0.032980  d :     0.129665
      dxz     :     0.008060
      dyz     :     0.026821
      dx2y2   :     0.029610
      dxy     :     0.032194

  3 O s       :     3.512472  s :     3.512472
      pz      :     1.832788  p :     4.820107
      px      :     1.610541
      py      :     1.376778
      dz2     :     0.046354  d :     0.297287
      dxz     :     0.012524
      dyz     :     0.067953
      dx2y2   :     0.073294
      dxy     :     0.097161

  4 O s       :     3.512323  s :     3.512323
      pz      :     1.467320  p :     4.784244
      px      :     1.851653
      py      :     1.465271
      dz2     :     0.070956  d :     0.289659
      dxz     :     0.009755
      dyz     :     0.074446
      dx2y2   :     0.062235
      dxy     :     0.072267

  5 O s       :     3.515839  s :     3.515839
      pz      :     1.815471  p :     4.811947
      px      :     1.616296
      py      :     1.380180
      dz2     :     0.054550  d :     0.276795
      dxz     :     0.019706
      dyz     :     0.052345
      dx2y2   :     0.061738
      dxy     :     0.088456

  6 H s       :     0.803846  s :     0.803846
      pz      :     0.026257  p :     0.040135
      px      :     0.007525
      py      :     0.006354

  7 H s       :     0.776394  s :     0.776394
      pz      :     0.008131  p :     0.039153
      px      :     0.017060
      py      :     0.013962

  8 H s       :     0.765878  s :     0.765878
      pz      :     0.027507  p :     0.039340
      px      :     0.007252
      py      :     0.004581

  9 H s       :     0.790349  s :     0.790349
      pz      :     0.010129  p :     0.040617
      px      :     0.022136
      py      :     0.008353

 10 H s       :     0.801117  s :     0.801117
      pz      :     0.026746  p :     0.040272
      px      :     0.007894
      py      :     0.005631

 11 H s       :     0.603922  s :     0.603922
      pz      :     0.034753  p :     0.122063
      px      :     0.054116
      py      :     0.033194

 12 H s       :     0.606726  s :     0.606726
      pz      :     0.066916  p :     0.122139
      px      :     0.032729
      py      :     0.022494

 13 H s       :     0.594505  s :     0.594505
      pz      :     0.030083  p :     0.126649
      px      :     0.056570
      py      :     0.039996


---------------------------------
LOEWDIN BOND ORDERS (THRESH 0.050000)
---------------------------------
B(  0-C ,  1-C ) :   0.9298 B(  0-C ,  2-C ) :   0.0654 B(  0-C ,  4-O ) :   0.1668 
B(  0-C ,  5-O ) :   1.4655 B(  0-C ,  6-H ) :   0.8269 B(  0-C ,  7-H ) :   0.8198 
B(  1-C ,  2-C ) :   0.9280 B(  1-C ,  3-O ) :   0.1586 B(  1-C ,  4-O ) :   1.4389 
B(  1-C ,  5-O ) :   0.1616 B(  1-C ,  8-H ) :   0.7844 B(  2-C ,  3-O ) :   1.4235 
B(  2-C ,  4-O ) :   0.1741 B(  2-C ,  9-H ) :   0.8275 B(  2-C , 10-H ) :   0.8271 
B(  3-O ,  5-O ) :   0.0913 B(  3-O ,  9-H ) :   0.1052 B(  3-O , 10-H ) :   0.1047 
B(  3-O , 11-H ) :   0.9636 B(  4-O ,  8-H ) :   0.0954 B(  4-O , 12-H ) :   0.9647 
B(  5-O ,  6-H ) :   0.1048 B(  5-O ,  7-H ) :   0.1009 B(  5-O , 13-H ) :   0.9329 


------------------------------------------
LOEWDIN REDUCED ORBITAL POPULATIONS PER MO
-------------------------------------------
THRESHOLD FOR PRINTING IS 0.1%%
                      0         1         2         3         4         5   
                 -18.97762 -18.96322 -18.93569 -10.09176 -10.08803 -10.07250
                   2.00000   2.00000   2.00000   2.00000   2.00000   2.00000
                  --------  --------  --------  --------  --------  --------
 0 C  s               0.0       0.0       0.0       0.0       0.0      99.4
 1 C  s               0.0       0.0       0.0       0.0      99.3       0.0
 2 C  s               0.0       0.0       0.0      99.4       0.0       0.0
 3 O  s              99.9       0.0       0.0       0.0       0.0       0.0
 3 O  py              0.0       0.0       0.0       0.1       0.0       0.0
 3 O  dx2y2           0.0       0.0       0.0       0.2       0.0       0.0
 4 O  s               0.0      99.9       0.0       0.0       0.0       0.0
 4 O  py              0.0       0.0       0.0       0.0       0.1       0.0
 4 O  dx2y2           0.0       0.0       0.0       0.0       0.2       0.0
 5 O  s               0.0       0.0      99.9       0.0       0.0       0.0
 5 O  dyz             0.0       0.0       0.0       0.0       0.0       0.1

                      6         7         8         9        10        11   
                  -1.01657  -0.99990  -0.97400  -0.72604  -0.64663  -0.58211
                   2.00000   2.00000   2.00000   2.00000   2.00000   2.00000
                  --------  --------  --------  --------  --------  --------
 0 C  s               1.2       1.0       8.7       6.6      17.6       5.1
 0 C  pz              0.1       0.1       1.3       0.0       0.1       2.7
 0 C  px              0.5       0.4       0.8       3.1       0.2       2.4
 0 C  py              0.1       0.3       7.3       1.1       2.5       0.1
 0 C  dyz             0.0       0.0       0.3       0.0       0.0       0.0
 0 C  dx2y2           0.0       0.0       0.3       0.1       0.0       0.0
 0 C  dxy             0.0       0.0       0.1       0.0       0.0       0.0
 1 C  s               4.0       6.7       0.1      17.4       0.7       8.4
 1 C  pz              0.3       0.4       0.0       0.2       0.0       7.5
 1 C  px              0.4       0.0       1.5       0.0      12.4       0.1
 1 C  py              0.3       8.2       1.2       4.6       0.2       1.5
 1 C  dz2             0.0       0.1       0.0       0.0       0.0       0.0
 1 C  dxz             0.0       0.0       0.0       0.0       0.2       0.0
 1 C  dx2y2           0.1       0.4       0.0       0.2       0.0       0.1
 1 C  dxy             0.0       0.1       0.0       0.0       0.1       0.0
 2 C  s               9.4       0.3       0.2      13.7      12.0       3.9
 2 C  pz              0.6       0.0       0.0       0.1       0.1       3.0
 2 C  px              0.4       0.3       0.1       1.6       0.8       1.3
 2 C  py              4.9       4.4       0.1       2.8       0.6       0.4
 2 C  dz2             0.1       0.0       0.0       0.0       0.0       0.0
 2 C  dx2y2           0.4       0.1       0.0       0.1       0.0       0.0
 3 O  s              48.8      11.2       1.3       2.7       1.6       0.5
 3 O  pz              0.5       0.1       0.0       0.1       0.1       0.6
 3 O  px              0.9       0.3       0.1       0.6       0.5       0.1
 3 O  py              0.7       0.0       0.0       6.5       8.1       4.3
 3 O  dz2             0.1       0.0       0.0       0.2       0.1       0.0
 3 O  dyz             0.0       0.0       0.0       0.2       0.3       0.5
 3 O  dx2y2           0.1       0.0       0.1       1.2       0.5       0.1
 3 O  dxy             0.0       0.0       0.0       0.0       0.5       0.3
 4 O  s               8.5      48.8       2.2       5.0       0.1       0.2
 4 O  pz              0.1       0.7       0.0       1.5       0.1      12.5
 4 O  px              0.0       0.1       0.0       0.1       0.9       0.1
 4 O  py              0.4       1.4       0.0       5.2       0.2       9.7
 4 O  dz2             0.0       0.0       0.0       0.8       0.0       0.3
 4 O  dyz             0.0       0.0       0.0       0.0       0.0       0.5
 4 O  dx2y2           0.1       0.2       0.0       1.1       0.0       0.4
 4 O  dxy             0.0       0.0       0.0       0.0       1.0       0.0
 5 O  s               1.9       0.6      57.2       2.5       2.9       0.3
 5 O  pz              0.0       0.0       0.4       0.1       0.8       1.2
 5 O  px              0.1       0.0       1.8       0.1       0.2       0.5
 5 O  py              0.0       0.0       0.4       1.8       8.6       5.1
 5 O  dyz             0.0       0.0       0.1       0.1       0.5       0.4
 5 O  dx2y2           0.0       0.0       0.1       0.1       0.7       0.2
 5 O  dxy             0.0       0.0       0.0       0.6       0.5       0.0
 6 H  s               0.1       0.1       0.6       1.2       4.3       3.2
 6 H  pz              0.0       0.0       0.1       0.1       0.4       0.2
 7 H  s               0.1       0.1       0.6       1.1       5.7       2.2
 7 H  px              0.0       0.0       0.0       0.1       0.3       0.0
 7 H  py              0.0       0.0       0.0       0.0       0.2       0.1
 8 H  s               0.3       0.5       0.0       3.2       0.2       6.1
 8 H  pz              0.0       0.0       0.0       0.3       0.0       0.5
 9 H  s               0.7       0.0       0.0       2.4       3.9       1.3
 9 H  px              0.0       0.0       0.0       0.2       0.2       0.0
10 H  s               0.6       0.0       0.0       2.6       3.3       3.1
10 H  pz              0.1       0.0       0.0       0.2       0.3       0.2
11 H  s               8.3       2.0       0.3       2.0       2.0       0.6
11 H  pz              0.1       0.0       0.0       0.0       0.0       0.0
11 H  px              1.0       0.3       0.0       0.3       0.2       0.1
11 H  py              0.7       0.2       0.0       0.0       0.0       0.0
12 H  s               1.5       8.3       0.4       2.2       0.1       5.2
12 H  pz              0.3       1.7       0.1       0.5       0.0       0.4
12 H  py              0.0       0.1       0.0       0.0       0.0       0.0
13 H  s               0.7       0.1       9.4       0.7       2.3       1.5
13 H  px              0.0       0.0       1.1       0.1       0.3       0.1
13 H  py              0.0       0.0       1.0       0.1       0.1       0.0

                     12        13        14        15        16        17   
                  -0.51611  -0.49081  -0.45298  -0.42592  -0.42279  -0.39015
                   2.00000   2.00000   2.00000   2.00000   2.00000   2.00000
                  --------  --------  --------  --------  --------  --------
 0 C  s               0.0       0.0       0.2       0.0       1.2       0.3
 0 C  pz              0.0       4.1       6.4      14.8       4.6       3.7
 0 C  px              3.8      10.3       0.6       1.2       0.2       4.6
 0 C  py              0.1       0.6       1.3       6.5       7.0       9.5
 0 C  dz2             0.0       0.0       0.0       0.0       0.1       0.1
 0 C  dyz             0.0       0.0       0.1       0.0       0.1       0.0
 0 C  dxy             0.0       0.0       0.0       0.0       0.2       0.0
 1 C  s               0.0       0.6       1.5       0.1       0.2       0.2
 1 C  pz              0.0      10.1       2.1       1.9       0.7       7.5
 1 C  px              1.8       0.4       0.5      15.5       0.5       0.8
 1 C  py              4.2       0.9      12.3       0.1       0.0       1.1
 1 C  dz2             0.0       0.0       0.1       0.0       0.0       0.1
 1 C  dxz             0.0       0.0       0.0       0.0       0.1       0.0
 1 C  dyz             0.0       0.0       0.0       0.0       0.0       0.1
 1 C  dx2y2           0.0       0.1       0.4       0.0       0.1       0.0
 2 C  s               1.9       0.2       0.1       0.2       0.1       0.1
 2 C  pz              2.4       7.2       5.5       6.6      14.3       0.8
 2 C  px             12.6       1.5       0.0       2.4      12.1       1.0
 2 C  py              5.9       4.1       5.6       4.1       0.1       1.2
 2 C  dyz             0.1       0.0       0.1       0.0       0.0       0.0
 2 C  dx2y2           0.1       0.1       0.2       0.0       0.0       0.0
 2 C  dxy             0.1       0.1       0.1       0.0       0.0       0.0
 3 O  s               1.4       0.1       0.1       1.3       0.1       1.1
 3 O  pz              1.1       0.9       2.7       5.9       6.3       3.1
 3 O  px             18.3       0.3       2.1       2.7       3.4       2.1
 3 O  py             11.1      14.9       6.0       1.5       1.1       0.0
 3 O  dz2             0.0       0.0       0.3       0.1       0.5       0.0
 3 O  dxz             0.1       0.0       0.0       0.2       0.0       0.0
 3 O  dyz             0.1       0.1       0.6       0.2       0.5       0.0
 3 O  dx2y2           0.1       0.1       0.2       0.1       0.1       0.1
 3 O  dxy             0.2       0.4       0.3       0.1       0.9       0.0
 4 O  s               0.0       1.5       0.6       0.0       0.0       3.2
 4 O  pz              3.5       6.0      15.1       0.3       0.1       9.9
 4 O  px              0.2       0.1       1.5       6.6       0.5       0.4
 4 O  py              3.2       0.6       7.8       2.3       0.8      13.1
 4 O  dz2             0.1       0.0       0.2       0.0       0.0       0.0
 4 O  dyz             0.0       0.5       0.4       0.1       0.1       0.3
 4 O  dx2y2           0.0       0.1       0.3       0.1       0.2       0.0
 4 O  dxy             0.2       0.0       0.1       0.8       0.0       0.0
 5 O  s               0.7       0.2       0.0       0.1       0.2       2.3
 5 O  pz              0.1       0.1       0.4       7.8       0.2       6.6
 5 O  px              2.9       4.4       0.0       0.4       1.4      10.4
 5 O  py              2.1      13.2       4.9       0.8      15.7       0.3
 5 O  dz2             0.1       0.0       0.1       0.5       0.0       0.2
 5 O  dxz             0.0       0.1       0.1       0.1       0.0       0.2
 5 O  dyz             0.0       0.0       0.2       0.5       0.2       0.1
 5 O  dx2y2           0.3       0.1       0.0       0.1       0.2       0.2
 5 O  dxy             0.0       0.0       0.3       0.1       0.2       0.3
 6 H  s               0.0       1.5       2.6       6.2       3.4       3.5
 6 H  pz              0.0       0.0       0.1       0.2       0.1       0.1
 7 H  s               0.4       1.2       0.6       1.2       2.4       5.5
 7 H  px              0.0       0.0       0.0       0.1       0.1       0.1
 7 H  py              0.0       0.1       0.0       0.0       0.0       0.0
 8 H  s               0.0       1.1       3.5       1.2       0.1       3.1
 8 H  pz              0.0       0.0       0.1       0.0       0.0       0.1
 8 H  px              0.0       0.0       0.0       0.1       0.0       0.0
 8 H  py              0.0       0.0       0.1       0.0       0.0       0.0
 9 H  s               6.2       0.4       1.0       0.0       9.3       0.0
 9 H  pz              0.1       0.0       0.0       0.0       0.0       0.0
 9 H  px              0.2       0.0       0.1       0.0       0.2       0.0
10 H  s               3.0       2.6       1.4       3.2       4.9       0.4
10 H  pz              0.1       0.1       0.0       0.1       0.1       0.0
11 H  s               7.1       2.9       1.7       0.1       0.0       0.3
11 H  px              0.1       0.2       0.0       0.0       0.1       0.0
12 H  s               1.6       0.7       5.9       0.3       0.1       0.4
12 H  pz              0.1       0.0       0.2       0.0       0.0       0.0
12 H  py              0.0       0.0       0.0       0.0       0.0       0.3
13 H  s               1.3       4.1       0.9       0.3       3.6       0.2
13 H  px              0.0       0.2       0.1       0.1       0.3       0.0

                     18        19        20        21        22        23   
                  -0.37003  -0.34920  -0.30682  -0.30003  -0.26160  -0.25464
                   2.00000   2.00000   2.00000   2.00000   2.00000   2.00000
                  --------  --------  --------  --------  --------  --------
 0 C  s               0.6       0.6       0.5       0.2       0.0       0.3
 0 C  pz              0.2       6.0       2.3       0.8       0.1       0.9
 0 C  px              7.7       1.3       0.4       4.8       0.1       6.5
 0 C  py              5.0       0.7       1.7       0.2       0.0       0.6
 0 C  dz2             0.0       0.0       0.0       0.0       0.1       0.6
 0 C  dx2y2           0.0       0.1       0.1       0.2       0.0       0.1
 0 C  dxy             0.4       0.0       0.2       0.4       0.0       0.1
 1 C  s               0.8       1.1       0.1       0.1       0.2       0.0
 1 C  pz              6.6       2.6       9.7       1.9       1.3       0.1
 1 C  px              1.6       2.5       0.9       2.3       0.1       3.2
 1 C  py              1.0       1.1       3.0       1.1       0.6       0.3
 1 C  dz2             0.1       0.4       0.5       0.0       0.2       0.0
 1 C  dxz             0.0       0.0       0.0       0.0       0.0       0.1
 1 C  dyz             0.1       0.0       0.3       0.2       0.0       0.0
 1 C  dxy             0.0       0.1       0.0       0.2       0.2       0.8
 2 C  s               0.5       0.2       0.3       0.2       0.3       0.8
 2 C  pz              3.4       0.1       1.8       0.0       6.8       0.0
 2 C  px              0.7       6.1       4.6       0.2       0.1       6.1
 2 C  py              2.8       1.9       0.1       0.7       1.0       0.8
 2 C  dz2             0.2       0.0       0.1       0.1       0.7       0.1
 2 C  dyz             0.0       0.1       0.0       0.1       0.7       0.0
 2 C  dx2y2           0.0       0.1       0.0       0.2       0.1       0.0
 2 C  dxy             0.1       0.3       0.2       0.0       0.1       0.3
 3 O  s               1.5       2.3       0.8       0.2       0.1       0.4
 3 O  pz              0.1      10.0       0.3      13.6      42.2       3.7
 3 O  px             16.1      11.8       6.9       0.1       8.6       5.5
 3 O  py              8.0       2.5       0.6       0.4       2.7       0.2
 3 O  dz2             0.1       0.0       0.3       0.0       0.4       0.1
 3 O  dyz             0.1       0.1       0.0       0.1       0.6       0.0
 3 O  dx2y2           0.1       0.1       0.0       0.3       0.2       0.0
 3 O  dxy             0.0       0.8       0.7       0.0       0.0       0.6
 4 O  s               1.0       0.3       2.9       1.1       0.1       0.0
 4 O  pz              3.4       1.7      11.3       6.6       0.4       0.1
 4 O  px              3.0       0.8      14.3      14.6      10.2      23.3
 4 O  py             11.1       0.3       4.8       9.6       1.5       1.0
 4 O  dz2             0.0       0.2       1.0       0.2       0.4       0.0
 4 O  dyz             0.2       0.3       0.9       0.3       0.0       0.0
 4 O  dx2y2           0.1       0.2       0.0       0.1       0.0       0.0
 4 O  dxy             0.1       0.0       0.0       0.0       0.1       0.3
 5 O  s               0.1       2.4       0.0       3.3       0.0       1.0
 5 O  pz              0.8       0.0       7.2       1.4       1.7      21.5
 5 O  px              0.4      18.1       2.0      23.5       1.2       4.7
 5 O  py              2.7       5.5       0.1       0.1       0.1       0.7
 5 O  dz2             0.1       0.3       0.2       0.1       0.0       0.1
 5 O  dx2y2           0.1       0.0       0.1       0.3       0.0       0.2
 5 O  dxy             0.7       0.0       0.0       0.6       0.0       0.6
 6 H  s               0.2       2.4       0.9       0.4       0.5       3.6
 7 H  s               8.1       0.0       1.8       4.0       0.0       3.9
 8 H  s               3.0       4.7       8.7       0.7       1.4       0.2
 8 H  pz              0.0       0.1       0.1       0.0       0.0       0.0
 9 H  s               0.0       5.5       0.8       0.0       5.0       2.8
10 H  s               3.9       0.2       1.8       0.5       8.0       0.5
11 H  s               0.2       1.2       0.8       0.0       0.1       0.5
11 H  pz              0.0       0.1       0.0       0.2       0.8       0.1
11 H  px              0.1       0.0       0.0       0.0       0.2       0.0
11 H  py              0.3       0.2       0.1       0.0       0.0       0.0
12 H  s               0.1       0.7       2.1       0.6       0.1       0.0
12 H  px              0.0       0.0       0.2       0.3       0.2       0.4
12 H  py              0.2       0.0       0.2       0.2       0.0       0.0
13 H  s               1.1       0.4       0.2       2.1       0.1       0.8
13 H  pz              0.0       0.0       0.1       0.0       0.1       0.3
13 H  px              0.0       0.3       0.0       0.0       0.0       0.0
13 H  py              0.0       0.1       0.0       0.2       0.0       0.0

                     24        25        26        27        28        29   
                  -0.22245   0.02032   0.06046   0.10183   0.12064   0.12996
                   2.00000   0.00000   0.00000   0.00000   0.00000   0.00000
                  --------  --------  --------  --------  --------  --------
 0 C  s               0.3       0.2       2.3       8.9       0.3       0.1
 0 C  pz              3.7       0.3       2.8       6.9       2.8       3.4
 0 C  px              2.1       1.1       1.9       2.3       4.4       4.4
 0 C  py              1.0       6.2       2.6      11.7       0.2       3.1
 0 C  dz2             0.8       0.0       0.0       0.5       0.1       0.1
 0 C  dxz             0.1       0.1       0.1       0.0       0.8       0.1
 0 C  dyz             0.4       0.1       0.1       1.1       0.0       0.1
 0 C  dx2y2           0.0       0.5       0.1       0.5       0.1       0.5
 0 C  dxy             0.2       0.3       0.0       0.5       0.0       0.1
 1 C  s               0.5       0.1       1.4       0.6      10.2       1.0
 1 C  pz              0.5       0.4       0.8       0.2      19.5       1.2
 1 C  px              6.0       0.1       0.7       2.6       0.4       0.3
 1 C  py              0.3       9.4       1.6       0.1       3.8       0.9
 1 C  dz2             0.0       0.2       0.0       0.3       1.4       0.3
 1 C  dxz             0.0       0.0       0.1       0.5       0.0       0.2
 1 C  dyz             0.0       0.2       0.1       0.0       0.0       0.0
 1 C  dx2y2           0.2       1.2       0.0       0.1       0.1       0.3
 1 C  dxy             0.3       0.1       0.0       0.0       0.0       0.1
 2 C  s               0.1       1.2       8.6       0.8       1.4       4.5
 2 C  pz              0.2       0.1       4.3       2.8      10.0       5.3
 2 C  px              1.0       1.9       4.0       7.7       4.2      21.5
 2 C  py              0.2      19.7       1.2       1.6       0.0      12.4
 2 C  dz2             0.0       0.1       0.1       0.0       0.0       1.6
 2 C  dxz             0.0       0.0       0.0       0.3       1.4       0.2
 2 C  dyz             0.0       0.2       0.0       0.0       0.0       0.5
 2 C  dx2y2           0.0       1.6       0.1       0.0       0.0       0.1
 2 C  dxy             0.0       0.0       0.1       0.1       0.1       0.2
 3 O  s               0.1       7.7       2.2       0.1       0.3       2.0
 3 O  pz              0.3       1.1       0.2       0.1       0.1       0.4
 3 O  px              0.1       1.6       2.2       5.2       0.2       0.1
 3 O  py              0.0       0.8       2.1       0.0       0.2       4.8
 3 O  dz2             0.0       0.3       0.0       0.0       1.2       0.5
 3 O  dxz             0.0       0.5       0.0       2.3       2.9       1.0
 3 O  dyz             0.0       0.0       1.2       0.0       0.0       0.1
 3 O  dx2y2           0.0       0.4       0.9       0.0       0.1       4.7
 3 O  dxy             0.1       0.6       1.3       0.5       0.0       3.3
 4 O  s               0.0       4.7       3.0       0.1       0.2       0.1
 4 O  pz              0.0       1.8       4.6       0.2       2.5       0.0
 4 O  px             15.8       0.0       0.1       0.4       0.0       2.1
 4 O  py              0.1       2.5       0.9       1.0       0.5       0.0
 4 O  dz2             0.2       0.8       3.3       0.4       0.0       0.1
 4 O  dxz             0.1       0.0       0.3       1.7       0.2       1.7
 4 O  dyz             0.0       0.0       0.1       0.0       1.3       0.6
 4 O  dx2y2           0.0       0.0       0.4       0.4       0.7       0.1
 4 O  dxy             0.7       0.1       0.0       0.3       0.0       0.2
 5 O  s               0.0       1.9       0.3       5.7       0.0       0.7
 5 O  pz             40.3       0.3       0.2       0.3       0.2       0.2
 5 O  px              8.5       1.4       0.0       1.5       0.0       0.1
 5 O  py              6.6       0.2       0.8       1.2       0.3       0.7
 5 O  dz2             0.5       0.1       0.0       0.2       0.4       0.0
 5 O  dxz             0.0       0.0       0.1       0.2       0.5       0.4
 5 O  dyz             0.3       0.1       0.5       1.6       0.5       0.4
 5 O  dx2y2           0.0       0.1       0.2       0.1       0.1       0.2
 5 O  dxy             0.3       0.2       0.2       0.5       0.2       0.0
 6 H  s               5.2       0.0       0.8       6.3       0.1       0.7
 6 H  pz              0.0       0.0       0.3       1.8       0.1       0.3
 6 H  px              0.0       0.0       0.2       0.0       0.4       0.2
 6 H  py              0.0       0.2       0.1       1.4       0.0       0.1
 7 H  s               0.1       0.4       0.3       2.1       0.7       0.3
 7 H  pz              0.0       0.0       0.0       1.0       0.2       0.0
 7 H  px              0.0       0.2       0.0       0.7       0.0       0.5
 7 H  py              0.0       0.1       0.2       0.0       0.1       0.0
 8 H  s               0.2       0.1       0.3       0.6       9.0       1.1
 8 H  pz              0.0       0.0       0.0       0.0       4.7       0.1
 8 H  px              0.1       0.0       0.1       0.4       0.0       0.2
 8 H  py              0.0       0.3       0.0       0.0       0.1       0.1
 9 H  s               0.2       0.3       1.5       1.1       3.9       2.9
 9 H  pz              0.0       0.0       0.3       0.1       1.0       0.4
 9 H  px              0.0       0.2       0.4       0.0       0.3       1.9
 9 H  py              0.0       0.4       0.0       0.1       0.2       1.1
10 H  s               0.0       0.0       3.0       0.7       0.0       1.6
10 H  pz              0.0       0.0       1.2       0.2       0.1       0.1
10 H  px              0.0       0.0       0.0       0.3       0.8       0.3
10 H  py              0.0       0.6       0.0       0.1       0.0       0.8
11 H  s               0.1      10.7      11.9       2.6       0.1       0.1
11 H  pz              0.0       0.1       0.3       0.1       0.0       0.0
11 H  px              0.0       1.6       1.8       0.4       0.0       0.1
11 H  py              0.0       1.1       0.8       0.2       0.0       0.2
12 H  s               0.0       6.5      14.6       0.8       3.2       0.1
12 H  pz              0.0       1.7       3.5       0.2       0.6       0.0
12 H  px              0.3       0.0       0.0       0.0       0.0       0.0
12 H  py              0.0       0.2       0.1       0.0       0.1       0.0
13 H  s               0.0       1.8       0.1       3.5       0.0       0.0
13 H  pz              0.7       0.0       0.0       0.0       0.0       0.0
13 H  px              0.1       0.3       0.0       0.4       0.0       0.0
13 H  py              0.2       0.4       0.0       0.9       0.0       0.0

                     30        31        32        33        34        35   
                   0.13691   0.14391   0.15589   0.16965   0.17276   0.19417
                   0.00000   0.00000   0.00000   0.00000   0.00000   0.00000
                  --------  --------  --------  --------  --------  --------
 0 C  s               0.1      11.0       3.0       0.6       2.1       1.5
 0 C  pz              1.8       3.4       1.6       3.3      24.5       0.3
 0 C  px              1.5      12.7       0.2       4.1       4.9       0.8
 0 C  py              0.7      15.1       1.3       2.2       6.0       1.3
 0 C  dz2             0.0       0.3       0.8       0.3       0.0       0.0
 0 C  dxz             0.0       0.0       0.0       0.1       0.3       0.1
 0 C  dyz             0.1       0.2       0.0       0.1       0.7       0.0
 0 C  dx2y2           0.1       0.0       0.5       0.0       0.0       0.0
 0 C  dxy             0.3       0.3       0.1       0.0       1.8       0.0
 1 C  s               0.8       0.2       0.6       1.4       1.4      10.8
 1 C  pz              0.9       0.5       1.0       9.7       3.3       0.7
 1 C  px              3.8       1.9       5.1       2.5       1.3       2.5
 1 C  py              4.3       2.8       2.3       0.2       1.7      11.6
 1 C  dz2             0.3       0.1       0.1       0.3       0.3       0.4
 1 C  dxz             0.6       0.0       0.9       0.3       0.1       0.0
 1 C  dyz             0.3       0.0       0.0       0.3       0.4       0.4
 1 C  dx2y2           0.2       1.0       0.4       0.1       0.0       0.8
 1 C  dxy             0.1       0.1       0.3       0.1       0.1       0.0
 2 C  s              10.3       0.6       1.6       0.3       0.3       1.8
 2 C  pz              6.6       5.4       5.0      16.9       0.5       1.7
 2 C  px              1.9       0.1       0.6      11.0       1.2       2.4
 2 C  py              1.0       3.0       5.6       2.2       0.0       5.9
 2 C  dz2             0.8       0.2       0.0       0.0       0.1       0.3
 2 C  dxz             0.0       0.0       0.0       0.7       0.0       0.0
 2 C  dyz             0.0       0.1       0.4       0.0       0.0       0.3
 2 C  dx2y2           0.0       0.9       0.4       0.3       0.0       0.0
 2 C  dxy             0.0       0.0       0.4       0.9       0.1       0.6
 3 O  s               1.2       0.0       0.1       0.1       0.0       0.5
 3 O  pz              0.3       0.1       0.6       0.2       1.2       3.7
 3 O  px              0.4       0.1       3.2       0.3       0.6       0.2
 3 O  py              1.5       3.3       2.8       0.5       0.1       0.0
 3 O  dz2             2.7       0.1       0.4       0.6       0.1       0.3
 3 O  dxz             0.6       0.0       0.1       4.7       0.3       1.2
 3 O  dyz             1.4       0.9       0.7       1.5       0.2       1.2
 3 O  dx2y2           0.1       0.1       0.3       0.2       0.5       1.6
 3 O  dxy             0.1       0.2       4.6       1.6       1.4       2.3
 4 O  s               2.5       0.1       0.2       0.1       0.3       2.9
 4 O  pz              0.8       0.2       2.9       0.0       0.1       5.2
 4 O  px              0.5       1.6       0.4       0.1       0.2       0.1
 4 O  py              0.8       1.1       0.7       0.5       1.8       6.3
 4 O  dz2             0.9       0.1       2.1       0.1       0.7       3.0
 4 O  dxz             0.9       0.6       2.6       0.1       0.6       0.1
 4 O  dyz             0.1       0.1       0.5       1.5       1.8       1.9
 4 O  dx2y2           1.0       0.3       0.4       0.3       0.7       3.5
 4 O  dxy             0.1       0.0       0.0       0.2       0.7       0.1
 5 O  s               1.4       1.2       1.9       0.2       0.0       0.1
 5 O  pz              0.1       0.3       0.4       0.8       0.5       2.2
 5 O  px              0.4       0.7       1.1       0.2       0.1       0.9
 5 O  py              1.1       0.2       0.8       0.9       4.6       0.6
 5 O  dz2             0.0       0.1       1.1       0.0       0.0       0.0
 5 O  dxz             0.2       0.3       0.0       0.0       6.6       1.9
 5 O  dyz             0.0       0.4       1.8       0.1       0.4       0.1
 5 O  dx2y2           0.1       4.0       0.0       0.5       0.0       0.0
 5 O  dxy             1.5       0.1       0.8       0.8       1.6       0.7
 6 H  s               0.1       0.5       7.3       0.8       3.1       0.3
 6 H  pz              0.1       0.4       2.2       0.2       2.2       0.1
 6 H  px              0.1       0.0       0.0       0.1       0.6       0.0
 6 H  py              0.0       0.1       0.0       0.0       0.5       0.3
 7 H  s               1.4       7.2       0.2       1.5       7.0       1.3
 7 H  pz              0.0       0.0       0.2       0.0       0.8       0.1
 7 H  px              0.0       2.1       0.1       0.4       0.4       0.2
 7 H  py              0.1       2.2       0.2       0.4       0.7       0.1
 8 H  s               0.3       0.6       0.0       3.9       1.8       2.2
 8 H  pz              0.1       0.1       0.0       1.2       0.2       1.2
 8 H  px              0.5       0.0       0.8       0.1       0.0       0.2
 8 H  py              0.3       0.1       0.1       0.1       0.3       1.7
 9 H  s               1.8       1.2       0.5       8.6       0.1       1.2
 9 H  pz              0.6       0.0       0.2       1.0       0.0       0.0
 9 H  px              0.5       0.3       0.6       1.7       0.2       0.7
 9 H  py              0.2       0.1       0.1       0.4       0.0       0.1
10 H  s              12.0       2.2       0.0       1.5       0.0       0.5
10 H  pz              4.8       0.9       0.0       0.8       0.0       0.0
10 H  px              0.0       0.0       0.0       0.9       0.0       0.0
10 H  py              0.0       0.2       0.3       0.0       0.0       0.6
11 H  s               6.5       0.9       7.8       0.2       0.6       1.5
11 H  pz              0.0       0.1       0.2       0.1       0.0       0.0
11 H  px              0.9       0.2       1.1       0.0       0.0       0.0
11 H  py              0.4       0.0       0.7       0.1       0.2       0.3
12 H  s               5.3       0.1       6.6       0.4       1.1       1.5
12 H  pz              1.3       0.0       1.6       0.1       0.3       0.5
12 H  py              0.2       0.0       0.1       0.0       0.0       0.4
13 H  s               3.9       2.8       5.0       1.2       2.9       0.1
13 H  px              0.6       0.1       0.5       0.3       0.3       0.0
13 H  py              0.7       0.9       0.8       0.1       0.3       0.0

                     36        37        38        39        40        41   
                   0.22582   0.23277   0.24277   0.25970   0.27039   0.31407
                   0.00000   0.00000   0.00000   0.00000   0.00000   0.00000
                  --------  --------  --------  --------  --------  --------
 0 C  s               0.8       1.3       3.7       0.5       0.7       1.1
 0 C  pz              3.0       0.9      16.8       1.4      11.1       2.2
 0 C  px             16.7      12.2       3.1       0.5       2.8       2.1
 0 C  py              0.4       5.4       0.1       2.8       4.0       8.9
 0 C  dz2             0.3       0.0       0.6       0.0       1.4       0.0
 0 C  dxz             0.2       1.0       0.1       0.3       0.0       0.9
 0 C  dyz             0.1       0.2       0.0       0.1       0.1       0.0
 0 C  dx2y2           0.0       0.4       0.1       0.2       0.4       0.0
 0 C  dxy             0.0       0.0       0.8       0.1       0.3       0.0
 1 C  s               0.1       1.9       1.1       0.3       0.3       0.0
 1 C  pz              2.9      12.8       3.6       9.4       0.4       1.7
 1 C  px             10.2       3.3       9.3       0.9       2.8       9.2
 1 C  py              1.6       2.4       1.0       9.8       1.2       1.6
 1 C  dz2             0.0       0.1       0.7       1.1       0.9       0.2
 1 C  dxz             0.6       0.0       0.3       0.0       0.0       1.0
 1 C  dx2y2           0.4       0.0       0.4       0.0       0.6       0.0
 1 C  dxy             0.1       0.1       1.5       0.2       0.1       0.0
 2 C  s               0.7       0.5       0.5       2.5       1.3       0.5
 2 C  pz              8.2       2.0       7.4       3.5      11.4       0.0
 2 C  px              6.3       0.0       3.7       4.2      10.0       1.3
 2 C  py              3.8       1.0       1.7       7.1       0.0      21.4
 2 C  dz2             0.7       0.4       0.2       0.1       1.1       0.0
 2 C  dxz             0.1       0.0       0.8       0.3       0.2       0.2
 2 C  dyz             0.1       0.0       0.1       0.1       0.1       0.0
 2 C  dx2y2           1.3       0.0       0.5       0.1       0.4       0.0
 2 C  dxy             0.4       0.0       0.1       0.2       0.2       0.2
 3 O  s               0.0       0.0       0.6       1.3       0.1       0.5
 3 O  pz              0.5       0.1       0.3       1.5       9.2       0.6
 3 O  px              0.0       2.1       0.4       5.0       0.9       0.2
 3 O  py              5.1       2.0       1.2       1.6       0.4       2.3
[...]
 3 O  s               0.0      23.7       0.9       0.2       5.2       0.7
 3 O  pz              0.0       1.9       0.2       0.1       0.6       0.1
 3 O  px              0.3       1.7       0.1       0.3       7.7       1.3
 3 O  py              0.0      14.9       0.7       0.0       9.4       2.0
 3 O  dz2             0.1       8.3       0.3       0.1       2.1       0.2
 3 O  dxz             0.1       2.3       0.1       0.0       4.1       0.6
 3 O  dyz             0.2       2.6       0.2       0.0       3.8       0.8
 3 O  dx2y2           0.0       8.8       0.5       0.1       6.2       1.3
 3 O  dxy             0.2       0.3       0.1       0.1      17.4       2.6
 4 O  s               0.0       1.5       6.9      19.8       1.0       4.8
 4 O  pz              0.1       0.0       0.0       0.2       2.2      13.9
 4 O  px              0.0       0.0       0.1       0.4       0.0       0.0
 4 O  py              0.0       0.4       3.8      13.9       0.4       3.4
 4 O  dz2             0.0       0.1       0.0       0.0       5.5      32.3
 4 O  dxz             0.1       0.0       0.0       0.0       0.0       0.1
 4 O  dyz             0.1       0.1       0.8       2.7       0.2       0.9
 4 O  dx2y2           0.1       0.3       3.4      13.4       0.1       0.9
 4 O  dxy             0.9       0.0       0.6       1.4       0.0       0.2
 5 O  s               0.1       0.9      20.0       5.1       0.2       0.1
 5 O  pz              0.1       0.0       2.4       0.9       0.0       0.0
 5 O  px              0.8       0.1       3.9       1.7       0.1       0.1
 5 O  py              0.0       0.2       8.2       2.3       0.1       0.0
 5 O  dz2             0.0       0.2       5.1       1.7       0.0       0.0
 5 O  dxz             0.1       0.0       1.4       0.6       0.0       0.0
 5 O  dyz             0.0       0.1       6.3       3.0       0.0       0.0
 5 O  dx2y2           0.9       0.2       4.3       0.9       0.0       0.0
 5 O  dxy             0.0       0.0       0.5       0.1       0.2       0.0
 6 H  s               4.5       0.0       0.2       0.2       0.0       0.0
 6 H  pz              9.4       0.0       0.3       0.3       0.0       0.0
 6 H  py              0.1       0.0       0.6       0.0       0.0       0.0
 7 H  s               6.0       0.0       0.4       0.0       0.0       0.0
 7 H  pz              0.1       0.0       0.4       0.0       0.0       0.0
 7 H  px              6.5       0.0       0.6       0.1       0.0       0.0
 7 H  py              6.6       0.0       0.0       0.0       0.0       0.0
 8 H  s               0.6       0.1       0.3       0.3       0.1       0.2
 8 H  pz              1.4       0.1       0.4       0.4       0.1       0.3
 8 H  py              0.1       0.2       0.3       0.6       0.0       0.0
 9 H  s               1.9       0.7       0.0       0.0       0.0       0.0
 9 H  pz              0.1       0.5       0.0       0.0       0.0       0.0
 9 H  px              3.7       0.8       0.0       0.0       0.0       0.0
 9 H  py              0.4       0.1       0.0       0.0       0.0       0.0
10 H  s               3.4       0.4       0.0       0.0       0.0       0.0
10 H  pz              8.0       0.7       0.1       0.0       0.0       0.0
10 H  px              0.2       0.0       0.0       0.0       0.0       0.0
10 H  py              0.1       0.4       0.0       0.0       0.0       0.0
11 H  s               0.0       0.8       0.0       0.1      11.9       1.8
11 H  pz              0.1       0.1       0.0       0.0       1.1       0.2
11 H  px              0.1       0.6       0.1       0.1       8.5       1.2
11 H  py              0.0       0.9       0.0       0.0       3.9       0.6
12 H  s               0.0       0.0       0.1       0.9       2.0      11.3
12 H  pz              0.0       0.0       0.2       1.2       2.3      13.1
12 H  py              0.0       0.1       0.0       0.1       0.1       0.3
13 H  s               0.1       0.1       0.4       0.3       0.1       0.0
13 H  px              0.1       0.0       0.4       0.0       0.0       0.0
13 H  py              0.3       0.0       0.3       0.3       0.0       0.0

                    162       163       164       165       166       167   
                   4.60768  21.97519  22.07342  22.10890  43.57505  43.64893
                   0.00000   0.00000   0.00000   0.00000   0.00000   0.00000
                  --------  --------  --------  --------  --------  --------
 0 C  s               0.1      41.0      26.4      32.2       0.0       0.0
 0 C  px              0.1       0.0       0.0       0.0       0.0       0.0
 0 C  py              1.1       0.0       0.0       0.0       0.0       0.0
 0 C  dyz             0.5       0.0       0.0       0.0       0.0       0.0
 0 C  dx2y2           0.5       0.0       0.0       0.0       0.0       0.0
 0 C  dxy             0.8       0.0       0.0       0.0       0.0       0.0
 1 C  s               0.0       0.4      59.6      39.7       0.0       0.1
 2 C  s               0.0      58.2      13.6      27.8       0.0       0.0
 3 O  s               0.1       0.1       0.0       0.0      80.2       0.9
 3 O  py              0.2       0.0       0.0       0.0       0.0       0.0
 3 O  dz2             0.1       0.0       0.0       0.0       0.0       0.0
 3 O  dx2y2           0.2       0.0       0.0       0.0       0.0       0.0
 4 O  s               0.0       0.0       0.0       0.0       0.2      98.2
 5 O  s               7.1       0.0       0.0       0.0      19.4       0.8
 5 O  pz              0.2       0.0       0.0       0.0       0.0       0.0
 5 O  px              6.6       0.0       0.0       0.0       0.0       0.0
 5 O  py             13.0       0.0       0.0       0.0       0.0       0.0
 5 O  dz2             6.6       0.0       0.0       0.0       0.0       0.0
 5 O  dyz             0.9       0.0       0.0       0.0       0.0       0.0
 5 O  dx2y2           2.6       0.0       0.0       0.0       0.0       0.0
 5 O  dxy            29.2       0.0       0.0       0.0       0.0       0.0
 7 H  s               0.2       0.0       0.0       0.0       0.0       0.0
 7 H  px              0.2       0.0       0.0       0.0       0.0       0.0
11 H  s               0.1       0.0       0.0       0.0       0.0       0.0
11 H  px              0.1       0.0       0.0       0.0       0.0       0.0
13 H  s              13.3       0.0       0.0       0.0       0.0       0.0
13 H  px              9.4       0.0       0.0       0.0       0.0       0.0
13 H  py              6.2       0.0       0.0       0.0       0.0       0.0

                    168   
                  43.72673
                   0.00000
                  --------
 3 O  s              18.7
 4 O  s               1.5
 5 O  s              79.7


                      *****************************
                      * MAYER POPULATION ANALYSIS *
                      *****************************

  NA   - Mulliken gross atomic population
  ZA   - Total nuclear charge
  QA   - Mulliken gross atomic charge
  VA   - Mayer's total valence
  BVA  - Mayer's bonded valence
  FA   - Mayer's free valence

  ATOM       NA         ZA         QA         VA         BVA        FA
  0 C      6.1813     6.0000    -0.1813     3.8397     3.8397    -0.0000
  1 C      6.0002     6.0000    -0.0002     3.7484     3.7484    -0.0000
  2 C      6.1542     6.0000    -0.1542     3.8105     3.8105     0.0000
  3 O      8.4304     8.0000    -0.4304     1.8521     1.8521    -0.0000
  4 O      8.4088     8.0000    -0.4088     1.8530     1.8530    -0.0000
  5 O      8.4232     8.0000    -0.4232     1.8081     1.8081     0.0000
  6 H      0.8783     1.0000     0.1217     0.9583     0.9583    -0.0000
  7 H      0.8491     1.0000     0.1509     0.9505     0.9505     0.0000
  8 H      0.8483     1.0000     0.1517     0.9611     0.9611    -0.0000
  9 H      0.8602     1.0000     0.1398     0.9508     0.9508     0.0000
 10 H      0.8807     1.0000     0.1193     0.9592     0.9592     0.0000
 11 H      0.6970     1.0000     0.3030     0.9087     0.9087     0.0000
 12 H      0.7026     1.0000     0.2974     0.9078     0.9078    -0.0000
 13 H      0.6856     1.0000     0.3144     0.9181     0.9181     0.0000

  Mayer bond orders larger than 0.100000
B(  0-C ,  1-C ) :   0.9429 B(  0-C ,  5-O ) :   0.9737 B(  0-C ,  6-H ) :   0.9655 
B(  0-C ,  7-H ) :   0.9703 B(  1-C ,  2-C ) :   0.9698 B(  1-C ,  4-O ) :   0.9540 
B(  1-C ,  8-H ) :   0.9431 B(  2-C ,  3-O ) :   0.9378 B(  2-C ,  9-H ) :   0.9567 
B(  2-C , 10-H ) :   0.9541 B(  3-O , 11-H ) :   0.8933 B(  4-O , 12-H ) :   0.8908 
B(  5-O , 13-H ) :   0.8510 

-------
TIMINGS
-------

Total SCF time: 0 days 0 hours 0 min 18 sec 

Total time                  ....      18.507 sec
Sum of individual times     ....      17.948 sec  ( 97.0%)

SCF preparation             ....       0.168 sec  (  0.9%)
Fock matrix formation       ....      16.831 sec  ( 90.9%)
  Startup                   ....       0.053 sec  (  0.3% of F)
  Split-RI-J                ....       2.663 sec  ( 15.8% of F)
  XC integration            ....      13.526 sec  ( 80.4% of F)
    XC Preparation          ....       0.000 sec  (  0.0% of XC)
    Basis function eval.    ....       2.340 sec  ( 17.3% of XC)
    Density eval.           ....       3.768 sec  ( 27.9% of XC)
    XC-Functional eval.     ....       1.890 sec  ( 14.0% of XC)
    XC-Potential eval.      ....       4.594 sec  ( 34.0% of XC)
Diagonalization             ....       0.000 sec  (  0.0%)
Density matrix formation    ....       0.248 sec  (  1.3%)
Total Energy calculation    ....       0.034 sec  (  0.2%)
Population analysis         ....       0.092 sec  (  0.5%)
Orbital Transformation      ....       0.064 sec  (  0.3%)
Orbital Orthonormalization  ....       0.000 sec  (  0.0%)
DIIS solution               ....       0.468 sec  (  2.5%)
  MO trafo                  ....       0.000 sec  (  0.0 % of DIIS)
  Orb grad                  ....       0.000 sec  (  0.0 % of DIIS)
  Energy W gradient         ....       0.000 sec  (  0.0 % of DIIS)
  DIIS error                ....       0.007 sec  (  1.5 % of DIIS)
  DIIS work                 ....       0.408 sec  ( 87.1 % of DIIS)
  Form Q                    ....       0.000 sec  (  0.0 % of DIIS)
  Form QpQm                 ....       0.000 sec  (  0.0 % of DIIS)
  Exp/Cayley                ....       0.000 sec  (  0.0 % of DIIS)
  Orb update                ....       0.000 sec  (  0.0 % of DIIS)
  Wake-sleep                ....       0.023 sec  (  5.0 % of DIIS)
SOSCF solution              ....       0.044 sec  (  0.2%)
  MO trafo                  ....       0.034 sec  ( 77.6 % of SOSCF)
  Orb grad                  ....       0.001 sec  (  1.4 % of SOSCF)
  Rot update                ....       0.000 sec  (  0.1 % of SOSCF)
  Step                      ....       0.009 sec  ( 20.9 % of SOSCF)
Finished LeanSCF after  18.6 sec

Maximum memory used throughout the entire LEANSCF-calculation: 17.5 MB


-------------------------------------------------------------------------------
                          DFT DISPERSION CORRECTION                            
                                                                               
                                DFTD4 V3.4.0                                   
-------------------------------------------------------------------------------
The R2SCAN3C composite method is recognized
Using three-body term ABC
Active option DFTDOPT                   ...         5   

-------------------------   ----------------
Dispersion correction           -0.003064825
-------------------------   ----------------

------------------   -----------------
gCP correction             0.010892788
------------------   -----------------

-------------------------   --------------------
FINAL SINGLE POINT ENERGY      -344.721835742809
-------------------------   --------------------


------------------------------------------------------------------------------
                              ORCA PROPERTY CALCULATIONS
------------------------------------------------------------------------------

GBWName                                 ... sp_gas.gbw
Number of atoms                         ...     14
Number of basis functions               ...    169
Max core memory                         ...   1024 MB

Electric properties:
Dipole moment                           ... YES
Quadrupole moment                       ...  NO
Static polarizability (Dipole/Dipole)   ...  NO
Static polarizability (Dipole/Quad.)    ...  NO
Static polarizability (Quad./Quad.)     ...  NO
Static polarizability (Velocity)        ...  NO

Atomic electric properties:
Dipole moment                           ...  NO
Quadrupole moment                       ...  NO
Static polarizability                   ...  NO

Choice of electric origin               ... Center of mass
Position of electric origin             ...     0.000005     0.000008    -0.000008

General magnetic properties:
Magnetizability                         ...  NO

EPR properties:
g-Tensor (aka g-matrix)                 ...  NO
Zero-Field splitting spin-orbit         ...  NO
Zero-field splitting spin-spin          ...  NO
Hyperfine couplings                     ...  NO (   0 nuclei)
Quadrupole couplings                    ...  NO (   0 nuclei)
Contact density                         ...  NO (   0 nuclei)

NMR properties:
Chemical shifts                         ...  NO (   0 nuclei)
Spin-rotation constants                 ...  NO (   0 nuclei)
Spin-spin couplings                     ...  NO (   0 nuclei,    0 pairs)

Choice of magnetic origin               ... GIAO
Position of magnetic origin             ...     0.000000     0.000000     0.000000

Properties with geometric perturbations:
SCF Hessian                             ...  NO
IR spectrum                             ...  NO
VCD spectrum                            ...  NO
X-ray spectroscopy properties:
SCF XES/XAS/RIXS spectra                ...  NO


-------------
DIPOLE MOMENT
-------------

Method             : SCF
Type of density    : Electron Density
Multiplicity       :   1
Irrep              :   0
Energy             :  -344.7296637056989539 Eh
Relativity type    : 
Basis              : AO
                                X                 Y                 Z
Electronic contribution:     -0.461195331      -0.367175385       1.233033514
Nuclear contribution   :      1.588127141       0.183875199      -2.100589479
                        -----------------------------------------
Total Dipole Moment    :      1.126931809      -0.183300186      -0.867555965
                        -----------------------------------------
Magnitude (a.u.)       :      1.433955234
Magnitude (Debye)      :      3.644824547



--------------------
Rotational spectrum 
--------------------
 
Rotational constants in cm-1:             0.129388             0.112026             0.064876 
Rotational constants in MHz :          3878.947110          3358.461234          1944.927385 

Dipole components along the rotational axes: 
x,y,z [a.u.] :     0.085902     1.179414    -0.811068 
x,y,z [Debye]:     0.218345     2.997832    -2.061570 

 

Dipole moment calculation done in   0.0 sec 

Maximum memory used throughout the entire PROP-calculation: 9.9 MB

--------------------------------
SUGGESTED CITATIONS FOR THIS RUN
--------------------------------

Below you find a list of papers that are relevant to this ORCA run
We neither can nor want to force you to cite these papers, but we appreciate if you do
You receive ORCA, which is the product of decades of hard work by many enthusiastic individuals, for free
The only thing we kindly ask in return is that you cite our papers,
We deeply appreciate it, if you show your appreciation for ORCA by not just citing the generic ORCA reference.

Please note that relegating all ORCA citations to the supporting information does *not* help us.
SI sections are not indexed - citations you put there will not count into any citation statistics
But we need these citations in order to attract the funding resources that allow us to do what we are doing

Therefore, if you are a happy ORCA user, please consider citing a few of the papers listed below in the main body of your paper

In addition to the list printed below, the program has created the file sp_gas.bibtex that contains the list in bibtex format
You can import this file easily into all common literature databanks and citation aid programs


List of essential papers. We consider these as the minimum necessary citations

  1. Neese,F.
     Software update: the ORCA program system, version 5.0
     WIRES Comput. Molec. Sci., 2022 12(1)e1606
     doi.org/10.1002/wcms.1606
  2. Grimme,S.; Hansen,A.; Ehlert,S.; Mewes,J.
     r2SCAN-3c: A 'Swiss army knife' composite electronic-structure method
     J. Chem. Phys., 2021 154 064103
     doi.org/10.1063/5.0040021

List of papers to cite with high priority. The work reported in these papers was absolutely
necessary for this run to complete.
Our perspective: the developers of density functionals and basis sets usually get cited in chemistry papers
Good! But without the algorithms to do something with them, the functionals or basis sets would not do anything.
Hence, in our opinion, the algorithm design and method developments papers are equally worthy of getting cited

  1. Neese,F.
     An improvement of the resolution of the identity approximation for the formation of the Coulomb matrix
     J. Comp. Chem., 2003 24(14)1740-1747
     doi.org/10.1002/jcc.10318
  2. Neese,F.
     The SHARK Integral Generation and Digestion System
     J. Comp. Chem., 2022  1-16
     doi.org/10.1002/jcc.26942
  3. Lehtola,S.; Steigemann,C.; Oliveira,M.; Marques,M.
     Recent developments in Libxc - A comprehensive library of functionals for density functional theory
     Software X, 2018 7 
     doi.org/10.1016/j.softx.2017.11.002
  4. Caldeweyher,E.; Bannwarth,C.; Grimme,S.
     Extension of the D3 dispersion coefficient model
     J. Chem. Phys., 2017 147 034112-XXXX
     doi.org/10.1063/1.4993215
  5. Caldeweyher,E.; Ehlert,S.; Hansen,A.; Neugebauer,H.; Spicher,S.; Bannwarth,C.; Grimme,S.
     A generally applicable atomic-charge dependent London dispersion correction
     J. Chem. Phys., 2019 150 154122-XXXX
     doi.org/10.1063/1.5090222
  6. Caldeweyher,E.; Mewes,J.; Ehlert,S.; Grimme,S.
     Extension and evaluation of the D4 London-dispersion model for periodic systems
     Phys. Chem. Chem. Phys., 2020 22(16)8499-8512
     doi.org/10.1039/D0CP00502A

List of suggested additional citations. These are papers that are important in the 'surrounding' of 
of this run, or papers that preceded the highly important papers. If you like your results we are grateful for a citation.

  1. Neese,F.
     The ORCA program system
     WIRES Comput. Molec. Sci., 2012 2(1)73-78
     doi.org/10.1002/wcms.81
  2. Neese,F.
     Software update: the ORCA program system, version 4.0
     WIRES Comput. Molec. Sci., 2018 8(1)1-6
     doi.org/10.1002/wcms.1327
  3. Neese,F.; Wennmohs,F.; Becker,U.; Riplinger,C.
     The ORCA quantum chemistry program package
     J. Chem. Phys., 2020 152 Art. No. L224108
     doi.org/10.1063/5.0004608

List of optional additional citations

  1. Neese,F.
     Approximate second-order SCF convergence for spin unrestricted wavefunctions
     Chem. Phys. Lett., 2000 325(1-3)93-98
     doi.org/10.1016/s0009-2614(00)00662-x

Timings for individual modules:

Sum of individual times          ...       19.921 sec (=   0.332 min)
Startup calculation              ...        0.954 sec (=   0.016 min)   4.8 %
SCF iterations                   ...       18.857 sec (=   0.314 min)  94.7 %
Property calculations            ...        0.110 sec (=   0.002 min)   0.6 %
                             ****ORCA TERMINATED NORMALLY****
TOTAL RUN TIME: 0 days 0 hours 0 minutes 20 seconds 752 msec
