      -----------------------------------------------------------      
     |                   =====================                   |     
     |                           x T B                           |     
     |                   =====================                   |     
     |                         S. Grimme                         |     
     |          Mulliken Center for Theoretical Chemistry        |     
     |                    University of Bonn                     |     
      -----------------------------------------------------------      

   * xtb version 6.7.1 (edcfbbe) compiled by 'albert@albert-system' on 2024-07-22

   xtb is free software: you can redistribute it and/or modify it under
   the terms of the GNU Lesser General Public License as published by
   the Free Software Foundation, either version 3 of the License, or
   (at your option) any later version.
   
   xtb is distributed in the hope that it will be useful,
   but WITHOUT ANY WARRANTY; without even the implied warranty of
   MERCHANTABILITY or FITNESS FOR A PARTICULAR PURPOSE.  See the
   GNU Lesser General Public License for more details.
   
   Cite this work as:
   * C. Bannwarth, E. Caldeweyher, S. Ehlert, A. Hansen, P. Pracht,
     J. Seibert, S. Spicher, S. Grimme, WIREs Comput. Mol. Sci., 2020, 11,
     e01493. DOI: 10.1002/wcms.1493
   
   for GFN2-xTB:
   * C. Bannwarth, S. Ehlert and S. Grimme., J. Chem. Theory Comput., 2019,
     15, 1652-1671. DOI: 10.1021/acs.jctc.8b01176
   for GFN1-xTB:
   * S. Grimme, C. Bannwarth, P. Shushkov, J. Chem. Theory Comput., 2017,
     13, 1989-2009. DOI: 10.1021/acs.jctc.7b00118
   for GFN0-xTB:
   * P. Pracht, E. Caldeweyher, S. Ehlert, S. Grimme, ChemRxiv, 2019, preprint.
     DOI: 10.26434/chemrxiv.8326202.v1
   for GFN-FF:
   * S. Spicher and S. Grimme, Angew. Chem. Int. Ed., 2020, 59, 15665-15673.
     DOI: 10.1002/anie.202004239
   
   for ALPB and GBSA implicit solvation:
   * S. Ehlert, M. Stahn, S. Spicher, S. Grimme, J. Chem. Theory Comput.,
     2021, 17, 4250-4261. DOI: 10.1021/acs.jctc.1c00471
   
   for ddCOSMO and CPCM-X implicit solvation:
   * M. Stahn, S. Ehlert, S. Grimme, J. Phys. Chem. A,
     2023, XX, XXXX-XXXX. DOI: 10.1021/acs.jpca.3c04382
   
   for DFT-D4:
   * E. Caldeweyher, C. Bannwarth and S. Grimme, J. Chem. Phys., 2017,
     147, 034112. DOI: 10.1063/1.4993215
   * E. Caldeweyher, S. Ehlert, A. Hansen, H. Neugebauer, S. Spicher,
     C. Bannwarth and S. Grimme, J. Chem. Phys., 2019, 150, 154122.
     DOI: 10.1063/1.5090222
   * E. Caldeweyher, J.-M. Mewes, S. Ehlert and S. Grimme, Phys. Chem. Chem. Phys.
     2020, 22, 8499-8512. DOI: 10.1039/D0CP00502A
   
   for sTDA-xTB:
   * S. Grimme and C. Bannwarth, J. Chem. Phys., 2016, 145, 054103.
     DOI: 10.1063/1.4959605
   
   in the mass-spec context:
   * V. Asgeirsson, C. Bauer and S. Grimme, Chem. Sci., 2017, 8, 4879.
     DOI: 10.1039/c7sc00601b
   * J. Koopman and S. Grimme, ACS Omega 2019, 4, 12, 15120-15133.
     DOI: 10.1021/acsomega.9b02011
   
   for metadynamics refer to:
   * S. Grimme, J. Chem. Theory Comput., 2019, 155, 2847-2862
     DOI: 10.1021/acs.jctc.9b00143
   
   for SPH calculations refer to:
   * S. Spicher and S. Grimme, J. Chem. Theory Comput., 2021, 17, 1701-1714
     DOI: 10.1021/acs.jctc.0c01306
   
   for ONIOM refer to:
   * C. Plett, A. Katbashev, S. Ehlert, S. Grimme, M. Bursch,
     Phys. Chem. Chem. Phys., 2023, 25, 17860-17868. DOI: 10.1039/D3CP02178E
   
   for DIPRO refer to:
   * J. Kohn, N. Gildemeister, S. Grimme, D. Fazzi, A. Hansen,
     J. Chem. Phys., 2023, just accepted.
   
   for PTB refer to:
   * S. Grimme, M. Mueller, A. Hansen, J. Chem. Phys., 2023, 158, 124111.
     DOI: 10.1063/5.0137838
   
   with help from (in alphabetical order)
   P. Atkinson, C. Bannwarth, F. Bohle, G. Brandenburg, E. Caldeweyher
   M. Checinski, S. Dohm, S. Ehlert, S. Ehrlich, I. Gerasimov, C. Hölzer
   A. Katbashev, J. Kohn, J. Koopman, C. Lavigne, S. Lehtola, F. März, M. Müller,
   F. Musil, H. Neugebauer, J. Pisarek, C. Plett, P. Pracht, F. Pultar,
   J. Seibert, P. Shushkov, S. Spicher, M. Stahn, M. Steiner, T. Strunk,
   J. Stückrath, T. Rose, and J. Unsleber
   
 * started run on 2025/04/08 at 10:52:22.973     
   ID    Z sym.   atoms
    1    6 C      1-4, 6
    2    8 O      5
    3    1 H      7-16

           -------------------------------------------------
          |                Calculation Setup                |
           -------------------------------------------------

          program call               : /srv/scratch/z5358697/.xtb/bin/xtb xtb_rrho.coord --gfn2 --ohess vtight --chrg 0 --enso --norestart -I rrho-xcontrol-inp --parallel 1 --alpb water
          hostname                   : k065
          coordinate file            : xtb_rrho.coord
          omp threads                :                     1


           -------------------------------------------------
          |                 G F N 2 - x T B                 |
           -------------------------------------------------

        Reference                      10.1021/acs.jctc.8b01176
      * Hamiltonian:
        H0-scaling (s, p, d)           1.850000    2.230000    2.230000
        zeta-weighting                 0.500000
      * Dispersion:
        s8                             2.700000
        a1                             0.520000
        a2                             5.000000
        s9                             5.000000
      * Repulsion:
        kExp                           1.500000    1.000000
        rExp                           1.000000
      * Coulomb:
        alpha                          2.000000
        third order                    shell-resolved
        anisotropic                    true
        a3                             3.000000
        a5                             4.000000
        cn-shift                       1.200000
        cn-exp                         4.000000
        max-rad                        5.000000

      * Solvation model:               ALPB
        Solvent                        water
        Parameter file                 internal GFN2-xTB/ALPB
        Dielectric constant                8.0200E+01
        Reference state                gsolv [1 M gas/solution]
        Free energy shift                  1.0808E-03 Eh       6.7819E-01 kcal/mol
        Temperature                        2.9815E+02 K
        Density                            1.0000E+00 kg/L
        Solvent mass                       1.8000E+01 g/mol
        Interaction kernel             P16
        Born radius scaling (c1)           1.4744E+00
        Born radii integrator          GBOBC
        Born offset                        0.0000E+00 a0       0.0000E+00 AA
        H-bond correction              true
        Ion screening                  false
        Surface tension                    1.0000E-05 Eh       1.5569E+01 dyn/cm
        Grid points                               974 per atom

          ...................................................
          :                      SETUP                      :
          :.................................................:
          :  # basis functions                  34          :
          :  # atomic orbitals                  34          :
          :  # shells                           22          :
          :  # electrons                        36          :
          :  max. iterations                   250          :
          :  Hamiltonian                  GFN2-xTB          :
          :  restarted?                      false          :
          :  GBSA solvation                   true          :
          :  PC potential                    false          :
          :  electronic temp.          300.0000000     K    :
          :  accuracy                    1.0000000          :
          :  -> integral cutoff          0.2500000E+02      :
          :  -> integral neglect         0.1000000E-07      :
          :  -> SCF convergence          0.1000000E-05 Eh   :
          :  -> wf. convergence          0.1000000E-03 e    :
          :  Broyden damping             0.4000000          :
          :  net charge                          0          :
          :  unpaired electrons                  0          :
          ...................................................

 iter      E             dE          RMSdq      gap      omega  full diag
   1    -20.0576169 -0.200576E+02  0.380E+00    4.67       0.0  T
   2    -20.1126598 -0.550429E-01  0.176E+00    3.68       1.0  T
   3    -20.1164576 -0.379772E-02  0.108E+00    4.09       1.0  T
   4    -20.1185196 -0.206204E-02  0.173E-01    3.87       1.0  T
   5    -20.1187220 -0.202378E-03  0.668E-02    3.91       1.0  T
   6    -20.1187230 -0.107502E-05  0.157E-02    3.91       1.6  T
   7    -20.1187243 -0.129883E-05  0.418E-03    3.91       6.0  T
   8    -20.1187244 -0.120027E-07  0.163E-03    3.91      15.4  T
   9    -20.1187244 -0.833531E-08  0.419E-04    3.91      59.7  T
  10    -20.1187244 -0.160028E-09  0.158E-04    3.91     157.9  T

   *** convergence criteria satisfied after 10 iterations ***

         #    Occupation            Energy/Eh            Energy/eV
      -------------------------------------------------------------
         1        2.0000           -0.7094568             -19.3053
       ...           ...                  ...                  ...
        12        2.0000           -0.4717460             -12.8369
        13        2.0000           -0.4689088             -12.7597
        14        2.0000           -0.4644975             -12.6396
        15        2.0000           -0.4425051             -12.0412
        16        2.0000           -0.4398233             -11.9682
        17        2.0000           -0.4299828             -11.7004
        18        2.0000           -0.3961091             -10.7787 (HOMO)
        19                         -0.2523949              -6.8680 (LUMO)
        20                          0.0631374               1.7181
        21                          0.0955052               2.5988
        22                          0.1236982               3.3660
        23                          0.1457217               3.9653
       ...                                ...                  ...
        34                          0.5659989              15.4016
      -------------------------------------------------------------
                  HL-Gap            0.1437143 Eh            3.9107 eV
             Fermi-level           -0.3242520 Eh           -8.8233 eV

 SCC (total)                   0 d,  0 h,  0 min,  0.016 sec
 SCC setup                      ...        0 min,  0.001 sec (  8.985%)
 Dispersion                     ...        0 min,  0.000 sec (  0.690%)
 classical contributions        ...        0 min,  0.000 sec (  0.195%)
 integral evaluation            ...        0 min,  0.002 sec ( 10.511%)
 iterations                     ...        0 min,  0.007 sec ( 41.258%)
 molecular gradient             ...        0 min,  0.006 sec ( 36.766%)
 printout                       ...        0 min,  0.000 sec (  1.452%)

         :::::::::::::::::::::::::::::::::::::::::::::::::::::
         ::                     SUMMARY                     ::
         :::::::::::::::::::::::::::::::::::::::::::::::::::::
         :: total energy             -19.865977896744 Eh    ::
         :: total w/o Gsasa/hb       -19.866046835791 Eh    ::
         :: gradient norm              0.032422803992 Eh/a0 ::
         :: HOMO-LUMO gap              3.910663852377 eV    ::
         ::.................................................::
         :: SCC energy               -20.118709722120 Eh    ::
         :: -> isotropic ES            0.042129565152 Eh    ::
         :: -> anisotropic ES          0.002971395809 Eh    ::
         :: -> anisotropic XC          0.009662656292 Eh    ::
         :: -> dispersion             -0.008429759783 Eh    ::
         :: -> Gsolv                  -0.008764501137 Eh    ::
         ::    -> Gelec               -0.008833440184 Eh    ::
         ::    -> Gsasa                0.000926548955 Eh    ::
         ::    -> Ghb                 -0.001938369606 Eh    ::
         ::    -> Gshift               0.001080759698 Eh    ::
         :: repulsion energy           0.252731825376 Eh    ::
         :: add. restraining           0.000000000000 Eh    ::
         :: total charge               0.000000000000 e     ::
         :::::::::::::::::::::::::::::::::::::::::::::::::::::

      ----------------------------------------------------------- 
     |                   =====================                   |
     |                        A N C O P T                        |
     |                   =====================                   |
     |               Approximate Normal Coordinate               |
     |                Rational Function Optimizer                |
      ----------------------------------------------------------- 
      ----------------------------------------------------------- 
     |                   =====================                   |
     |                        A N C O P T                        |
     |                   =====================                   |
     |               Approximate Normal Coordinate               |
     |                Rational Function Optimizer                |
      ----------------------------------------------------------- 

          ...................................................
          :                      SETUP                      :
          :.................................................:
          :   optimization level         verytight          :
          :   max. optcycles                   320          :
          :   ANC micro-cycles                  20          :
          :   degrees of freedom                42          :
          :.................................................:
          :   RF solver                   davidson          :
          :   write xtbopt.log                true          :
          :   linear?                        false          :
          :   energy convergence         0.1000000E-06 Eh   :
          :   grad. convergence          0.2000000E-03 Eh/α :
          :   maxmium RF displ.          1.0000000          :
          :   Hlow (freq-cutoff)         0.1000000E-01      :
          :   Hmax (freq-cutoff)         5.0000000          :
          :   S6 in model hess.         20.0000000          :
          ...................................................

generating ANC from exact Hessian ...
Using Lindh-Hessian (1995)
 Shifting diagonal of input Hessian by   7.449888356280247E-003
 Lowest  eigenvalues of input Hessian
    0.000000    0.000000    0.000000    0.000000    0.000000    0.000000
    0.010000    0.011318    0.013311    0.017609    0.020761    0.022044
    0.031074    0.048923    0.053896    0.058261    0.061592    0.065532
 Highest eigenvalues
    1.137805    1.152774    1.206605    1.253573    1.425219    2.064582
 

........................................................................
.............................. CYCLE    1 ..............................
........................................................................

 iter      E             dE          RMSdq      gap      omega  full diag
   1    -20.1187244 -0.201187E+02  0.520E-05    3.91       0.0  T
   2    -20.1187244 -0.876810E-11  0.288E-05    3.91     868.7  T
   3    -20.1187244 -0.174438E-11  0.180E-05    3.91    1387.3  T
     SCC iter.                  ...        0 min,  0.001 sec
     gradient                   ...        0 min,  0.003 sec
 * total energy  :   -19.8659779 Eh     change       -0.1623945E-09 Eh
   gradient norm :     0.0324252 Eh/α   predicted     0.0000000E+00 (-100.00%)
   displ. norm   :     0.1314599 α      lambda       -0.1528736E-02
   maximum displ.:     0.0436847 α      in ANC's #5, #7, #11, ...

........................................................................
.............................. CYCLE    2 ..............................
........................................................................

 iter      E             dE          RMSdq      gap      omega  full diag
   1    -20.1280078 -0.201280E+02  0.140E-01    3.96       0.0  T
   2    -20.1280361 -0.283732E-04  0.767E-02    3.95       1.0  T
   3    -20.1280366 -0.457096E-06  0.243E-02    3.95       1.0  T
   4    -20.1280373 -0.666677E-06  0.535E-03    3.95       4.7  T
   5    -20.1280374 -0.187571E-06  0.247E-03    3.95      10.1  T
   6    -20.1280375 -0.182932E-07  0.696E-04    3.95      35.9  T
   7    -20.1280375 -0.515254E-09  0.317E-04    3.95      78.9  T
     SCC iter.                  ...        0 min,  0.002 sec
     gradient                   ...        0 min,  0.004 sec
 * total energy  :   -19.8669537 Eh     change       -0.9758380E-03 Eh
   gradient norm :     0.0121200 Eh/α   predicted    -0.7775772E-03 ( -20.32%)
   displ. norm   :     0.0766880 α      lambda       -0.2449785E-03
   maximum displ.:     0.0343861 α      in ANC's #1, #4, #3, ...

........................................................................
.............................. CYCLE    3 ..............................
........................................................................

 iter      E             dE          RMSdq      gap      omega  full diag
   1    -20.1315405 -0.201315E+02  0.550E-02    3.97       0.0  T
   2    -20.1315480 -0.757277E-05  0.290E-02    3.97       1.0  T
   3    -20.1315483 -0.229722E-06  0.116E-02    3.97       2.2  T
   4    -20.1315483 -0.395582E-07  0.210E-03    3.97      11.9  T
   5    -20.1315483 -0.145245E-07  0.102E-03    3.97      24.5  T
   6    -20.1315483 -0.354573E-08  0.295E-04    3.97      84.7  T
   7    -20.1315483 -0.276813E-09  0.145E-04    3.97     172.3  T
     SCC iter.                  ...        0 min,  0.002 sec
     gradient                   ...        0 min,  0.003 sec
 * total energy  :   -19.8670910 Eh     change       -0.1372792E-03 Eh
   gradient norm :     0.0018430 Eh/α   predicted    -0.1232113E-03 ( -10.25%)
   displ. norm   :     0.0455361 α      lambda       -0.1862132E-04
   maximum displ.:     0.0274092 α      in ANC's #1, #4, #2, ...

........................................................................
.............................. CYCLE    4 ..............................
........................................................................

 iter      E             dE          RMSdq      gap      omega  full diag
   1    -20.1314793 -0.201315E+02  0.231E-02    3.96       0.0  T
   2    -20.1314797 -0.338564E-06  0.136E-02    3.97       1.8  T
   3    -20.1314797  0.139978E-07  0.310E-03    3.96       8.1  T
   4    -20.1314797 -0.467721E-07  0.893E-04    3.96      28.0  T
   5    -20.1314797 -0.407876E-08  0.332E-04    3.96      75.4  T
     SCC iter.                  ...        0 min,  0.002 sec
     gradient                   ...        0 min,  0.003 sec
 * total energy  :   -19.8671050 Eh     change       -0.1396111E-04 Eh
   gradient norm :     0.0013069 Eh/α   predicted    -0.9319203E-05 ( -33.25%)
   displ. norm   :     0.0199557 α      lambda       -0.4148747E-05
   maximum displ.:     0.0161436 α      in ANC's #4, #1, #2, ...

........................................................................
.............................. CYCLE    5 ..............................
........................................................................

 iter      E             dE          RMSdq      gap      omega  full diag
   1    -20.1311690 -0.201312E+02  0.118E-02    3.96       0.0  T
   2    -20.1311690 -0.435588E-07  0.694E-03    3.96       3.6  T
   3    -20.1311690 -0.289972E-10  0.951E-04    3.96      26.3  T
   4    -20.1311690 -0.510939E-08  0.335E-04    3.96      74.6  T
     SCC iter.                  ...        0 min,  0.001 sec
     gradient                   ...        0 min,  0.003 sec
 * total energy  :   -19.8671086 Eh     change       -0.3608801E-05 Eh
   gradient norm :     0.0006719 Eh/α   predicted    -0.2075971E-05 ( -42.47%)
   displ. norm   :     0.0268855 α      lambda       -0.3379476E-05
   maximum displ.:     0.0201312 α      in ANC's #4, #1, #3, ...

........................................................................
.............................. CYCLE    6 ..............................
........................................................................

 iter      E             dE          RMSdq      gap      omega  full diag
   1    -20.1310347 -0.201310E+02  0.152E-02    3.96       0.0  T
   2    -20.1310347 -0.422485E-07  0.898E-03    3.96       2.8  T
   3    -20.1310347 -0.352039E-08  0.659E-04    3.96      37.9  T
   4    -20.1310347 -0.857209E-09  0.253E-04    3.96      98.8  T
     SCC iter.                  ...        0 min,  0.001 sec
     gradient                   ...        0 min,  0.003 sec
 * total energy  :   -19.8671118 Eh     change       -0.3212270E-05 Eh
   gradient norm :     0.0007653 Eh/α   predicted    -0.1690562E-05 ( -47.37%)
   displ. norm   :     0.0424468 α      lambda       -0.3431832E-05
   maximum displ.:     0.0360770 α      in ANC's #4, #5, #3, ...

........................................................................
.............................. CYCLE    7 ..............................
........................................................................

 iter      E             dE          RMSdq      gap      omega  full diag
   1    -20.1311893 -0.201312E+02  0.209E-02    3.96       0.0  T
   2    -20.1311893 -0.200062E-07  0.123E-02    3.96       2.0  T
   3    -20.1311893 -0.555203E-08  0.740E-04    3.96      33.8  T
   4    -20.1311893 -0.292332E-08  0.378E-04    3.96      66.1  T
     SCC iter.                  ...        0 min,  0.001 sec
     gradient                   ...        0 min,  0.003 sec
 * total energy  :   -19.8671158 Eh     change       -0.4031113E-05 Eh
   gradient norm :     0.0007818 Eh/α   predicted    -0.1719283E-05 ( -57.35%)
   displ. norm   :     0.0652739 α      lambda       -0.4867085E-05
   maximum displ.:     0.0519222 α      in ANC's #4, #5, #3, ...

........................................................................
.............................. CYCLE    8 ..............................
........................................................................

 iter      E             dE          RMSdq      gap      omega  full diag
   1    -20.1312355 -0.201312E+02  0.278E-02    3.96       0.0  T
   2    -20.1312356 -0.275863E-07  0.165E-02    3.96       1.5  T
   3    -20.1312356 -0.112887E-07  0.766E-04    3.96      32.6  T
   4    -20.1312356 -0.121417E-08  0.436E-04    3.96      57.3  T
     SCC iter.                  ...        0 min,  0.001 sec
     gradient                   ...        0 min,  0.003 sec
 * total energy  :   -19.8671216 Eh     change       -0.5801847E-05 Eh
   gradient norm :     0.0007099 Eh/α   predicted    -0.2440250E-05 ( -57.94%)
   displ. norm   :     0.0796771 α      lambda       -0.4810846E-05
   maximum displ.:     0.0622082 α      in ANC's #4, #5, #3, ...

........................................................................
.............................. CYCLE    9 ..............................
........................................................................

 iter      E             dE          RMSdq      gap      omega  full diag
   1    -20.1311977 -0.201312E+02  0.289E-02    3.96       0.0  T
   2    -20.1311977 -0.461190E-07  0.172E-02    3.96       1.5  T
   3    -20.1311978 -0.113482E-07  0.855E-04    3.95      29.2  T
   4    -20.1311978 -0.230617E-08  0.477E-04    3.95      52.4  T
     SCC iter.                  ...        0 min,  0.001 sec
     gradient                   ...        0 min,  0.003 sec
 * total energy  :   -19.8671269 Eh     change       -0.5254106E-05 Eh
   gradient norm :     0.0005053 Eh/α   predicted    -0.2411632E-05 ( -54.10%)
   displ. norm   :     0.0941946 α      lambda       -0.4088919E-05
   maximum displ.:     0.0707917 α      in ANC's #4, #5, #2, ...

........................................................................
.............................. CYCLE   10 ..............................
........................................................................

 iter      E             dE          RMSdq      gap      omega  full diag
   1    -20.1311355 -0.201311E+02  0.302E-02    3.95       0.0  T
   2    -20.1311355 -0.538993E-07  0.181E-02    3.95       1.4  T
   3    -20.1311355 -0.795502E-08  0.103E-03    3.95      24.4  T
   4    -20.1311355 -0.636929E-08  0.526E-04    3.95      47.5  T
   5    -20.1311355 -0.464176E-09  0.223E-04    3.95     112.1  T
     SCC iter.                  ...        0 min,  0.002 sec
     gradient                   ...        0 min,  0.003 sec
 * total energy  :   -19.8671312 Eh     change       -0.4269533E-05 Eh
   gradient norm :     0.0007909 Eh/α   predicted    -0.2051971E-05 ( -51.94%)
   displ. norm   :     0.0746137 α      lambda       -0.3933132E-05
   maximum displ.:     0.0507493 α      in ANC's #4, #2, #5, ...

........................................................................
.............................. CYCLE   11 ..............................
........................................................................

 iter      E             dE          RMSdq      gap      omega  full diag
   1    -20.1312071 -0.201312E+02  0.211E-02    3.95       0.0  T
   2    -20.1312071 -0.271322E-07  0.127E-02    3.95       2.0  T
   3    -20.1312071 -0.245195E-08  0.681E-04    3.95      36.7  T
   4    -20.1312071 -0.313599E-08  0.301E-04    3.95      83.1  T
     SCC iter.                  ...        0 min,  0.001 sec
     gradient                   ...        0 min,  0.003 sec
 * total energy  :   -19.8671364 Eh     change       -0.5218047E-05 Eh
   gradient norm :     0.0008450 Eh/α   predicted    -0.1970228E-05 ( -62.24%)
   displ. norm   :     0.1158746 α      lambda       -0.8240908E-05
   maximum displ.:     0.0678162 α      in ANC's #4, #2, #5, ...

........................................................................
.............................. CYCLE   12 ..............................
........................................................................

 iter      E             dE          RMSdq      gap      omega  full diag
   1    -20.1312552 -0.201313E+02  0.324E-02    3.95       0.0  T
   2    -20.1312553 -0.357147E-07  0.195E-02    3.95       1.3  T
   3    -20.1312553 -0.600398E-08  0.932E-04    3.95      26.8  T
   4    -20.1312553 -0.651357E-08  0.447E-04    3.95      56.0  T
     SCC iter.                  ...        0 min,  0.001 sec
     gradient                   ...        0 min,  0.003 sec
 * total energy  :   -19.8671483 Eh     change       -0.1189017E-04 Eh
   gradient norm :     0.0008780 Eh/α   predicted    -0.4145822E-05 ( -65.13%)
   displ. norm   :     0.3978168 α      lambda       -0.3028007E-04
   maximum displ.:     0.2369987 α      in ANC's #2, #4, #1, ...

........................................................................
.............................. CYCLE   13 ..............................
........................................................................

 iter      E             dE          RMSdq      gap      omega  full diag
   1    -20.1287693 -0.201288E+02  0.114E-01    3.95       0.0  T
   2    -20.1287711 -0.178674E-05  0.679E-02    3.95       1.0  T
   3    -20.1287713 -0.180899E-06  0.504E-03    3.95       5.0  T
   4    -20.1287714 -0.897991E-07  0.233E-03    3.95      10.7  T
   5    -20.1287714 -0.107683E-07  0.116E-03    3.95      21.5  T
   6    -20.1287714 -0.218174E-08  0.242E-04    3.95     103.5  T
   7    -20.1287714 -0.780211E-10  0.638E-05    3.95     392.1  T
     SCC iter.                  ...        0 min,  0.002 sec
     gradient                   ...        0 min,  0.003 sec
 * total energy  :   -19.8671281 Eh     change        0.2015625E-04 Eh
   gradient norm :     0.0074914 Eh/α   predicted    -0.1620818E-04 (-180.41%)
   displ. norm   :     0.1114539 α      lambda       -0.1386652E-03
   maximum displ.:     0.0925667 α      in ANC's #4, #5, #3, ...

........................................................................
.............................. CYCLE   14 ..............................
........................................................................

 iter      E             dE          RMSdq      gap      omega  full diag
   1    -20.1312285 -0.201312E+02  0.577E-02    3.96       0.0  T
   2    -20.1312297 -0.124898E-05  0.334E-02    3.96       1.0  T
   3    -20.1312298 -0.106331E-06  0.442E-03    3.96       5.7  T
   4    -20.1312299 -0.315499E-07  0.167E-03    3.96      15.0  T
   5    -20.1312299 -0.487426E-08  0.860E-04    3.96      29.1  T
   6    -20.1312299 -0.173027E-08  0.231E-04    3.96     108.0  T
     SCC iter.                  ...        0 min,  0.002 sec
     gradient                   ...        0 min,  0.003 sec
 * total energy  :   -19.8671947 Eh     change       -0.6658195E-04 Eh
   gradient norm :     0.0012151 Eh/α   predicted    -0.7019456E-04 (   5.43%)
   displ. norm   :     0.2008612 α      lambda       -0.1969427E-04
   maximum displ.:     0.1519085 α      in ANC's #2, #1, #5, ...

........................................................................
.............................. CYCLE   15 ..............................
........................................................................

 iter      E             dE          RMSdq      gap      omega  full diag
   1    -20.1307271 -0.201307E+02  0.799E-02    3.96       0.0  T
   2    -20.1307273 -0.236998E-06  0.474E-02    3.96       1.0  T
   3    -20.1307274 -0.991483E-07  0.219E-03    3.96      11.4  T
   4    -20.1307274 -0.920277E-08  0.131E-03    3.96      19.1  T
   5    -20.1307274 -0.138914E-08  0.516E-04    3.96      48.4  T
   6    -20.1307274 -0.914625E-09  0.113E-04    3.96     221.2  T
     SCC iter.                  ...        0 min,  0.002 sec
     gradient                   ...        0 min,  0.003 sec
 * total energy  :   -19.8672188 Eh     change       -0.2411678E-04 Eh
   gradient norm :     0.0017561 Eh/α   predicted    -0.1002274E-04 ( -58.44%)
   displ. norm   :     0.3748988 α      lambda       -0.3324157E-04
   maximum displ.:     0.2659742 α      in ANC's #2, #1, #4, ...

........................................................................
.............................. CYCLE   16 ..............................
........................................................................

 iter      E             dE          RMSdq      gap      omega  full diag
   1    -20.1278975 -0.201279E+02  0.142E-01    3.96       0.0  T
   2    -20.1279002 -0.269342E-05  0.839E-02    3.96       1.0  T
   3    -20.1279005 -0.360814E-06  0.558E-03    3.96       4.5  T
   4    -20.1279006 -0.564682E-07  0.269E-03    3.96       9.3  T
   5    -20.1279006 -0.284062E-08  0.138E-03    3.96      18.2  T
   6    -20.1279006 -0.633148E-08  0.239E-04    3.96     104.5  T
   7    -20.1279006 -0.781597E-10  0.113E-04    3.96     222.1  T
     SCC iter.                  ...        0 min,  0.002 sec
     gradient                   ...        0 min,  0.003 sec
 * total energy  :   -19.8671810 Eh     change        0.3783644E-04 Eh
   gradient norm :     0.0086311 Eh/α   predicted    -0.1765961E-04 (-146.67%)
   displ. norm   :     0.1350395 α      lambda       -0.1321484E-03
   maximum displ.:     0.0950424 α      in ANC's #2, #1, #4, ...

........................................................................
.............................. CYCLE   17 ..............................
........................................................................

 iter      E             dE          RMSdq      gap      omega  full diag
   1    -20.1303265 -0.201303E+02  0.508E-02    3.96       0.0  T
   2    -20.1303276 -0.103758E-05  0.294E-02    3.96       1.0  T
   3    -20.1303276 -0.422912E-07  0.452E-03    3.96       5.5  T
   4    -20.1303277 -0.460237E-07  0.145E-03    3.96      17.2  T
   5    -20.1303277 -0.695549E-08  0.786E-04    3.96      31.8  T
   6    -20.1303277 -0.492140E-09  0.142E-04    3.96     175.9  T
     SCC iter.                  ...        0 min,  0.002 sec
     gradient                   ...        0 min,  0.003 sec
 * total energy  :   -19.8672486 Eh     change       -0.6759204E-04 Eh
   gradient norm :     0.0027851 Eh/α   predicted    -0.6727964E-04 (  -0.46%)
   displ. norm   :     0.0400909 α      lambda       -0.1768332E-04
   maximum displ.:     0.0304245 α      in ANC's #1, #2, #4, ...

........................................................................
.............................. CYCLE   18 ..............................
........................................................................

 iter      E             dE          RMSdq      gap      omega  full diag
   1    -20.1308599 -0.201309E+02  0.196E-02    3.96       0.0  T
   2    -20.1308600 -0.691016E-07  0.115E-02    3.96       2.2  T
   3    -20.1308600 -0.412066E-08  0.104E-03    3.96      24.1  T
   4    -20.1308600 -0.532649E-08  0.432E-04    3.96      57.9  T
   5    -20.1308600 -0.552941E-09  0.247E-04    3.96     101.0  T
     SCC iter.                  ...        0 min,  0.002 sec
     gradient                   ...        0 min,  0.003 sec
 * total energy  :   -19.8672629 Eh     change       -0.1430202E-04 Eh
   gradient norm :     0.0015648 Eh/α   predicted    -0.8856279E-05 ( -38.08%)
   displ. norm   :     0.2562251 α      lambda       -0.4497635E-04
   maximum displ.:     0.1746079 α      in ANC's #1, #2, #4, ...

........................................................................
.............................. CYCLE   19 ..............................
........................................................................

 iter      E             dE          RMSdq      gap      omega  full diag
   1    -20.1318213 -0.201318E+02  0.977E-02    3.97       0.0  T
   2    -20.1318217 -0.381895E-06  0.578E-02    3.97       1.0  T
   3    -20.1318218 -0.783304E-07  0.330E-03    3.97       7.6  T
   4    -20.1318219 -0.769097E-07  0.164E-03    3.97      15.2  T
   5    -20.1318219 -0.314521E-08  0.744E-04    3.97      33.6  T
   6    -20.1318219 -0.722224E-09  0.124E-04    3.97     201.3  T
     SCC iter.                  ...        0 min,  0.002 sec
     gradient                   ...        0 min,  0.003 sec
 * total energy  :   -19.8673198 Eh     change       -0.5697242E-04 Eh
   gradient norm :     0.0014122 Eh/α   predicted    -0.2314522E-04 ( -59.37%)
   displ. norm   :     1.0939110 α      lambda       -0.1670568E-03
   maximum displ.:     0.7153617 α      in ANC's #1, #2, #4, ...

........................................................................
.............................. CYCLE   20 ..............................
........................................................................

 iter      E             dE          RMSdq      gap      omega  full diag
   1    -20.1158348 -0.201158E+02  0.439E-01    3.93       0.0  T
   2    -20.1158860 -0.512280E-04  0.256E-01    3.94       1.0  T
   3    -20.1158896 -0.355321E-05  0.281E-02    3.93       1.0  T
   4    -20.1158912 -0.160813E-05  0.994E-03    3.93       2.5  T
   5    -20.1158913 -0.148476E-06  0.566E-03    3.93       4.4  T
   6    -20.1158914 -0.589858E-07  0.940E-04    3.93      26.6  T
   7    -20.1158914 -0.123685E-08  0.378E-04    3.93      66.1  T
     SCC iter.                  ...        0 min,  0.002 sec
     gradient                   ...        0 min,  0.003 sec
 * total energy  :   -19.8656315 Eh     change        0.1688344E-02 Eh
   gradient norm :     0.0348121 Eh/α   predicted    -0.1279178E-03 (-107.58%)
   displ. norm   :     0.3973413 α      lambda       -0.3416940E-02
   maximum displ.:     0.2537311 α      in ANC's #2, #1, #4, ...
 * RMSD in coord.:     0.5373868 α      energy gain   0.3464068E-03 Eh

generating ANC from exact Hessian ...
Using Lindh-Hessian (1995)
 Shifting diagonal of input Hessian by   7.588899483903061E-003
 Lowest  eigenvalues of input Hessian
    0.000000    0.000000    0.000000    0.000000    0.000000    0.000000
    0.010000    0.011601    0.013715    0.018072    0.021443    0.022694
    0.031049    0.050613    0.055318    0.059622    0.062503    0.065214
 Highest eigenvalues
    1.140355    1.178958    1.215914    1.249968    1.406020    2.115579
 

........................................................................
.............................. CYCLE   21 ..............................
........................................................................

 iter      E             dE          RMSdq      gap      omega  full diag
   1    -20.1277104 -0.201277E+02  0.194E-01    3.97       0.0  T
   2    -20.1277314 -0.209911E-04  0.111E-01    3.96       1.0  T
   3    -20.1277321 -0.672058E-06  0.216E-02    3.96       1.2  T
   4    -20.1277330 -0.871934E-06  0.609E-03    3.96       4.1  T
   5    -20.1277331 -0.135779E-06  0.329E-03    3.96       7.6  T
   6    -20.1277331 -0.761310E-08  0.596E-04    3.96      42.0  T
   7    -20.1277331 -0.447088E-09  0.187E-04    3.96     133.7  T
     SCC iter.                  ...        0 min,  0.002 sec
     gradient                   ...        0 min,  0.003 sec
 * total energy  :   -19.8673911 Eh     change       -0.1759585E-02 Eh
   gradient norm :     0.0078991 Eh/α   predicted     0.0000000E+00 (-100.00%)
   displ. norm   :     0.0289672 α      lambda       -0.1546724E-03
   maximum displ.:     0.0149344 α      in ANC's #5, #28, #29, ...

........................................................................
.............................. CYCLE   22 ..............................
........................................................................

 iter      E             dE          RMSdq      gap      omega  full diag
   1    -20.1309900 -0.201310E+02  0.332E-02    3.97       0.0  T
   2    -20.1309912 -0.124654E-05  0.183E-02    3.97       1.4  T
   3    -20.1309912 -0.223843E-07  0.590E-03    3.97       4.2  T
   4    -20.1309913 -0.871906E-07  0.162E-03    3.97      15.4  T
   5    -20.1309913 -0.111328E-07  0.800E-04    3.97      31.2  T
   6    -20.1309913 -0.305061E-09  0.179E-04    3.97     139.7  T
     SCC iter.                  ...        0 min,  0.002 sec
     gradient                   ...        0 min,  0.003 sec
 * total energy  :   -19.8674836 Eh     change       -0.9256854E-04 Eh
   gradient norm :     0.0017322 Eh/α   predicted    -0.7740187E-04 ( -16.38%)
   displ. norm   :     0.0347238 α      lambda       -0.1526937E-04
   maximum displ.:     0.0221659 α      in ANC's #5, #4, #2, ...

........................................................................
.............................. CYCLE   23 ..............................
........................................................................

 iter      E             dE          RMSdq      gap      omega  full diag
   1    -20.1322212 -0.201322E+02  0.155E-02    3.98       0.0  T
   2    -20.1322214 -0.165180E-06  0.880E-03    3.97       2.8  T
   3    -20.1322214  0.194390E-08  0.224E-03    3.98      11.2  T
   4    -20.1322214 -0.178835E-07  0.623E-04    3.97      40.2  T
   5    -20.1322214 -0.157673E-08  0.295E-04    3.97      84.7  T
     SCC iter.                  ...        0 min,  0.002 sec
     gradient                   ...        0 min,  0.003 sec
 * total energy  :   -19.8674957 Eh     change       -0.1203741E-04 Eh
   gradient norm :     0.0011709 Eh/α   predicted    -0.7639771E-05 ( -36.53%)
   displ. norm   :     0.0423194 α      lambda       -0.8473694E-05
   maximum displ.:     0.0252286 α      in ANC's #5, #4, #2, ...

........................................................................
.............................. CYCLE   24 ..............................
........................................................................

 iter      E             dE          RMSdq      gap      omega  full diag
   1    -20.1321598 -0.201322E+02  0.117E-02    3.97       0.0  T
   2    -20.1321598 -0.110975E-07  0.704E-03    3.97       3.6  T
   3    -20.1321598 -0.168547E-08  0.353E-04    3.97      70.9  T
   4    -20.1321598 -0.509345E-09  0.170E-04    3.97     146.7  T
     SCC iter.                  ...        0 min,  0.001 sec
     gradient                   ...        0 min,  0.003 sec
 * total energy  :   -19.8675072 Eh     change       -0.1150215E-04 Eh
   gradient norm :     0.0010632 Eh/α   predicted    -0.4239891E-05 ( -63.14%)
   displ. norm   :     0.3278039 α      lambda       -0.5709884E-04
   maximum displ.:     0.1848468 α      in ANC's #4, #5, #2, ...

........................................................................
.............................. CYCLE   25 ..............................
........................................................................

 iter      E             dE          RMSdq      gap      omega  full diag
   1    -20.1297680 -0.201298E+02  0.904E-02    3.97       0.0  T
   2    -20.1297695 -0.150324E-05  0.538E-02    3.97       1.0  T
   3    -20.1297697 -0.152300E-06  0.394E-03    3.97       6.3  T
   4    -20.1297697 -0.121059E-07  0.150E-03    3.97      16.6  T
   5    -20.1297697  0.273133E-10  0.509E-04    3.97      49.1  T
   6    -20.1297697 -0.129476E-08  0.155E-04    3.97     160.8  T
     SCC iter.                  ...        0 min,  0.002 sec
     gradient                   ...        0 min,  0.003 sec
 * total energy  :   -19.8675151 Eh     change       -0.7965225E-05 Eh
   gradient norm :     0.0051899 Eh/α   predicted    -0.2991294E-04 ( 275.54%)
   displ. norm   :     0.0941844 α      lambda       -0.6034394E-04
   maximum displ.:     0.0539061 α      in ANC's #5, #4, #2, ...

........................................................................
.............................. CYCLE   26 ..............................
........................................................................

 iter      E             dE          RMSdq      gap      omega  full diag
   1    -20.1311471 -0.201311E+02  0.299E-02    3.97       0.0  T
   2    -20.1311475 -0.399478E-06  0.175E-02    3.97       1.4  T
   3    -20.1311475 -0.290723E-07  0.256E-03    3.97       9.8  T
   4    -20.1311475 -0.402125E-08  0.740E-04    3.97      33.8  T
   5    -20.1311475 -0.175831E-09  0.318E-04    3.97      78.7  T
     SCC iter.                  ...        0 min,  0.002 sec
     gradient                   ...        0 min,  0.003 sec
 * total energy  :   -19.8675470 Eh     change       -0.3184738E-04 Eh
   gradient norm :     0.0015926 Eh/α   predicted    -0.3043831E-04 (  -4.42%)
   displ. norm   :     0.0390482 α      lambda       -0.8828983E-05
   maximum displ.:     0.0218225 α      in ANC's #1, #4, #2, ...

........................................................................
.............................. CYCLE   27 ..............................
........................................................................

 iter      E             dE          RMSdq      gap      omega  full diag
   1    -20.1315650 -0.201316E+02  0.135E-02    3.98       0.0  T
   2    -20.1315650 -0.365678E-07  0.802E-03    3.97       3.1  T
   3    -20.1315650  0.151131E-08  0.103E-03    3.98      24.4  T
   4    -20.1315650 -0.831083E-08  0.382E-04    3.98      65.4  T
   5    -20.1315651 -0.430887E-09  0.169E-04    3.98     147.9  T
     SCC iter.                  ...        0 min,  0.002 sec
     gradient                   ...        0 min,  0.003 sec
 * total energy  :   -19.8675574 Eh     change       -0.1042944E-04 Eh
   gradient norm :     0.0008156 Eh/α   predicted    -0.4415418E-05 ( -57.66%)
   displ. norm   :     0.1504176 α      lambda       -0.1914139E-04
   maximum displ.:     0.0866463 α      in ANC's #4, #2, #1, ...

........................................................................
.............................. CYCLE   28 ..............................
........................................................................

 iter      E             dE          RMSdq      gap      omega  full diag
   1    -20.1316778 -0.201317E+02  0.446E-02    3.98       0.0  T
   2    -20.1316780 -0.159196E-06  0.267E-02    3.98       1.0  T
   3    -20.1316780  0.124304E-07  0.209E-03    3.98      11.9  T
   4    -20.1316780 -0.453599E-07  0.734E-04    3.98      34.1  T
   5    -20.1316780 -0.153510E-08  0.361E-04    3.98      69.2  T
     SCC iter.                  ...        0 min,  0.002 sec
     gradient                   ...        0 min,  0.003 sec
 * total energy  :   -19.8675786 Eh     change       -0.2116961E-04 Eh
   gradient norm :     0.0007867 Eh/α   predicted    -0.9665179E-05 ( -54.34%)
   displ. norm   :     0.1745494 α      lambda       -0.1372329E-04
   maximum displ.:     0.1052836 α      in ANC's #2, #4, #1, ...

........................................................................
.............................. CYCLE   29 ..............................
........................................................................

 iter      E             dE          RMSdq      gap      omega  full diag
   1    -20.1309915 -0.201310E+02  0.531E-02    3.98       0.0  T
   2    -20.1309918 -0.273562E-06  0.316E-02    3.98       1.0  T
   3    -20.1309918 -0.315740E-07  0.172E-03    3.98      14.5  T
   4    -20.1309918 -0.100902E-07  0.802E-04    3.98      31.2  T
   5    -20.1309918 -0.820453E-09  0.451E-04    3.98      55.4  T
     SCC iter.                  ...        0 min,  0.002 sec
     gradient                   ...        0 min,  0.003 sec
 * total energy  :   -19.8675874 Eh     change       -0.8823501E-05 Eh
   gradient norm :     0.0023239 Eh/α   predicted    -0.6955493E-05 ( -21.17%)
   displ. norm   :     0.0250631 α      lambda       -0.1190161E-04
   maximum displ.:     0.0160163 α      in ANC's #5, #3, #2, ...

........................................................................
.............................. CYCLE   30 ..............................
........................................................................

 iter      E             dE          RMSdq      gap      omega  full diag
   1    -20.1314758 -0.201315E+02  0.138E-02    3.98       0.0  T
   2    -20.1314759 -0.508900E-07  0.805E-03    3.98       3.1  T
   3    -20.1314759 -0.435143E-08  0.817E-04    3.98      30.6  T
   4    -20.1314759 -0.805240E-09  0.306E-04    3.98      81.6  T
     SCC iter.                  ...        0 min,  0.001 sec
     gradient                   ...        0 min,  0.003 sec
 * total energy  :   -19.8675949 Eh     change       -0.7451176E-05 Eh
   gradient norm :     0.0010320 Eh/α   predicted    -0.5954160E-05 ( -20.09%)
   displ. norm   :     0.0547992 α      lambda       -0.4956769E-05
   maximum displ.:     0.0385765 α      in ANC's #2, #3, #1, ...

........................................................................
.............................. CYCLE   31 ..............................
........................................................................

 iter      E             dE          RMSdq      gap      omega  full diag
   1    -20.1317676 -0.201318E+02  0.237E-02    3.98       0.0  T
   2    -20.1317676 -0.312098E-07  0.140E-02    3.98       1.8  T
   3    -20.1317676 -0.954183E-08  0.687E-04    3.98      36.4  T
   4    -20.1317677 -0.120865E-08  0.408E-04    3.98      61.3  T
     SCC iter.                  ...        0 min,  0.001 sec
     gradient                   ...        0 min,  0.003 sec
 * total energy  :   -19.8675996 Eh     change       -0.4688020E-05 Eh
   gradient norm :     0.0003811 Eh/α   predicted    -0.2482707E-05 ( -47.04%)
   displ. norm   :     0.0573874 α      lambda       -0.2159778E-05
   maximum displ.:     0.0418649 α      in ANC's #2, #3, #1, ...

........................................................................
.............................. CYCLE   32 ..............................
........................................................................

 iter      E             dE          RMSdq      gap      omega  full diag
   1    -20.1316007 -0.201316E+02  0.224E-02    3.98       0.0  T
   2    -20.1316007 -0.347323E-07  0.132E-02    3.98       1.9  T
   3    -20.1316007 -0.847431E-08  0.651E-04    3.98      38.4  T
   4    -20.1316007 -0.701235E-09  0.371E-04    3.98      67.5  T
     SCC iter.                  ...        0 min,  0.001 sec
     gradient                   ...        0 min,  0.003 sec
 * total energy  :   -19.8676012 Eh     change       -0.1601080E-05 Eh
   gradient norm :     0.0004085 Eh/α   predicted    -0.1080244E-05 ( -32.53%)
   displ. norm   :     0.0080827 α      lambda       -0.5278966E-06
   maximum displ.:     0.0059220 α      in ANC's #4, #6, #1, ...

........................................................................
.............................. CYCLE   33 ..............................
........................................................................

 iter      E             dE          RMSdq      gap      omega  full diag
   1    -20.1317227 -0.201317E+02  0.487E-03    3.98       0.0  T
   2    -20.1317227 -0.475778E-08  0.285E-03    3.98       8.8  T
   3    -20.1317227 -0.472891E-09  0.250E-04    3.98     100.2  T
   4    -20.1317227 -0.233101E-09  0.115E-04    3.98     218.1  T
     SCC iter.                  ...        0 min,  0.001 sec
     gradient                   ...        0 min,  0.003 sec
 * total energy  :   -19.8676017 Eh     change       -0.4983978E-06 Eh
   gradient norm :     0.0001551 Eh/α   predicted    -0.2649261E-06 ( -46.84%)
   displ. norm   :     0.0138513 α      lambda       -0.3395139E-06
   maximum displ.:     0.0116880 α      in ANC's #2, #1, #5, ...

........................................................................
.............................. CYCLE   34 ..............................
........................................................................

 iter      E             dE          RMSdq      gap      omega  full diag
   1    -20.1317448 -0.201317E+02  0.825E-03    3.98       0.0  T
   2    -20.1317448 -0.219486E-08  0.487E-03    3.98       5.1  T
   3    -20.1317448 -0.712749E-09  0.248E-04    3.98     100.8  T
   4    -20.1317448 -0.406693E-09  0.139E-04    3.98     180.3  T
     SCC iter.                  ...        0 min,  0.001 sec
     gradient                   ...        0 min,  0.003 sec
 * total energy  :   -19.8676020 Eh     change       -0.3847830E-06 Eh
   gradient norm :     0.0001337 Eh/α   predicted    -0.1706955E-06 ( -55.64%)
   displ. norm   :     0.0259637 α      lambda       -0.4407568E-06
   maximum displ.:     0.0204940 α      in ANC's #2, #1, #5, ...

........................................................................
.............................. CYCLE   35 ..............................
........................................................................

 iter      E             dE          RMSdq      gap      omega  full diag
   1    -20.1317519 -0.201318E+02  0.136E-02    3.98       0.0  T
   2    -20.1317519 -0.599917E-08  0.803E-03    3.98       3.1  T
   3    -20.1317519 -0.251156E-08  0.390E-04    3.98      64.1  T
   4    -20.1317519 -0.674827E-09  0.232E-04    3.98     107.7  T
     SCC iter.                  ...        0 min,  0.001 sec
     gradient                   ...        0 min,  0.003 sec
 * total energy  :   -19.8676025 Eh     change       -0.4381087E-06 Eh
   gradient norm :     0.0001374 Eh/α   predicted    -0.2200361E-06 ( -49.78%)
   displ. norm   :     0.0142762 α      lambda       -0.1801889E-06
   maximum displ.:     0.0103447 α      in ANC's #2, #1, #3, ...

........................................................................
.............................. CYCLE   36 ..............................
........................................................................

 iter      E             dE          RMSdq      gap      omega  full diag
   1    -20.1317612 -0.201318E+02  0.706E-03    3.98       0.0  T
   2    -20.1317612 -0.184678E-08  0.416E-03    3.98       6.0  T
   3    -20.1317612 -0.803446E-09  0.198E-04    3.98     126.0  T
   4    -20.1317612 -0.116781E-09  0.120E-04    3.98     207.6  T
     SCC iter.                  ...        0 min,  0.001 sec
     gradient                   ...        0 min,  0.003 sec
 * total energy  :   -19.8676027 Eh     change       -0.1766007E-06 Eh
   gradient norm :     0.0000975 Eh/α   predicted    -0.8869876E-07 ( -49.77%)
   displ. norm   :     0.0051215 α      lambda       -0.6729876E-07
   maximum displ.:     0.0031299 α      in ANC's #1, #3, #2, ...

........................................................................
.............................. CYCLE   37 ..............................
........................................................................

 iter      E             dE          RMSdq      gap      omega  full diag
   1    -20.1317630 -0.201318E+02  0.214E-03    3.98       0.0  T
   2    -20.1317630 -0.232678E-09  0.126E-03    3.98      19.8  T
   3    -20.1317630 -0.104624E-09  0.647E-05    3.98     386.3  T
   4    -20.1317630 -0.426326E-11  0.378E-05    3.98     660.9  T
     SCC iter.                  ...        0 min,  0.001 sec
     gradient                   ...        0 min,  0.003 sec
 * total energy  :   -19.8676027 Eh     change       -0.6894442E-07 Eh
   gradient norm :     0.0000720 Eh/α   predicted    -0.3370688E-07 ( -51.11%)
   displ. norm   :     0.0039694 α      lambda       -0.3336308E-07
   maximum displ.:     0.0025049 α      in ANC's #4, #3, #1, ...

   *** GEOMETRY OPTIMIZATION CONVERGED AFTER 37 ITERATIONS ***

------------------------------------------------------------------------
 total energy gain   :        -0.0016248 Eh       -1.0196 kcal/mol
 total RMSD          :         0.7277192 a0        0.3851 Å
 total power (kW/mol):        -0.1152969 (step)  -14.5910 (real)
------------------------------------------------------------------------

 ANCopt (total)                0 d,  0 h,  0 min,  0.292 sec
 optimizer setup                ...        0 min,  0.000 sec (  0.116%)
 model hessian                  ...        0 min,  0.008 sec (  2.810%)
 ANC generation                 ...        0 min,  0.001 sec (  0.230%)
 coordinate transformation      ...        0 min,  0.000 sec (  0.074%)
 single point calculation       ...        0 min,  0.269 sec ( 91.834%)
 optimization log               ...        0 min,  0.008 sec (  2.815%)
 hessian update                 ...        0 min,  0.000 sec (  0.079%)
 rational function              ...        0 min,  0.004 sec (  1.454%)

================
 final structure:
================
$coord
       -3.81085816192749        1.21073228514987       -0.86129794526322      C
       -3.08289840261046       -0.84101591745488        1.02519676513301      C
       -0.50637610889529       -1.98775839820785        0.40456256387717      C
        1.67161936274389       -0.22230946740913        0.93291211401904      C
        1.51178457408199        1.56826716939393        2.36204621321093      O
        4.07509745608837       -0.86499792922709       -0.43296473850080      C
       -5.65211528436228        1.99332508308471       -0.39663314227438      H
       -3.88864181860061        0.44829910885031       -2.76881746213894      H
       -2.43310845465420        2.73643008873545       -0.81777057357832      H
       -4.51118869508841       -2.32772768194085        1.01262217891503      H
       -3.00981866392592       -0.02920625909535        2.92068980674303      H
       -0.18845942451529       -3.65578555138804        1.58213285353203      H
       -0.43301739769507       -2.59231000694525       -1.56380527842476      H
        4.40822514003518       -2.88902212947245       -0.39513253150567      H
        5.66034056045403        0.14230940521992        0.39617420799885      H
        3.87640181194227       -0.28493216870233       -2.39612994789166      H
$end
 
 Bond Distances (Angstroems)
 ---------------------------
C1-C2=1.5244         C1-H7=1.0869         C1-H8=1.0878         C1-H9=1.0881         C2-C1=1.5244         C2-C3=1.5281         
C2-H10=1.0910        C2-H11=1.0919        C3-C2=1.5281         C3-C4=1.5097         C3-H12=1.0935        C3-H13=1.0903        
C4-C3=1.5097         C4-O5=1.2153         C4-C6=1.5019         O5-C4=1.2153         C6-C4=1.5019         C6-H14=1.0857        
C6-H15=1.0864        C6-H16=1.0884        H7-C1=1.0869         H8-C1=1.0878         H9-C1=1.0881         H10-C2=1.0910        
H11-C2=1.0919        H12-C3=1.0935        H13-C3=1.0903        H14-C6=1.0857        H15-C6=1.0864        H16-C6=1.0884        
 C  H  Rav=1.0890 sigma=0.0024  Rmin=1.0857  Rmax=1.0935    10
 C  C  Rav=1.5160 sigma=0.0107  Rmin=1.5019  Rmax=1.5281     4
 O  C  Rav=1.2153 sigma=0.0000  Rmin=1.2153  Rmax=1.2153     1
 
 selected bond angles (degree)
 --------------------
H7-C1-C2=110.47                H8-C1-C2=110.67                H8-C1-H7=108.50                H9-C1-C2=110.20                
H9-C1-H7=108.25                H9-C1-H8=108.67                C3-C2-C1=111.57                H10-C2-C1=109.55               
H10-C2-C3=109.30               H11-C2-C1=109.29               H11-C2-C3=108.79               H11-C2-H10=108.29              
C4-C3-C2=113.30                H12-C3-C2=109.59               H12-C3-C4=106.05               H13-C3-C2=110.71               
H13-C3-C4=109.35               H13-C3-H12=107.58              O5-C4-C3=123.00                C6-C4-C3=114.66                
C6-C4-O5=122.34                H14-C6-C4=110.61               H15-C6-C4=110.39               H15-C6-H14=110.56              
H16-C6-C4=108.28               H16-C6-H14=108.15              H16-C6-H15=108.77              
 
 selected dihedral angles (degree)
 ---------------------------------
C3-C2-C1-H7=179.61            C3-C2-C1-H8= 59.41            C3-C2-C1-H9=299.18            H10-C2-C1-H7= 58.45           
H10-C2-C1-H8=298.26           H10-C2-C1-H9=178.03           H11-C2-C1-H7=299.96           H11-C2-C1-H8=179.76           
H11-C2-C1-H9= 59.53           C4-C3-C2-C1= 71.43            C4-C3-C2-H10=192.73           C4-C3-C2-H11=310.79           
H12-C3-C2-C1=189.66           H12-C3-C2-H10=310.96          H12-C3-C2-H11= 69.02          H13-C3-C2-C1=308.17           
H13-C3-C2-H10= 69.47          H13-C3-C2-H11=187.53          O5-C4-C3-C2= 20.63            O5-C4-C3-H12=260.37           
O5-C4-C3-H13=144.63           C6-C4-C3-C2=200.09            C6-C4-C3-H12= 79.83           C6-C4-C3-H13=324.10           
H14-C6-C4-C3=317.78           H14-C6-C4-O5=137.25           H15-C6-C4-C3=195.09           H15-C6-C4-O5= 14.56           
H16-C6-C4-C3= 76.13           H16-C6-C4-O5=255.60           
           -------------------------------------------------
          |                Final Singlepoint                |
           -------------------------------------------------

          ...................................................
          :                      SETUP                      :
          :.................................................:
          :  # basis functions                  34          :
          :  # atomic orbitals                  34          :
          :  # shells                           22          :
          :  # electrons                        36          :
          :  max. iterations                   250          :
          :  Hamiltonian                  GFN2-xTB          :
          :  restarted?                      false          :
          :  GBSA solvation                   true          :
          :  PC potential                    false          :
          :  electronic temp.          300.0000000     K    :
          :  accuracy                    1.0000000          :
          :  -> integral cutoff          0.2500000E+02      :
          :  -> integral neglect         0.1000000E-07      :
          :  -> SCF convergence          0.1000000E-05 Eh   :
          :  -> wf. convergence          0.1000000E-03 e    :
          :  Broyden damping             0.4000000          :
          :  net charge                          0          :
          :  unpaired electrons                  0          :
          ...................................................

 iter      E             dE          RMSdq      gap      omega  full diag
   1    -20.1317630 -0.201318E+02  0.919E-06    3.98       0.0  T
   2    -20.1317630 -0.238032E-12  0.593E-06    3.98    4216.3  T
   3    -20.1317630 -0.461853E-13  0.355E-06    3.98    7033.8  T

   *** convergence criteria satisfied after 3 iterations ***

         #    Occupation            Energy/Eh            Energy/eV
      -------------------------------------------------------------
         1        2.0000           -0.7132301             -19.4080
       ...           ...                  ...                  ...
        12        2.0000           -0.4715722             -12.8321
        13        2.0000           -0.4705459             -12.8042
        14        2.0000           -0.4647281             -12.6459
        15        2.0000           -0.4426052             -12.0439
        16        2.0000           -0.4403655             -11.9830
        17        2.0000           -0.4302052             -11.7065
        18        2.0000           -0.3960915             -10.7782 (HOMO)
        19                         -0.2497856              -6.7970 (LUMO)
        20                          0.0731116               1.9895
        21                          0.1061005               2.8871
        22                          0.1328994               3.6164
        23                          0.1481324               4.0309
       ...                                ...                  ...
        34                          0.6030959              16.4111
      -------------------------------------------------------------
                  HL-Gap            0.1463059 Eh            3.9812 eV
             Fermi-level           -0.3229385 Eh           -8.7876 eV

 SCC (total)                   0 d,  0 h,  0 min,  0.007 sec
 SCC setup                      ...        0 min,  0.001 sec ( 14.280%)
 Dispersion                     ...        0 min,  0.000 sec (  0.717%)
 classical contributions        ...        0 min,  0.000 sec (  0.237%)
 integral evaluation            ...        0 min,  0.001 sec ( 15.924%)
 iterations                     ...        0 min,  0.001 sec ( 15.286%)
 molecular gradient             ...        0 min,  0.004 sec ( 51.352%)
 printout                       ...        0 min,  0.000 sec (  1.961%)

         :::::::::::::::::::::::::::::::::::::::::::::::::::::
         ::                     SUMMARY                     ::
         :::::::::::::::::::::::::::::::::::::::::::::::::::::
         :: total energy             -19.867602725131 Eh    ::
         :: total w/o Gsasa/hb       -19.867742078864 Eh    ::
         :: gradient norm              0.000072183443 Eh/a0 ::
         :: HOMO-LUMO gap              3.981187430522 eV    ::
         ::.................................................::
         :: SCC energy               -20.131744460968 Eh    ::
         :: -> isotropic ES            0.040799089813 Eh    ::
         :: -> anisotropic ES          0.002536277324 Eh    ::
         :: -> anisotropic XC          0.009483601991 Eh    ::
         :: -> dispersion             -0.008548820142 Eh    ::
         :: -> Gsolv                  -0.008169236959 Eh    ::
         ::    -> Gelec               -0.008308590693 Eh    ::
         ::    -> Gsasa                0.000993792571 Eh    ::
         ::    -> Ghb                 -0.001935198536 Eh    ::
         ::    -> Gshift               0.001080759698 Eh    ::
         :: repulsion energy           0.264141735838 Eh    ::
         :: add. restraining           0.000000000000 Eh    ::
         :: total charge               0.000000000000 e     ::
         :::::::::::::::::::::::::::::::::::::::::::::::::::::

           ------------------------------------------------- 
          |                Numerical Hessian                |
           ------------------------------------------------- 
step length          :   0.00500
SCC accuracy         :   0.30000
Hessian scale factor :   1.00000
frozen atoms in %    :   0.00000    0
RMS gradient         :   0.00007
estimated CPU  time      0.01 min
estimated wall time      0.01 min

writing file <hessian>.

 projected vibrational frequencies (cm⁻¹)
eigval :       -0.00    -0.00     0.00     0.00     0.00     0.00
eigval :       41.20    95.96   119.63   193.88   268.35   339.74
eigval :      418.94   475.25   587.18   779.24   803.43   877.00
eigval :      948.20   963.30   987.45  1083.16  1086.60  1127.13
eigval :     1157.89  1191.29  1253.17  1320.09  1343.92  1359.24
eigval :     1411.52  1420.47  1435.30  1447.68  1477.32  1498.30
eigval :     1505.48  1705.56  2955.52  2976.50  2990.03  2994.92
eigval :     3022.58  3025.14  3029.68  3041.96  3049.84  3058.64
           -------------------------------------------------
          |                Property Printout                |
           -------------------------------------------------

    * Orbital Energies and Occupations

         #    Occupation            Energy/Eh            Energy/eV
      -------------------------------------------------------------
         1        2.0000           -0.7132302             -19.4080
       ...           ...                  ...                  ...
         6        2.0000           -0.5590032             -15.2113
         7        2.0000           -0.5439373             -14.8013
         8        2.0000           -0.5377567             -14.6331
         9        2.0000           -0.5128668             -13.9558
        10        2.0000           -0.4963106             -13.5053
        11        2.0000           -0.4926794             -13.4065
        12        2.0000           -0.4715722             -12.8321
        13        2.0000           -0.4705459             -12.8042
        14        2.0000           -0.4647281             -12.6459
        15        2.0000           -0.4426052             -12.0439
        16        2.0000           -0.4403655             -11.9830
        17        2.0000           -0.4302052             -11.7065
        18        2.0000           -0.3960915             -10.7782 (HOMO)
        19                         -0.2497856              -6.7970 (LUMO)
        20                          0.0731116               1.9895
        21                          0.1061005               2.8871
        22                          0.1328994               3.6164
        23                          0.1481324               4.0309
        24                          0.1607132               4.3732
        25                          0.1764748               4.8021
        26                          0.1804980               4.9116
        27                          0.1915897               5.2134
        28                          0.2070136               5.6331
        29                          0.2202754               5.9940
       ...                                ...                  ...
        34                          0.6030959              16.4111
      -------------------------------------------------------------
                  HL-Gap            0.1463059 Eh            3.9812 eV
             Fermi-level           -0.3229385 Eh           -8.7876 eV

     #   Z          covCN         q      C6AA      α(0)
     1   6 C        3.752    -0.110    22.655     6.788
     2   6 C        3.801    -0.055    21.561     6.611
     3   6 C        3.805    -0.099    22.386     6.736
     4   6 C        2.811     0.251    22.791     7.822
     5   8 O        0.857    -0.439    22.486     6.358
     6   6 C        3.754    -0.161    23.691     6.940
     7   1 H        0.925     0.039     2.462     2.454
     8   1 H        0.925     0.042     2.427     2.436
     9   1 H        0.925     0.032     2.555     2.499
    10   1 H        0.924     0.043     2.412     2.429
    11   1 H        0.924     0.042     2.423     2.434
    12   1 H        0.924     0.084     1.940     2.178
    13   1 H        0.924     0.076     2.018     2.221
    14   1 H        0.925     0.086     1.914     2.164
    15   1 H        0.925     0.072     2.060     2.244
    16   1 H        0.925     0.097     1.812     2.105

 Mol. C6AA /au·bohr⁶  :       1868.907105
 Mol. C8AA /au·bohr⁸  :      40097.154189
 Mol. α(0) /au        :         64.418990


Wiberg/Mayer (AO) data.
largest (>0.10) Wiberg bond orders for each atom

 ---------------------------------------------------------------------------
     #   Z sym  total        # sym  WBO       # sym  WBO       # sym  WBO
 ---------------------------------------------------------------------------
     1   6 C    3.996 --     2 C    1.020     9 H    0.988     8 H    0.987
                             7 H    0.987
     2   6 C    3.996 --     1 C    1.020     3 C    1.005    10 H    0.978
                            11 H    0.977
     3   6 C    3.995 --     2 C    1.005     4 C    1.001    13 H    0.959
                            12 H    0.935
     4   6 C    3.897 --     5 O    1.807     6 C    1.018     3 C    1.001
     5   8 O    2.016 --     4 C    1.807
     6   6 C    3.991 --     4 C    1.018    15 H    0.980    14 H    0.965
                            16 H    0.945
     7   1 H    0.998 --     1 C    0.987
     8   1 H    0.998 --     1 C    0.987
     9   1 H    0.999 --     1 C    0.988
    10   1 H    0.998 --     2 C    0.978
    11   1 H    0.998 --     2 C    0.977
    12   1 H    0.993 --     3 C    0.935
    13   1 H    0.994 --     3 C    0.959
    14   1 H    0.993 --     6 C    0.965
    15   1 H    0.995 --     6 C    0.980
    16   1 H    0.991 --     6 C    0.945
 ---------------------------------------------------------------------------

Topologies differ in total number of bonds
Writing topology from bond orders to xtbtopo.mol

molecular dipole:
                 x           y           z       tot (Debye)
 q only:        0.072      -1.182      -0.952
   full:        0.107      -1.259      -1.006       4.106
molecular quadrupole (traceless):
                xx          xy          yy          xz          yz          zz
 q only:        3.404      -2.373      -0.268      -2.830      -2.647      -3.135
  q+dip:        3.104      -2.070      -0.240      -2.839      -2.955      -2.865
   full:        3.024      -2.522      -0.261      -2.677      -3.652      -2.763

           -------------------------------------------------
          |                Geometry Summary                 |
           -------------------------------------------------

      molecular mass/u    :       86.1324919
   center of mass at/Å    :       -0.0116202      -0.0854702       0.2959928
  moments of inertia/u·Å² :        0.8045615E+02   0.2305474E+03   0.2521489E+03
rotational constants/cm⁻¹ :        0.2095257E+00   0.7312002E-01   0.6685586E-01

 * 13 selected distances

     #   Z          #   Z                                           value/Å
     1   6 C        2   6 C                                       1.5244033
     2   6 C        3   6 C                                       1.5280924 (max)
     4   6 C        5   8 O                                       1.2152814
     1   6 C        7   1 H                                       1.0868884
     1   6 C        8   1 H                                       1.0878404
     1   6 C        9   1 H                                       1.0880794
     2   6 C       10   1 H                                       1.0909889
     2   6 C       11   1 H                                       1.0918595
     3   6 C       12   1 H                                       1.0934981
     3   6 C       13   1 H                                       1.0903281
     6   6 C       14   1 H                                       1.0856622 (min)
     6   6 C       15   1 H                                       1.0864429
     6   6 C       16   1 H                                       1.0883536

 * 3 distinct bonds (by element types)

   Z      Z             #   av. dist./Å        max./Å        min./Å
   1 H    6 C          10     1.0889942     1.0934981     1.0856622
   6 C    6 C           2     1.5262479     1.5280924     1.5244033
   6 C    8 O           1     1.2152814     1.2152814     1.2152814

           -------------------------------------------------
          |               Frequency Printout                |
           -------------------------------------------------
 projected vibrational frequencies (cm⁻¹)
eigval :       -0.00    -0.00     0.00     0.00     0.00     0.00
eigval :       41.20    95.96   119.63   193.88   268.35   339.74
eigval :      418.94   475.25   587.18   779.24   803.43   877.00
eigval :      948.20   963.30   987.45  1083.16  1086.60  1127.13
eigval :     1157.89  1191.29  1253.17  1320.09  1343.92  1359.24
eigval :     1411.52  1420.47  1435.30  1447.68  1477.32  1498.30
eigval :     1505.48  1705.56  2955.52  2976.50  2990.03  2994.92
eigval :     3022.58  3025.14  3029.68  3041.96  3049.84  3058.64
 reduced masses (amu)
   1: 10.12   2: 10.50   3: 10.20   4: 11.09   5: 11.12   6: 11.71   7: 10.07   8:  7.01
   9:  2.73  10:  5.97  11:  5.65  12:  7.63  13:  9.12  14:  8.14  15: 10.34  16:  5.31
  17:  5.86  18:  5.28  19:  7.76  20:  4.23  21:  5.97  22:  5.42  23:  5.75  24:  7.75
  25:  8.15  26:  4.85  27:  3.28  28:  5.08  29:  4.94  30:  3.25  31:  3.07  32:  2.11
  33:  1.79  34:  1.65  35:  1.92  36:  1.57  37:  1.54  38: 13.22  39:  1.80  40:  1.96
  41:  1.48  42:  1.69  43:  1.79  44:  1.92  45:  1.81  46:  1.42  47:  1.43  48:  1.95
 IR intensities (km·mol⁻¹)
   1:  0.78   2:  0.83   3:  7.64   4:  0.02   5:  1.62   6:  0.79   7:  4.05   8:  2.22
   9:  0.51  10:  4.03  11:  3.04  12:  3.28  13:  4.27  14:  2.13  15: 14.21  16: 15.13
  17:  3.60  18:  1.60  19: 16.20  20: 20.65  21: 10.96  22: 10.89  23:  7.99  24: 13.74
  25:164.22  26:  7.65  27: 10.83  28: 41.88  29: 11.80  30: 55.35  31:  4.96  32: 11.30
  33: 25.32  34:  8.50  35:  0.36  36:  1.58  37:  0.82  38:541.83  39: 12.87  40: 43.83
  41: 45.03  42: 42.74  43:  1.65  44: 87.82  45: 73.09  46: 48.23  47:  5.91  48: 24.90
 Raman intensities (Ä⁴*amu⁻¹)
   1:  0.00   2:  0.00   3:  0.00   4:  0.00   5:  0.00   6:  0.00   7:  0.00   8:  0.00
   9:  0.00  10:  0.00  11:  0.00  12:  0.00  13:  0.00  14:  0.00  15:  0.00  16:  0.00
  17:  0.00  18:  0.00  19:  0.00  20:  0.00  21:  0.00  22:  0.00  23:  0.00  24:  0.00
  25:  0.00  26:  0.00  27:  0.00  28:  0.00  29:  0.00  30:  0.00  31:  0.00  32:  0.00
  33:  0.00  34:  0.00  35:  0.00  36:  0.00  37:  0.00  38:  0.00  39:  0.00  40:  0.00
  41:  0.00  42:  0.00  43:  0.00  44:  0.00  45:  0.00  46:  0.00  47:  0.00  48:  0.00
 output can be read by thermo (or use thermo option).
 writing <g98.out> molden fake output.
 recommended (thermochemical) frequency scaling factor: 1.0
           -------------------------------------------------
          |             Thermodynamic Functions             |
           -------------------------------------------------

Molecule has no symmetry elements
It seems to be the C1 point group
c1  symmetry found (for desy threshold:  0.10E+00) used in thermo

          ...................................................
          :                      SETUP                      :
          :.................................................:
          :  # frequencies                          42      :
          :  # imaginary freq.                       0      :
          :  linear?                             false      :
          :  only rotor calc.                    false      :
          :  symmetry                               c1      :
          :  rotational number                       1      :
          :  scaling factor                  1.0000000      :
          :  rotor cutoff                    0.0000000 cm⁻¹ :
          :  imag. cutoff                 -100.0000000 cm⁻¹ :
          :.................................................:

    mode    ω/cm⁻¹     T·S(HO)/kcal·mol⁻¹    T·S(FR)/kcal·mol⁻¹   T·S(vib)
   ------------------------------------------------------------------------
       1     41.20    -1.55057 (100.00%)    -1.11327 (  0.00%)    -1.55057
       2     95.96    -1.05389 (100.00%)    -0.86315 (  0.00%)    -1.05389
       3    119.63    -0.92615 (100.00%)    -0.79789 (  0.00%)    -0.92615
       4    193.88    -0.65307 (100.00%)    -0.65494 (  0.00%)    -0.65307
       5    268.35    -0.47907 (100.00%)    -0.55868 (  0.00%)    -0.47907
   ------------------------------------------------------------------------

   temp. (K)  partition function   enthalpy   heat capacity  entropy
                                   cal/mol     cal/K/mol   cal/K/mol   J/K/mol
 298.15  VIB   148.                 3102.971     20.447     20.336
         ROT  0.165E+06              888.752      2.981     26.858
         INT  0.244E+08             3991.723     23.428     47.194
         TR   0.773E+27             1481.254      4.968     39.255
         TOT                        5472.9768    28.3958    86.4489   361.7024

       T/K    H(0)-H(T)+PV         H(T)/Eh          T*S/Eh         G(T)/Eh
   ------------------------------------------------------------------------
    298.15    0.872174E-02    0.147388E+00    0.410747E-01    0.106314E+00
   ------------------------------------------------------------------------

         :::::::::::::::::::::::::::::::::::::::::::::::::::::
         ::                  THERMODYNAMIC                  ::
         :::::::::::::::::::::::::::::::::::::::::::::::::::::
         :: total free energy         -19.761288909905 Eh   ::
         ::.................................................::
         :: total energy              -19.867602725138 Eh   ::
         :: zero point energy           0.138666753146 Eh   ::
         :: G(RRHO) w/o ZPVE           -0.032352937913 Eh   ::
         :: G(RRHO) contrib.            0.106313815233 Eh   ::
         :::::::::::::::::::::::::::::::::::::::::::::::::::::

optimized geometry written to: xtbopt.coord


           -------------------------------------------------
          | TOTAL ENERGY              -19.867602725138 Eh   |
          | TOTAL ENTHALPY            -19.720214228325 Eh   |
          | TOTAL FREE ENERGY         -19.761288909905 Eh   |
          | GRADIENT NORM               0.000072189019 Eh/α |
          | HOMO-LUMO GAP               3.981186860075 eV   |
           -------------------------------------------------

------------------------------------------------------------------------
 * finished run on 2025/04/08 at 10:52:24.079     
------------------------------------------------------------------------
 total:
 * wall-time:     0 d,  0 h,  0 min,  1.105 sec
 *  cpu-time:     0 d,  0 h,  0 min,  1.026 sec
 * ratio c/w:     0.929 speedup
 SCF:
 * wall-time:     0 d,  0 h,  0 min,  0.017 sec
 *  cpu-time:     0 d,  0 h,  0 min,  0.016 sec
 * ratio c/w:     0.943 speedup
 ANC optimizer:
 * wall-time:     0 d,  0 h,  0 min,  0.311 sec
 *  cpu-time:     0 d,  0 h,  0 min,  0.295 sec
 * ratio c/w:     0.949 speedup
 analytical hessian:
 * wall-time:     0 d,  0 h,  0 min,  0.709 sec
 *  cpu-time:     0 d,  0 h,  0 min,  0.698 sec
 * ratio c/w:     0.984 speedup

