
                                 *****************
                                 * O   R   C   A *
                                 *****************

                                            #,                                       
                                            ###                                      
                                            ####                                     
                                            #####                                    
                                            ######                                   
                                           ########,                                 
                                     ,,################,,,,,                         
                               ,,#################################,,                 
                          ,,##########################################,,             
                       ,#########################################, ''#####,          
                    ,#############################################,,   '####,        
                  ,##################################################,,,,####,       
                ,###########''''           ''''###############################       
              ,#####''   ,,,,##########,,,,          '''####'''          '####       
            ,##' ,,,,###########################,,,                        '##       
           ' ,,###''''                  '''############,,,                           
         ,,##''                                '''############,,,,        ,,,,,,###''
      ,#''                                            '''#######################'''  
     '                                                          ''''####''''         
             ,#######,   #######,   ,#######,      ##                                
            ,#'     '#,  ##    ##  ,#'     '#,    #''#        ,####,   ,####,        
            ##       ##  ##   ,#'  ##            #'  '#       #'       #'  '#        
            ##       ##  #######   ##           ,######,      #####,   #    #        
            '#,     ,#'  ##    ##  '#,     ,#' ,#      #,     #,   #   #,  ,#        
             '#######'   ##     ##  '#######'  #'      '#     '####' # '####'        



                #########################################################
                #                        -***-                          #
                #          Department of theory and spectroscopy        #
                #                                                       #
                #                      Frank Neese                      #
                #                                                       #
                #     Directorship, Architecture, Infrastructure        #
                #                    SHARK, DRIVERS                     #
                #        Core code/Algorithms in most modules           #
                #                                                       #
                #        Max Planck Institute fuer Kohlenforschung      #
                #                Kaiser Wilhelm Platz 1                 #
                #                 D-45470 Muelheim/Ruhr                 #
                #                      Germany                          #
                #                                                       #
                #                  All rights reserved                  #
                #                        -***-                          #
                #########################################################


                         Program Version 6.0.0  -   RELEASE  -


 With contributions from (in alphabetic order):
   Daniel Aravena         : Magnetic Suceptibility
   Michael Atanasov       : Ab Initio Ligand Field Theory (pilot matlab implementation)
   Alexander A. Auer      : GIAO ZORA, VPT2 properties, NMR spectrum
   Ute Becker             : All parallelization in ORCA, NUMFREQ, NUMCALC
   Giovanni Bistoni       : ED, misc. LED, open-shell LED, HFLD
   Martin Brehm           : Molecular dynamics
   Dmytro Bykov           : pre 5.0 version of the SCF Hessian
   Marcos Casanova-Páez   : Triplet and SCS-CIS(D). UHF-(DLPNO)-IP/EA/STEOM-CCSD. UHF-CVS-IP/STEOM-CCSD
   Vijay G. Chilkuri      : MRCI spin determinant printing, contributions to CSF-ICE
   Pauline Colinet        : FMM embedding
   Dipayan Datta          : RHF DLPNO-CCSD density
   Achintya Kumar Dutta   : EOM-CC, STEOM-CC
   Nicolas Foglia         : Exact transition moments, OPA infrastructure, MCD improvements
   Dmitry Ganyushin       : Spin-Orbit,Spin-Spin,Magnetic field MRCI
   Miquel Garcia          : C-PCM and meta-GGA Hessian, CCSD/C-PCM, Gaussian charge scheme
   Tiago L. C. Gouveia    : GS-ROHF, GS-ROCIS
   Yang Guo               : DLPNO-NEVPT2, F12-NEVPT2, CIM, IAO-localization
   Andreas Hansen         : Spin unrestricted coupled pair/coupled cluster methods
   Ingolf Harden          : AUTO-CI MPn and infrastructure 
   Benjamin Helmich-Paris : MC-RPA, TRAH-(SCF,CASSCF), AVAS, COSX integrals, SCF dyn. polar.
   Lee Huntington         : MR-EOM, pCC
   Robert Izsak           : Overlap fitted RIJCOSX, COSX-SCS-MP3, EOM
   Riya Kayal             : Wick's Theorem for AUTO-CI, AUTO-CI UHF-CCSDT
   Emily Kempfer          : AUTO-CI, RHF CISDT and CCSDT
   Christian Kollmar      : KDIIS, OOCD, Brueckner-CCSD(T), CCSD density, CASPT2, CASPT2-K, improved NEVPT2
   Axel Koslowski         : Symmetry handling
   Simone Kossmann        : Meta GGA functionals, TD-DFT gradient, OOMP2, (MP2 Hessian; deprecated post 5.0)
   Lucas Lang             : DCDCAS
   Marvin Lechner         : AUTO-CI (C++ implementation), FIC-MRCC
   Spencer Leger          : CASSCF response
   Dagmar Lenk            : GEPOL surface, SMD, ORCA-2-JSON
   Dimitrios Liakos       : Extrapolation schemes; Compound Job, initial MDCI parallelization
   Dimitrios Manganas     : Further ROCIS development; embedding schemes. LFT, Crystal Embedding
   Dimitrios Pantazis     : SARC Basis sets
   Anastasios Papadopoulos: AUTO-CI, single reference methods and gradients
   Taras Petrenko         : pre 6.0 DFT Hessian and TD-DFT gradient, (ASA, deprecated), ECA, 1-Electron XAS/XES, NRVS
   Peter Pinski           : DLPNO-MP2, DLPNO-MP2 Gradient
   Christoph Reimann      : Effective Core Potentials
   Marius Retegan         : Local ZFS, SOC
   Christoph Riplinger    : Optimizer, TS searches, QM/MM, DLPNO-CCSD(T), (RO)-DLPNO pert. Triples
   Michael Roemelt        : Original ROCIS implementation
   Masaaki Saitow         : Open-shell DLPNO-CCSD energy and density
   Barbara Sandhoefer     : DKH picture change effects
   Kantharuban Sivalingam : CASSCF convergence/infrastructure, NEVPT2 and variants, FIC-MRCI
   Bernardo de Souza      : ESD, SOC TD-DFT
   Georgi Stoychev        : AutoAux, RI-MP2 NMR, DLPNO-MP2 response, X2C
   Van Anh Tran           : RI-MP2 g-tensors
   Willem Van den Heuvel  : Paramagnetic NMR
   Zikuan Wang            : NOTCH, Electric field optimization 
   Frank Wennmohs         : Technical directorship and infrastructure
   Hang Xu                : AUTO-CI-Response properties 


 We gratefully acknowledge several colleagues who have allowed us to
 interface, adapt or use parts of their codes:
   Stefan Grimme, W. Hujo, H. Kruse, P. Pracht,  : VdW corrections, initial TS optimization,
                  C. Bannwarth, S. Ehlert,         DFT functionals, gCP, sTDA/sTD-DF
                  L. Wittmann, M. Mueller
   Ed Valeev, F. Pavosevic, A. Kumar             : LibInt (2-el integral package), F12 methods
   Garnet Chan, S. Sharma, J. Yang, R. Olivares  : DMRG
   Ulf Ekstrom                                   : XCFun DFT Library
   Mihaly Kallay                                 : mrcc  (arbitrary order and MRCC methods)
   Frank Weinhold                                : gennbo (NPA and NBO analysis)
   Simon Mueller                                 : openCOSMO-RS
   Christopher J. Cramer and Donald G. Truhlar   : smd solvation model
   Lars Goerigk                                  : TD-DFT with DH, B97 family of functionals
   V. Asgeirsson, H. Jonsson                     : NEB implementation
   FAccTs GmbH                                   : IRC, NEB, NEB-TS, DLPNO-Multilevel, CI-OPT
                                                   MM, QMMM, 2- and 3-layer-ONIOM, Crystal-QMMM,
                                                   LR-CPCM, SF, NACMEs, symmetry and pop. for TD-DFT,
                                                   nearIR, NL-DFT gradient (VV10), updates on ESD,
                                                   ML-optimized integration grids, MBIS, APM,
                                                   GOAT, DOCKER, SOLVATOR, interface openCOSMO-RS
   S Lehtola, MJT Oliveira, MAL Marques          : LibXC Library
   Liviu Ungur et al                             : ANISO software


 Your calculation uses the libint2 library for the computation of 2-el integrals
 For citations please refer to: http://libint.valeyev.net

 Your ORCA version has been built with support for libXC version: 6.2.2
 For citations please refer to: https://libxc.gitlab.io

 This ORCA versions uses:
   CBLAS   interface :  Fast vector & matrix operations
   LAPACKE interface :  Fast linear algebra routines
   SCALAPACK package :  Parallel linear algebra routines
   Shared memory     :  Shared parallel matrices
   BLAS/LAPACK       :  OpenBLAS 0.3.27  USE64BITINT DYNAMIC_ARCH NO_AFFINITY SkylakeX SINGLE_THREADED
        Core in use  :  SkylakeX
   Copyright (c) 2011-2014, The OpenBLAS Project


Your calculation utilizes the geometrical counterpoise correction gCP
Please cite in your paper:
H.Kruse, S. Grimme J.Chem.Phys., 136, (2012), 154101 
   

Your calculation utilizes the atom-pairwise dispersion correction
based on EEQ partial charges (D4)


================================================================================

----- Orbital basis set information -----
Your calculation utilizes the basis: def2-SV(P)
   F. Weigend and R. Ahlrichs, Phys. Chem. Chem. Phys. 7, 3297 (2005).

----- AuxJ basis set information -----
Your calculation utilizes the auxiliary basis: def2/J
   F. Weigend, Phys. Chem. Chem. Phys. 8, 1057 (2006).

================================================================================
                                        WARNINGS
                       Please study these warnings very carefully!
================================================================================


================================================================================
                                       INPUT FILE
================================================================================
NAME = sp.inp
|  1> ! pbe def2-sv(p) def2/J RI DEFGRID1 loosescf d4 GCP(DFT/SV(P)) printgap
|  2> %output
|  3>     printlevel normal
|  4> end
|  5> * xyz 0 1
|  6> C 1.7115149251 1.1869244533 -0.6257792025
|  7> C 1.4427142274 -0.2504280287 -0.1926787798
|  8> H 2.1667987756 -0.9056872519 -0.7076510461
|  9> C 0.0310371917 -0.7468701235 -0.5495205273
| 10> C -1.103739315 0.0193205532 0.1529236785
| 11> C -1.7257702014 1.0715606315 -0.7639091166
| 12> C -2.1938471949 -0.9436937968 0.6246290561
| 13> O 1.6812721224 -0.3127691486 1.2052831233
| 14> H 1.0795313494 1.8678639106 -0.0639222384
| 15> H 2.7481889631 1.4376388338 -0.4162748052
| 16> H 1.5241122524 1.3002198796 -1.6888421926
| 17> H -0.0893648312 -0.689926642 -1.6318079652
| 18> H -0.0253888243 -1.8021775985 -0.2706874133
| 19> H -0.6822468793 0.5170942143 1.0334073335
| 20> H -2.4845488503 1.6373089689 -0.2275550731
| 21> H -2.1995330525 0.5896970432 -1.6171379525
| 22> H -0.9789996149 1.7672766977 -1.1337530537
| 23> H -1.7973498794 -1.6674229374 1.3327336662
| 24> H -2.9963093899 -0.3957274123 1.1131214175
| 25> H -2.6136280648 -1.4823245146 -0.2227071752
| 26> H 1.5644917945 -1.2226976631 1.5078327045
| 27> *
| 28> 
| 29>                          ****END OF INPUT****
================================================================================

                       ****************************
                       * Single Point Calculation *
                       ****************************

---------------------------------
CARTESIAN COORDINATES (ANGSTROEM)
---------------------------------
  C      1.711515    1.186924   -0.625779
  C      1.442714   -0.250428   -0.192679
  H      2.166799   -0.905687   -0.707651
  C      0.031037   -0.746870   -0.549521
  C     -1.103739    0.019321    0.152924
  C     -1.725770    1.071561   -0.763909
  C     -2.193847   -0.943694    0.624629
  O      1.681272   -0.312769    1.205283
  H      1.079531    1.867864   -0.063922
  H      2.748189    1.437639   -0.416275
  H      1.524112    1.300220   -1.688842
  H     -0.089365   -0.689927   -1.631808
  H     -0.025389   -1.802178   -0.270687
  H     -0.682247    0.517094    1.033407
  H     -2.484549    1.637309   -0.227555
  H     -2.199533    0.589697   -1.617138
  H     -0.979000    1.767277   -1.133753
  H     -1.797350   -1.667423    1.332734
  H     -2.996309   -0.395727    1.113121
  H     -2.613628   -1.482325   -0.222707
  H      1.564492   -1.222698    1.507833

----------------------------
CARTESIAN COORDINATES (A.U.)
----------------------------
  NO LB      ZA    FRAG     MASS         X           Y           Z
   0 C     6.0000    0    12.011    3.234294    2.242962   -1.182551
   1 C     6.0000    0    12.011    2.726335   -0.473240   -0.364110
   2 H     1.0000    0     1.008    4.094656   -1.711501   -1.337267
   3 C     6.0000    0    12.011    0.058652   -1.411380   -1.038443
   4 C     6.0000    0    12.011   -2.085765    0.036511    0.288984
   5 C     6.0000    0    12.011   -3.261233    2.024956   -1.443579
   6 C     6.0000    0    12.011   -4.145770   -1.783323    1.180378
   7 O     8.0000    0    15.999    3.177144   -0.591048    2.277655
   8 H     1.0000    0     1.008    2.040019    3.529751   -0.120796
   9 H     1.0000    0     1.008    5.193325    2.716744   -0.786645
  10 H     1.0000    0     1.008    2.880155    2.457059   -3.191449
  11 H     1.0000    0     1.008   -0.168875   -1.303772   -3.083670
  12 H     1.0000    0     1.008   -0.047978   -3.405622   -0.511525
  13 H     1.0000    0     1.008   -1.289260    0.977166    1.952857
  14 H     1.0000    0     1.008   -4.695117    3.094066   -0.430017
  15 H     1.0000    0     1.008   -4.156515    1.114366   -3.055948
  16 H     1.0000    0     1.008   -1.850041    3.339669   -2.142483
  17 H     1.0000    0     1.008   -3.396499   -3.150973    2.518502
  18 H     1.0000    0     1.008   -5.662204   -0.747816    2.103495
  19 H     1.0000    0     1.008   -4.939041   -2.801187   -0.420856
  20 H     1.0000    0     1.008    2.956461   -2.310564    2.849391

--------------------------------
INTERNAL COORDINATES (ANGSTROEM)
--------------------------------
 C      0   0   0     0.000000000000     0.00000000     0.00000000
 C      1   0   0     1.525061293437     0.00000000     0.00000000
 H      2   1   0     1.104019708877   108.13881778     0.00000000
 C      2   1   3     1.538383190031   113.57877201   240.66907644
 C      4   2   1     1.538893672572   114.21199587   296.55571023
 C      5   4   2     1.527977087586   111.66429305    99.44658629
 C      5   4   2     1.529129749689   110.66713403   221.29739110
 O      2   1   3     1.419539984296   106.94433305   117.07842768
 H      1   2   3     1.085709460477   109.97142770   185.47800012
 H      1   2   3     1.086941973677   109.31497859   304.01545468
 H      1   2   3     1.085384050130   110.24870313    64.10216815
 H      4   2   1     1.090451881304   108.34217810    59.80784379
 H      4   2   1     1.092980177101   107.44432855   175.47730004
 H      5   4   2     1.095758165728   108.01782564   339.58127916
 H      6   5   4     1.087884129527   110.25744408   183.25808332
 H      6   5   4     1.088413158329   110.04119828    63.92292668
 H      6   5   4     1.085574360161   111.45187227   303.60219113
 H      7   5   4     1.087384995757   111.10619671    60.47922118
 H      7   5   4     1.087583339378   110.31917299   180.44173846
 H      7   5   4     1.088263625123   110.27387001   300.06388522
 H      8   2   1     0.965993682986   109.23787796   182.90208897

---------------------------
INTERNAL COORDINATES (A.U.)
---------------------------
 C      0   0   0     0.000000000000     0.00000000     0.00000000
 C      1   0   0     2.881948182039     0.00000000     0.00000000
 H      2   1   0     2.086294896229   108.13881778     0.00000000
 C      2   1   3     2.907122918187   113.57877201   240.66907644
 C      4   2   1     2.908087590385   114.21199587   296.55571023
 C      5   4   2     2.887458234444   111.66429305    99.44658629
 C      5   4   2     2.889636450143   110.66713403   221.29739110
 O      2   1   3     2.682541806471   106.94433305   117.07842768
 H      1   2   3     2.051693541310   109.97142770   185.47800012
 H      1   2   3     2.054022653713   109.31497859   304.01545468
 H      1   2   3     2.051078604871   110.24870313    64.10216815
 H      4   2   1     2.060655417884   108.34217810    59.80784379
 H      4   2   1     2.065433204525   107.44432855   175.47730004
 H      5   4   2     2.070682842234   108.01782564   339.58127916
 H      6   5   4     2.055803070245   110.25744408   183.25808332
 H      6   5   4     2.056802789797   110.04119828    63.92292668
 H      6   5   4     2.051438238712   111.45187227   303.60219113
 H      7   5   4     2.054859844116   111.10619671    60.47922118
 H      7   5   4     2.055234659240   110.31917299   180.44173846
 H      7   5   4     2.056520212990   110.27387001   300.06388522
 H      8   2   1     1.825463507942   109.23787796   182.90208897

---------------------
BASIS SET INFORMATION
---------------------
There are 3 groups of distinct atoms

 Group   1 Type C   : 7s4p1d contracted to 3s2p1d pattern {511/31/1}
 Group   2 Type H   : 4s contracted to 2s pattern {31}
 Group   3 Type O   : 7s4p1d contracted to 3s2p1d pattern {511/31/1}

Atom   0C    basis set group =>   1
Atom   1C    basis set group =>   1
Atom   2H    basis set group =>   2
Atom   3C    basis set group =>   1
Atom   4C    basis set group =>   1
Atom   5C    basis set group =>   1
Atom   6C    basis set group =>   1
Atom   7O    basis set group =>   3
Atom   8H    basis set group =>   2
Atom   9H    basis set group =>   2
Atom  10H    basis set group =>   2
Atom  11H    basis set group =>   2
Atom  12H    basis set group =>   2
Atom  13H    basis set group =>   2
Atom  14H    basis set group =>   2
Atom  15H    basis set group =>   2
Atom  16H    basis set group =>   2
Atom  17H    basis set group =>   2
Atom  18H    basis set group =>   2
Atom  19H    basis set group =>   2
Atom  20H    basis set group =>   2
---------------------------------
AUXILIARY/J BASIS SET INFORMATION
---------------------------------
There are 3 groups of distinct atoms

 Group   1 Type C   : 12s5p4d2f1g contracted to 6s4p3d1f1g pattern {711111/2111/211/2/1}
 Group   2 Type H   : 5s2p1d contracted to 3s1p1d pattern {311/2/1}
 Group   3 Type O   : 12s5p4d2f1g contracted to 6s4p3d1f1g pattern {711111/2111/211/2/1}

Atom   0C    basis set group =>   1
Atom   1C    basis set group =>   1
Atom   2H    basis set group =>   2
Atom   3C    basis set group =>   1
Atom   4C    basis set group =>   1
Atom   5C    basis set group =>   1
Atom   6C    basis set group =>   1
Atom   7O    basis set group =>   3
Atom   8H    basis set group =>   2
Atom   9H    basis set group =>   2
Atom  10H    basis set group =>   2
Atom  11H    basis set group =>   2
Atom  12H    basis set group =>   2
Atom  13H    basis set group =>   2
Atom  14H    basis set group =>   2
Atom  15H    basis set group =>   2
Atom  16H    basis set group =>   2
Atom  17H    basis set group =>   2
Atom  18H    basis set group =>   2
Atom  19H    basis set group =>   2
Atom  20H    basis set group =>   2
------------------------------------------------------------------------------
                             ORCA STARTUP CALCULATIONS
                           -- RI-GTO INTEGRALS CHOSEN --
------------------------------------------------------------------------------
------------------------------------------------------------------------------
                   ___                                                        
                  /   \      - P O W E R E D   B Y -                         
                 /     \                                                     
                 |  |  |   _    _      __       _____    __    __             
                 |  |  |  | |  | |    /  \     |  _  \  |  |  /  |          
                  \  \/   | |  | |   /    \    | | | |  |  | /  /          
                 / \  \   | |__| |  /  /\  \   | |_| |  |  |/  /          
                |  |  |   |  __  | /  /__\  \  |    /   |      \           
                |  |  |   | |  | | |   __   |  |    \   |  |\   \          
                \     /   | |  | | |  |  |  |  | |\  \  |  | \   \       
                 \___/    |_|  |_| |__|  |__|  |_| \__\ |__|  \__/        
                                                                              
                      - O R C A' S   B I G   F R I E N D -                    
                                      &                                       
                       - I N T E G R A L  F E E D E R -                       
                                                                              
 v1 FN, 2020, v2 2021, v3 2022-2024                                           
------------------------------------------------------------------------------


----------------------
SHARK INTEGRAL PACKAGE
----------------------

Number of atoms                             ...     21
Number of basis functions                   ...    126
Number of shells                            ...     70
Maximum angular momentum                    ...      2
Integral batch strategy                     ... SHARK/LIBINT Hybrid
RI-J (if used) integral strategy            ... SPLIT-RIJ (Revised 2003 algorithm where possible)
Printlevel                                  ...      1
Contraction scheme used                     ... SEGMENTED contraction
Prescreening option                         ... SCHWARTZ
   Thresh                                   ... 1.000e-09
   Tcut                                     ... 1.000e-10
   Tpresel                                  ... 1.000e-10 
Coulomb Range Separation                    ... NOT USED
Exchange Range Separation                   ... NOT USED
Multipole approximations                    ... NOT USED
Finite Nucleus Model                        ... NOT USED
CABS basis                                  ... NOT available
Auxiliary Coulomb fitting basis             ... AVAILABLE
   # of basis functions in Aux-J            ...    497
   # of shells in Aux-J                     ...    175
   Maximum angular momentum in Aux-J        ...      4
Auxiliary J/K fitting basis                 ... NOT available
Auxiliary Correlation fitting basis         ... NOT available
Auxiliary 'external' fitting basis          ... NOT available

Checking pre-screening integrals            ... done (  0.0 sec) Dimension = 70
Check shell pair data                       ... done (  0.0 sec)
Shell pair information
Shell pair cut-off parameter TPreSel        ...   1.0e-10
Total number of shell pairs                 ...      2485
Shell pairs after pre-screening             ...      2395
Total number of primitive shell pairs       ...     10003
Primitive shell pairs kept                  ...      6942
          la=0 lb=0:   1173 shell pairs
          la=1 lb=0:    671 shell pairs
          la=1 lb=1:    105 shell pairs
          la=2 lb=0:    323 shell pairs
          la=2 lb=1:     97 shell pairs
          la=2 lb=2:     26 shell pairs

Calculating one electron integrals          ... done (  0.0 sec)
Calculating RI/J V-Matrix + Cholesky decomp.... done (  0.1 sec)
Calculating Nuclear repulsion               ... done (  0.0 sec) ENN=    337.101055518823 Eh

Diagonalization of the overlap matrix:
Smallest eigenvalue                        ... 1.760e-03
Time for diagonalization                   ...    0.002 sec
Threshold for overlap eigenvalues          ... 1.000e-07
Number of eigenvalues below threshold      ... 0
Time for construction of square roots      ...    0.021 sec
Total time needed                          ...    0.034 sec

-------------------
DFT GRID GENERATION
-------------------

General Integration Accuracy     IntAcc      ... 4.159
Radial Grid Type                 RadialGrid  ... OptM3 with GC (2021)
Angular Grid (max. ang.)         AngularGrid ... 3 (Lebedev-194)
Angular grid pruning method      GridPruning ... 4 (adaptive)
Weight generation scheme         WeightScheme... mBecke (2022)
Basis function cutoff            BFCut       ... 1.0000e-10
Integration weight cutoff        WCut        ... 1.0000e-14
Partially contracted basis set               ... off
Rotationally invariant grid construction     ... off
Angular grids for H and He will be reduced by one unit

Total number of grid points                  ...    42197
Total number of batches                      ...      669
Average number of points per batch           ...       63
Average number of grid points per atom       ...     2009
Initializing property integral containers    ... done (  0.0 sec)

SHARK setup successfully completed in   0.7 seconds

Maximum memory used throughout the entire STARTUP-calculation: 20.5 MB
-------------------------------------------------------------------------------
                                 ORCA GUESS
                   Start orbitals & Density for SCF / CASSCF
-------------------------------------------------------------------------------

------------
SCF SETTINGS
------------
Hamiltonian:
 Density Functional     Method          .... DFT(GTOs)
 Exchange Functional    Exchange        .... PBE
   PBE kappa parameter   XKappa         ....  0.804000
   PBE mue parameter    XMuePBE         ....  0.219520
 Correlation Functional Correlation     .... PBE
   PBE beta parameter  CBetaPBE         ....  0.066725
 LDA part of GGA corr.  LDAOpt          .... PW91-LDA
 Gradients option       PostSCFGGA      .... off
   NL short-range parameter             ....  6.400000
 RI-approximation to the Coulomb term is turned on
   Number of AuxJ basis functions       .... 497


General Settings:
 Integral files         IntName         .... sp
 Hartree-Fock type      HFTyp           .... RHF
 Total Charge           Charge          ....    0
 Multiplicity           Mult            ....    1
 Number of Electrons    NEL             ....   58
 Basis Dimension        Dim             ....  126
 Nuclear Repulsion      ENuc            ....    337.1010555188 Eh

Convergence Acceleration:
 AO-DIIS                CNVDIIS         .... on
   Start iteration      DIISMaxIt       ....    12
   Startup error        DIISStart       ....  0.200000
   # of expansion vecs  DIISMaxEq       ....     5
   Bias factor          DIISBfac        ....   1.050
   Max. coefficient     DIISMaxC        ....  10.000
 MO-DIIS                CNVKDIIS        .... off
 Trust-Rad. Augm. Hess. CNVTRAH         .... auto
   Auto Start mean grad. ratio tolernc. ....  1.125000
   Auto Start start iteration           ....    50
   Auto Start num. interpolation iter.  ....    10
   Max. Number of Micro iterations      ....    24
   Max. Number of Macro iterations      .... Maxiter - #DIIS iter
   Number of Davidson start vectors     ....     2
   Converg. threshold    (grad. norm)   ....   1.000e-04
   Grad. Scal. Fac. for Micro threshold ....   0.100
   Minimum threshold for Micro iter.    ....   1.000e-02
   NR start threshold (gradient norm)   ....   1.000e-04
   Initial trust radius                 ....   0.400
   Minimum AH scaling param. (alpha)    ....   1.000
   Maximum AH scaling param. (alpha)    .... 1000.000
   Quad. conv. algorithm                .... NR
   White noise on init. David. guess    .... on
   Maximum white noise                  ....   0.010
   Pseudo random numbers                .... off
   Inactive MOs                         .... canonical
   Orbital update algorithm             .... Taylor
   Preconditioner                       .... Diag
   Full preconditioner red. dimension   ....   250
 SOSCF                  CNVSOSCF        .... on
   Start iteration      SOSCFMaxIt      ....   150
   Startup grad/error   SOSCFStart      ....  0.003300
   Hessian update       SOSCFHessUp     .... L-BFGS
 Level Shifting         CNVShift        .... on
   Level shift para.    LevelShift      ....    0.2500
   Turn off err/grad.   ShiftErr        ....    0.0010
 Zerner damping         CNVZerner       .... off
 Static damping         CNVDamp         .... on
   Fraction old density DampFac         ....    0.7000
   Max. Damping (<1)    DampMax         ....    0.9800
   Min. Damping (>=0)   DampMin         ....    0.0000
   Turn off err/grad.   DampErr         ....    0.1000

SCF Procedure:
 Maximum # iterations   MaxIter         ....   125
 SCF integral mode      SCFMode         .... Direct
   Integral package                     .... SHARK and LIBINT hybrid scheme
 Reset frequency        DirectResetFreq ....    20
 Integral Threshold     Thresh          ....  1.000e-09 Eh
 Primitive CutOff       TCut            ....  1.000e-10 Eh

Convergence Tolerance:
 Convergence Check Mode ConvCheckMode   .... Total+1el-Energy
 Convergence forced     ConvForced      .... 0
 Energy Change          TolE            ....  1.000e-05 Eh
 1-El. energy change                    ....  1.000e-02 Eh
 Orbital Gradient       TolG            ....  1.000e-04
 Orbital Rotation angle TolX            ....  1.000e-04
 DIIS Error             TolErr          ....  5.000e-04

------------------------------
INITIAL GUESS: MODEL POTENTIAL
------------------------------
Loading Hartree-Fock densities                     ... done
Calculating cut-offs                               ... done
Initializing the effective Hamiltonian             ... done
Setting up the integral package (SHARK)            ... done
Starting the Coulomb interaction                   ... done (   0.1 sec)
Making the grid                                    ... done (   0.2 sec)
Mapping shells                                     ... done
Starting the XC term evaluation                    ... done (   0.2 sec)
  promolecular density results
     # of electrons  =     57.991852110
     EX              =    -42.988328937
     EC              =     -1.896733535
     EX+EC           =    -44.885062473
Transforming the Hamiltonian                       ... done (   0.0 sec)
Diagonalizing the Hamiltonian                      ... done (   0.0 sec)
Back transforming the eigenvectors                 ... done (   0.0 sec)
Now organizing SCF variables                       ... done
                      ------------------
                      INITIAL GUESS DONE (   0.5 sec)
                      ------------------
             **** ENERGY FILE WAS UPDATED (sp.en.tmp) ****
Finished Guess after   0.7 sec
Maximum memory used throughout the entire GUESS-calculation: 15.6 MB

-------------------------------------------------------------------------------------------
                                      ORCA LEAN-SCF
                              memory conserving SCF solver
-------------------------------------------------------------------------------------------

----------------------------------------D-I-I-S--------------------------------------------
Iteration    Energy (Eh)           Delta-E    RMSDP     MaxDP     DIISErr   Damp  Time(sec)
-------------------------------------------------------------------------------------------
               ***  Starting incremental Fock matrix formation  ***
    1    -311.3517468808807394     0.00e+00  5.20e-03  8.34e-02  2.33e-01  0.700   0.9
    2    -311.4736437334290144    -1.22e-01  3.61e-03  4.79e-02  9.02e-02  0.700   1.2
                               ***Turning on AO-DIIS***
    3    -311.5143917338501183    -4.07e-02  1.38e-03  1.55e-02  2.10e-02  0.700   0.9
    4    -311.5385743574840376    -2.42e-02  1.94e-03  2.37e-02  8.73e-03  0.000   0.9
    5    -311.5944665801819724    -5.59e-02  6.22e-04  6.52e-03  1.17e-02  0.000   0.9
                              *** Initializing SOSCF ***
---------------------------------------S-O-S-C-F--------------------------------------
Iteration    Energy (Eh)           Delta-E    RMSDP     MaxDP     MaxGrad    Time(sec)
--------------------------------------------------------------------------------------
    6    -311.5951126059541707    -6.46e-04  2.32e-04  2.57e-03  2.01e-03     1.0
               *** Restarting incremental Fock matrix formation ***
    7    -311.5951690900110975    -5.65e-05  1.66e-04  2.60e-03  3.24e-04     0.9
    8    -311.5951668885492722     2.20e-06  5.68e-05  1.26e-03  7.03e-04     1.0
                 **** Energy Check signals convergence ****

               *****************************************************
               *                     SUCCESS                       *
               *           SCF CONVERGED AFTER   8 CYCLES          *
               *****************************************************

             **** ENERGY FILE WAS UPDATED (sp.en.tmp) ****

----------------
TOTAL SCF ENERGY
----------------

Total Energy       :       -311.59516688854927 Eh           -8478.93555 eV

Components:
Nuclear Repulsion  :        337.10105551882333 Eh            9172.98607 eV
Electronic Energy  :       -648.69622240737249 Eh          -17651.92162 eV
One Electron Energy:      -1089.30547312335125 Eh          -29641.50887 eV
Two Electron Energy:        440.60925071597870 Eh           11989.58725 eV

Virial components:
Potential Energy   :       -620.48074105286946 Eh          -16884.13934 eV
Kinetic Energy     :        308.88557416432013 Eh            8405.20379 eV
Virial Ratio       :          2.00877215691137

DFT components:
N(Alpha)           :       28.999850272568 electrons
N(Beta)            :       28.999850272568 electrons
N(Total)           :       57.999700545136 electrons
E(X)               :      -44.060331891580 Eh       
E(C)               :       -1.907621103887 Eh       
E(XC)              :      -45.967952995467 Eh       

---------------
SCF CONVERGENCE
---------------

  Last Energy change         ...   -2.2015e-06  Tolerance :   1.0000e-05
  Last MAX-Density change    ...    1.2633e-03  Tolerance :   1.0000e-03
  Last RMS-Density change    ...    5.6806e-05  Tolerance :   1.0000e-04
  Last DIIS Error            ...    2.0136e-03  Tolerance :   5.0000e-04
  Last Orbital Gradient      ...    7.0279e-04  Tolerance :   1.0000e-04
  Last Orbital Rotation      ...    2.7148e-04  Tolerance :   1.0000e-04


----------------
ORBITAL ENERGIES
----------------

  NO   OCC          E(Eh)            E(eV) 
   0   2.0000     -18.738983      -509.9136 
   1   2.0000      -9.935972      -270.3715 
   2   2.0000      -9.889151      -269.0975 
   3   2.0000      -9.879848      -268.8443 
   4   2.0000      -9.870536      -268.5909 
   5   2.0000      -9.870224      -268.5824 
   6   2.0000      -9.869042      -268.5503 
   7   2.0000      -0.916501       -24.9393 
   8   2.0000      -0.728257       -19.8169 
   9   2.0000      -0.675317       -18.3763 
  10   2.0000      -0.612593       -16.6695 
  11   2.0000      -0.605163       -16.4673 
  12   2.0000      -0.527509       -14.3543 
  13   2.0000      -0.500724       -13.6254 
  14   2.0000      -0.447564       -12.1788 
  15   2.0000      -0.420464       -11.4414 
  16   2.0000      -0.404187       -10.9985 
  17   2.0000      -0.378974       -10.3124 
  18   2.0000      -0.368784       -10.0351 
  19   2.0000      -0.351056        -9.5527 
  20   2.0000      -0.339450        -9.2369 
  21   2.0000      -0.336407        -9.1541 
  22   2.0000      -0.325924        -8.8688 
  23   2.0000      -0.307937        -8.3794 
  24   2.0000      -0.289066        -7.8659 
  25   2.0000      -0.280914        -7.6441 
  26   2.0000      -0.278166        -7.5693 
  27   2.0000      -0.260924        -7.1001 
  28   2.0000      -0.211657        -5.7595 
  29   0.0000       0.019694         0.5359 
  30   0.0000       0.051196         1.3931 
  31   0.0000       0.064682         1.7601 
  32   0.0000       0.075521         2.0550 
  33   0.0000       0.085194         2.3183 
  34   0.0000       0.098371         2.6768 
  35   0.0000       0.104694         2.8489 
  36   0.0000       0.110531         3.0077 
  37   0.0000       0.121889         3.3168 
  38   0.0000       0.128300         3.4912 
  39   0.0000       0.137450         3.7402 
*Only the first 10 virtual orbitals were printed.

                    ********************************
                    * MULLIKEN POPULATION ANALYSIS *
                    ********************************

-----------------------
MULLIKEN ATOMIC CHARGES
-----------------------
   0 C :   -0.252206
   1 C :    0.010019
   2 H :    0.057397
   3 C :   -0.129345
   4 C :   -0.180846
   5 C :   -0.253154
   6 C :   -0.250918
   7 O :   -0.423877
   8 H :    0.117654
   9 H :    0.106943
  10 H :    0.100075
  11 H :    0.075580
  12 H :    0.065719
  13 H :    0.090526
  14 H :    0.096737
  15 H :    0.091421
  16 H :    0.101243
  17 H :    0.093002
  18 H :    0.096413
  19 H :    0.093509
  20 H :    0.294109
Sum of atomic charges:   -0.0000000

--------------------------------
MULLIKEN REDUCED ORBITAL CHARGES
--------------------------------
  0 C s       :     3.081397  s :     3.081397
      pz      :     1.031109  p :     3.143306
      px      :     1.077630
      py      :     1.034566
      dz2     :     0.007763  d :     0.027503
      dxz     :     0.002712
      dyz     :     0.004058
      dx2y2   :     0.006421
      dxy     :     0.006550

  1 C s       :     3.061614  s :     3.061614
      pz      :     0.769024  p :     2.858071
      px      :     1.008454
      py      :     1.080593
      dz2     :     0.020515  d :     0.070296
      dxz     :     0.017758
      dyz     :     0.013313
      dx2y2   :     0.007845
      dxy     :     0.010865

  2 H s       :     0.942603  s :     0.942603

  3 C s       :     3.046944  s :     3.046944
      pz      :     1.033247  p :     3.048373
      px      :     0.995861
      py      :     1.019266
      dz2     :     0.010595  d :     0.034028
      dxz     :     0.004383
      dyz     :     0.002712
      dx2y2   :     0.010769
      dxy     :     0.005569

  4 C s       :     3.117069  s :     3.117069
      pz      :     1.028540  p :     3.021051
      px      :     0.979708
      py      :     1.012804
      dz2     :     0.006703  d :     0.042725
      dxz     :     0.009076
      dyz     :     0.009866
      dx2y2   :     0.006816
      dxy     :     0.010266

  5 C s       :     3.081606  s :     3.081606
      pz      :     1.045558  p :     3.142191
      px      :     1.055989
      py      :     1.040644
      dz2     :     0.004128  d :     0.029358
      dxz     :     0.007314
      dyz     :     0.006945
      dx2y2   :     0.001899
      dxy     :     0.009072

  6 C s       :     3.087629  s :     3.087629
      pz      :     1.048126  p :     3.133791
      px      :     1.042616
      py      :     1.043049
      dz2     :     0.002196  d :     0.029497
      dxz     :     0.006936
      dyz     :     0.009283
      dx2y2   :     0.003714
      dxy     :     0.007368

  7 O s       :     3.794228  s :     3.794228
      pz      :     1.331837  p :     4.614469
      px      :     1.882383
      py      :     1.400249
      dz2     :     0.004639  d :     0.015181
      dxz     :     0.001976
      dyz     :     0.002832
      dx2y2   :     0.004681
      dxy     :     0.001053

  8 H s       :     0.882346  s :     0.882346

  9 H s       :     0.893057  s :     0.893057

 10 H s       :     0.899925  s :     0.899925

 11 H s       :     0.924420  s :     0.924420

 12 H s       :     0.934281  s :     0.934281

 13 H s       :     0.909474  s :     0.909474

 14 H s       :     0.903263  s :     0.903263

 15 H s       :     0.908579  s :     0.908579

 16 H s       :     0.898757  s :     0.898757

 17 H s       :     0.906998  s :     0.906998

 18 H s       :     0.903587  s :     0.903587

 19 H s       :     0.906491  s :     0.906491

 20 H s       :     0.705891  s :     0.705891


------------------------
MULLIKEN OVERLAP CHARGES
------------------------
B(  0-C ,  1-C ) :   0.7789 B(  0-C ,  2-H ) :  -0.0864 B(  0-C ,  3-C ) :  -0.1286 
B(  0-C ,  7-O ) :  -0.1391 B(  0-C ,  8-H ) :   0.7233 B(  0-C ,  9-H ) :   0.6891 
B(  0-C , 10-H ) :   0.6983 B(  1-C ,  2-H ) :   0.7114 B(  1-C ,  3-C ) :   0.7970 
B(  1-C ,  7-O ) :   0.6625 B(  1-C , 20-H ) :  -0.0737 B(  2-H ,  3-C ) :  -0.1168 
B(  2-H ,  7-O ) :  -0.0645 B(  3-C ,  4-C ) :   0.7186 B(  3-C ,  5-C ) :  -0.0966 
B(  3-C ,  6-C ) :  -0.0759 B(  3-C ,  7-O ) :  -0.1289 B(  3-C , 11-H ) :   0.5911 
B(  3-C , 12-H ) :   0.6701 B(  3-C , 13-H ) :  -0.1465 B(  4-C ,  5-C ) :   0.8857 
B(  4-C ,  6-C ) :   0.8743 B(  4-C , 12-H ) :  -0.0744 B(  4-C , 13-H ) :   0.7390 
B(  5-C ,  6-C ) :  -0.1409 B(  5-C , 13-H ) :  -0.0511 B(  5-C , 14-H ) :   0.7350 
B(  5-C , 15-H ) :   0.7332 B(  5-C , 16-H ) :   0.7260 B(  6-C , 13-H ) :  -0.0767 
B(  6-C , 17-H ) :   0.7170 B(  6-C , 18-H ) :   0.7376 B(  6-C , 19-H ) :   0.7373 
B(  7-O , 13-H ) :   0.0566 B(  7-O , 20-H ) :   0.5115 B( 14-H , 15-H ) :  -0.0505 
B( 17-H , 19-H ) :  -0.0541 B( 18-H , 19-H ) :  -0.0510 


                     *******************************
                     * LOEWDIN POPULATION ANALYSIS *
                     *******************************

----------------------
LOEWDIN ATOMIC CHARGES
----------------------
   0 C :   -0.341575
   1 C :   -0.054049
   2 H :    0.094519
   3 C :   -0.231299
   4 C :   -0.162498
   5 C :   -0.330542
   6 C :   -0.328643
   7 O :   -0.332121
   8 H :    0.124701
   9 H :    0.124564
  10 H :    0.121749
  11 H :    0.119219
  12 H :    0.108862
  13 H :    0.116034
  14 H :    0.116840
  15 H :    0.114110
  16 H :    0.115594
  17 H :    0.112288
  18 H :    0.116214
  19 H :    0.114668
  20 H :    0.281366

-------------------------------
LOEWDIN REDUCED ORBITAL CHARGES
-------------------------------
  0 C s       :     2.951679  s :     2.951679
      pz      :     1.111750  p :     3.321601
      px      :     1.128694
      py      :     1.081157
      dz2     :     0.019545  d :     0.068294
      dxz     :     0.006666
      dyz     :     0.010243
      dx2y2   :     0.016888
      dxy     :     0.014952

  1 C s       :     2.884265  s :     2.884265
      pz      :     0.860056  p :     3.009826
      px      :     1.060757
      py      :     1.089013
      dz2     :     0.048062  d :     0.159959
      dxz     :     0.038499
      dyz     :     0.027614
      dx2y2   :     0.021791
      dxy     :     0.023992

  2 H s       :     0.905481  s :     0.905481

  3 C s       :     2.925041  s :     2.925041
      pz      :     1.091024  p :     3.221403
      px      :     1.053553
      py      :     1.076826
      dz2     :     0.025898  d :     0.084855
      dxz     :     0.011532
      dyz     :     0.006476
      dx2y2   :     0.026534
      dxy     :     0.014415

  4 C s       :     2.874525  s :     2.874525
      pz      :     1.078901  p :     3.184520
      px      :     1.043714
      py      :     1.061905
      dz2     :     0.014081  d :     0.103452
      dxz     :     0.022577
      dyz     :     0.025386
      dx2y2   :     0.013563
      dxy     :     0.027846

  5 C s       :     2.948076  s :     2.948076
      pz      :     1.105627  p :     3.310983
      px      :     1.111118
      py      :     1.094237
      dz2     :     0.008920  d :     0.071484
      dxz     :     0.017730
      dyz     :     0.018482
      dx2y2   :     0.004034
      dxy     :     0.022318

  6 C s       :     2.950477  s :     2.950477
      pz      :     1.111320  p :     3.306521
      px      :     1.095464
      py      :     1.099737
      dz2     :     0.005385  d :     0.071645
      dxz     :     0.016586
      dyz     :     0.022442
      dx2y2   :     0.007871
      dxy     :     0.019361

  7 O s       :     3.548323  s :     3.548323
      pz      :     1.406600  p :     4.757400
      px      :     1.879673
      py      :     1.471126
      dz2     :     0.009304  d :     0.026398
      dxz     :     0.003238
      dyz     :     0.005204
      dx2y2   :     0.007373
      dxy     :     0.001280

  8 H s       :     0.875299  s :     0.875299

  9 H s       :     0.875436  s :     0.875436

 10 H s       :     0.878251  s :     0.878251

 11 H s       :     0.880781  s :     0.880781

 12 H s       :     0.891138  s :     0.891138

 13 H s       :     0.883966  s :     0.883966

 14 H s       :     0.883160  s :     0.883160

 15 H s       :     0.885890  s :     0.885890

 16 H s       :     0.884406  s :     0.884406

 17 H s       :     0.887712  s :     0.887712

 18 H s       :     0.883786  s :     0.883786

 19 H s       :     0.885332  s :     0.885332

 20 H s       :     0.718634  s :     0.718634


---------------------------------
LOEWDIN BOND ORDERS (THRESH 0.050000)
---------------------------------
B(  0-C ,  1-C ) :   1.1067 B(  0-C ,  3-C ) :   0.0506 B(  0-C ,  7-O ) :   0.0602 
B(  0-C ,  8-H ) :   0.9302 B(  0-C ,  9-H ) :   0.9323 B(  0-C , 10-H ) :   0.9332 
B(  1-C ,  2-H ) :   0.8803 B(  1-C ,  3-C ) :   1.0722 B(  1-C ,  4-C ) :   0.0502 
B(  1-C ,  7-O ) :   1.1932 B(  3-C ,  4-C ) :   1.0445 B(  3-C ,  5-C ) :   0.0534 
B(  3-C ,  6-C ) :   0.0571 B(  3-C ,  7-O ) :   0.0713 B(  3-C , 11-H ) :   0.8943 
B(  3-C , 12-H ) :   0.8936 B(  4-C ,  5-C ) :   1.0978 B(  4-C ,  6-C ) :   1.0976 
B(  4-C , 13-H ) :   0.8681 B(  5-C ,  6-C ) :   0.0571 B(  5-C , 14-H ) :   0.9356 
B(  5-C , 15-H ) :   0.9351 B(  5-C , 16-H ) :   0.9333 B(  6-C , 17-H ) :   0.9373 
B(  6-C , 18-H ) :   0.9358 B(  6-C , 19-H ) :   0.9373 B(  7-O , 20-H ) :   0.8884 


------------------------------------------
LOEWDIN REDUCED ORBITAL POPULATIONS PER MO
-------------------------------------------
THRESHOLD FOR PRINTING IS 0.1%%
                      0         1         2         3         4         5   
                 -18.73898  -9.93597  -9.88915  -9.87985  -9.87054  -9.87022
                   2.00000   2.00000   2.00000   2.00000   2.00000   2.00000
                  --------  --------  --------  --------  --------  --------
 0 C  s               0.0       0.0       0.0       0.0      99.7       0.0
 1 C  s               0.0      99.6       0.0       0.0       0.0       0.0
 3 C  s               0.0       0.0       0.0      99.6       0.0       0.0
 4 C  s               0.0       0.0      99.6       0.0       0.0       0.0
 6 C  s               0.0       0.0       0.0       0.0       0.0      99.7
 7 O  s              99.9       0.0       0.0       0.0       0.0       0.0
 7 O  pz              0.0       0.1       0.0       0.0       0.0       0.0

                      6         7         8         9        10        11   
                  -9.86904  -0.91650  -0.72826  -0.67532  -0.61259  -0.60516
                   2.00000   2.00000   2.00000   2.00000   2.00000   2.00000
                  --------  --------  --------  --------  --------  --------
 0 C  s               0.0       0.8       1.9      19.8      11.2       4.1
 0 C  pz              0.0       0.4       0.0       0.0       0.0       0.0
 0 C  px              0.0       0.0       0.1       0.1       0.1       0.1
 0 C  py              0.0       0.9       0.4       1.4       0.3       0.0
 1 C  s               0.0      10.5       3.7      14.7       0.2       0.0
 1 C  pz              0.0       8.2       1.2       3.1       0.1       0.0
 1 C  px              0.0       0.1       2.0       0.0       4.4       1.5
 1 C  py              0.0       0.1       0.0       2.3       6.3       1.8
 1 C  dz2             0.0       0.7       0.1       0.1       0.0       0.0
 1 C  dx2y2           0.0       0.0       0.0       0.0       0.2       0.1
 2 H  s               0.0       1.3       0.6       3.2       0.1       0.0
 3 C  s               0.0       0.9      15.1       2.6      15.6       3.7
 3 C  pz              0.0       0.3       0.4       0.2       0.0       0.3
 3 C  px              0.0       0.9       0.7       4.6       0.1       0.0
 3 C  py              0.0       0.1       0.9       0.1       1.1       0.1
 4 C  s               0.0       0.1      23.4       4.1       0.0       0.0
 4 C  pz              0.0       0.0       0.6       0.1       0.1       5.0
 4 C  px              0.0       0.1       0.0       2.8       3.9       3.1
 4 C  py              0.1       0.0       0.2       0.0       6.4       4.9
 4 C  dxz             0.0       0.0       0.0       0.0       0.1       0.0
 4 C  dyz             0.0       0.0       0.0       0.0       0.1       0.0
 4 C  dxy             0.0       0.0       0.0       0.0       0.0       0.3
 5 C  s              99.7       0.0       9.3       4.0      16.1      11.3
 5 C  pz              0.0       0.0       0.8       0.2       0.0       0.3
 5 C  px              0.0       0.0       0.5       0.0       0.1       0.1
 5 C  py              0.0       0.0       1.5       0.3       0.2       0.2
 6 C  s               0.0       0.0       9.2       5.8       0.1      26.3
 6 C  pz              0.0       0.0       0.4       0.1       0.0       0.2
 6 C  px              0.0       0.0       1.4       0.1       0.2       0.2
 6 C  py              0.0       0.0       0.9       0.3       0.3       0.3
 7 O  s               0.0      58.0       1.9       3.2       0.2       0.0
 7 O  pz              0.0       1.3       0.5       3.2       0.0       0.0
 7 O  px              0.0       0.2       0.0       0.0       0.1       0.0
 7 O  py              0.0       1.8       0.3       1.7       0.3       0.2
 8 H  s               0.0       0.2       0.5       3.8       3.3       0.9
 9 H  s               0.0       0.1       0.3       3.9       3.3       1.4
10 H  s               0.0       0.1       0.4       4.3       2.8       0.9
11 H  s               0.0       0.1       3.0       0.6       3.4       1.5
12 H  s               0.0       0.2       2.9       0.3       5.6       0.5
13 H  s               0.0       0.1       4.0       0.7       0.0       0.0
14 H  s               0.1       0.0       1.6       0.9       4.7       2.5
15 H  s               0.1       0.0       1.8       0.9       4.0       2.9
16 H  s               0.1       0.0       1.8       0.5       4.6       3.6
17 H  s               0.0       0.0       1.6       1.1       0.1       7.6
18 H  s               0.0       0.0       1.6       1.3       0.0       7.1
19 H  s               0.0       0.0       1.8       1.2       0.0       6.7
20 H  s               0.0      12.1       0.7       2.3       0.0       0.0

                     12        13        14        15        16        17   
                  -0.52751  -0.50072  -0.44756  -0.42046  -0.40419  -0.37897
                   2.00000   2.00000   2.00000   2.00000   2.00000   2.00000
                  --------  --------  --------  --------  --------  --------
 0 C  s               7.2       1.0       0.0       0.0       0.5       0.1
 0 C  pz              0.6       2.2       4.3       0.1       0.1       0.7
 0 C  px              0.0       0.0       0.1       9.1       5.6       0.3
 0 C  py              6.4       0.6       1.8       0.7       4.9       1.6
 0 C  dx2y2           0.1       0.0       0.0       0.0       0.1       0.0
 1 C  s              10.8       0.6       1.8       0.0       0.3       0.1
 1 C  pz              0.1       4.8      12.7       0.3       1.8       0.5
 1 C  px              1.6       0.2       1.1      16.5       1.1       3.2
 1 C  py              2.9       1.4       5.0       0.3       5.0       0.0
 1 C  dz2             0.0       0.1       0.2       0.0       0.0       0.0
 1 C  dxz             0.0       0.0       0.1       0.0       0.0       0.1
 2 H  s               6.1       0.1       9.2       3.5       0.4       1.7
 3 C  s               1.0       2.1       1.4       0.0       0.1       0.8
 3 C  pz              0.0       5.2       0.2       2.5       8.9       2.5
 3 C  px              6.1       0.8       4.3       7.2       0.0       2.6
 3 C  py              0.1       3.5       0.7       1.3      18.9       2.1
 3 C  dyz             0.0       0.1       0.0       0.0       0.0       0.0
 4 C  s               3.2       9.4       1.9       1.6       0.0       0.1
 4 C  pz              0.0       3.6       4.7       5.0       5.4       0.3
 4 C  px              3.0       1.4       0.5       4.0       0.0       7.0
 4 C  py              0.2       1.2       3.1       2.2       1.2       1.7
 4 C  dx2y2           0.0       0.0       0.0       0.0       0.1       0.1
 5 C  s               2.6       2.0       0.1       0.2       0.5       0.1
 5 C  pz              0.4       3.6       3.9       0.0       0.1       9.2
 5 C  px              1.4       1.2       0.0       0.3       3.4       9.5
 5 C  py              0.7       0.9       0.0      10.0       4.7       1.1
 5 C  dxy             0.0       0.0       0.0       0.0       0.0       0.1
 6 C  s               2.1       2.0       0.1       0.5       0.3       0.1
 6 C  pz              0.1       0.0       0.7       8.2       0.8       0.3
 6 C  px              1.9       2.9       0.2       1.4       5.0       6.5
 6 C  py              0.2       2.7       3.2       1.3       0.0      16.4
 6 C  dxz             0.0       0.0       0.0       0.0       0.0       0.1
 6 C  dxy             0.0       0.1       0.0       0.1       0.0       0.0
 7 O  s               0.8       0.0       1.5       0.1       0.7       0.2
 7 O  pz             12.8       7.4       4.9       0.3       2.1       0.0
 7 O  px              0.0       0.1       0.1       4.6       0.0       0.5
 7 O  py              2.6       7.1      15.0       0.0       0.4       0.9
 7 O  dz2             0.2       0.1       0.0       0.0       0.0       0.0
 8 H  s               4.1       0.1       1.3       2.3       0.3       1.0
 9 H  s               2.7       0.4       0.1       2.5       4.5       0.0
10 H  s               4.0       1.8       0.7       0.0       0.0       0.0
11 H  s               0.4       3.8       1.1       0.9       3.5       1.8
12 H  s               0.2       2.5       1.3       0.1      11.7       0.8
13 H  s               1.4       8.1       3.4       1.8       0.4       0.0
14 H  s               1.7       1.0       0.0       1.1       3.8       3.8
15 H  s               1.3       2.6       1.3       0.5       0.0       0.4
16 H  s               0.6       1.3       0.4       3.6       0.1       7.1
17 H  s               0.7       1.2       0.2       3.1       0.5       7.8
18 H  s               1.5       1.1       0.1       2.0       0.9       5.8
19 H  s               1.1       2.5       1.3       0.1       1.6       0.3
20 H  s               4.2       4.4       5.2       0.1       0.1       0.2

                     18        19        20        21        22        23   
                  -0.36878  -0.35106  -0.33945  -0.33641  -0.32592  -0.30794
                   2.00000   2.00000   2.00000   2.00000   2.00000   2.00000
                  --------  --------  --------  --------  --------  --------
 0 C  s               0.1       0.0       0.0       0.0       0.0       0.0
 0 C  pz              0.6       0.6      38.7       4.5       2.1       0.0
 0 C  px              4.2       0.3       0.5       1.4      28.8       1.2
 0 C  py              0.4      12.2       0.6       1.7       2.7       4.5
 0 C  dz2             0.0       0.0       0.7       0.1       0.0       0.0
 0 C  dxz             0.0       0.0       0.1       0.0       0.1       0.0
 0 C  dx2y2           0.0       0.1       0.0       0.0       0.2       0.1
 0 C  dxy             0.0       0.1       0.0       0.0       0.4       0.0
 1 C  s               0.7       0.1       0.5       0.0       0.0       0.0
 1 C  pz              0.2       2.2       3.2       0.1       0.1       1.4
 1 C  px              5.0       0.4       0.0       0.2       2.5       0.7
 1 C  py              0.5      10.2       2.0       0.7       0.6       2.5
 1 C  dz2             0.0       0.0       0.6       0.0       0.0       0.1
 1 C  dx2y2           0.0       0.0       0.0       0.0       0.1       0.1
 1 C  dxy             0.0       0.0       0.0       0.0       0.3       0.0
 2 H  s               0.1       1.1       0.4       0.0       2.2       0.1
 3 C  s               0.6       0.0       0.0       0.0       0.7       0.0
 3 C  pz             14.1       0.0       0.2       0.0       3.9       4.9
 3 C  px              1.2       0.0       0.1       0.3       0.1       0.2
 3 C  py              0.6       0.0       0.1       1.0       2.4       6.9
 3 C  dz2             0.3       0.0       0.0       0.0       0.0       0.2
 3 C  dx2y2           0.1       0.0       0.0       0.0       0.0       0.1
 3 C  dxy             0.0       0.1       0.0       0.0       0.0       0.0
 4 C  pz              1.4       2.7       0.0       0.0       0.3       0.8
 4 C  px              0.4       0.2       0.2       0.1       5.3       0.0
 4 C  py              2.6       5.0       0.0       0.1       0.5       1.3
 4 C  dz2             0.1       0.0       0.0       0.2       0.0       0.0
 4 C  dx2y2           0.1       0.0       0.0       0.1       0.1       0.0
 5 C  pz              1.7       0.9       1.0      16.4       0.0       6.4
 5 C  px              3.6      18.5       0.3       0.1       0.2       5.3
 5 C  py              5.3       0.0       0.4       9.9       0.1       1.2
 5 C  dxz             0.0       0.0       0.0       0.2       0.0       0.0
 5 C  dyz             0.0       0.2       0.0       0.0       0.0       0.1
 5 C  dxy             0.0       0.0       0.0       0.1       0.0       0.3
 6 C  pz             14.2       1.7       2.5      15.2       0.2       1.1
 6 C  px              0.1       9.3       0.0       0.0       9.3       3.2
 6 C  py              0.0       0.0       1.8       4.9       0.3      11.3
 6 C  dxz             0.0       0.0       0.0       0.1       0.0       0.1
 6 C  dyz             0.0       0.1       0.0       0.1       0.1       0.2
 6 C  dxy             0.1       0.0       0.0       0.1       0.0       0.0
 7 O  s               1.7       1.2       0.5       0.7       0.0       0.5
 7 O  pz              0.7       6.4       7.5       0.2       0.3       5.2
 7 O  px              4.9       0.0       0.1       0.3       2.8       0.8
 7 O  py              4.3       3.7       1.0       1.7       0.1       2.8
 8 H  s               0.8       3.4       3.4       0.8      14.5       0.1
 9 H  s               1.5       1.3       1.8       2.1      12.2       1.4
10 H  s               0.7       0.1      24.4       2.7       0.0       0.0
11 H  s               9.8       0.0       0.4       0.0       0.9       3.7
12 H  s               0.1       0.0       0.0       0.7       0.2       6.3
13 H  s               1.2       0.0       0.0       0.0       0.2       0.0
14 H  s               0.3       3.8       0.8       6.1       0.3       4.0
15 H  s               3.9       3.8       0.2      12.1       0.0       0.1
16 H  s               2.0       3.5       0.2       0.5       0.3       6.8
17 H  s               2.4       1.7       0.0       0.6       0.8       8.6
18 H  s               2.3       1.4       0.8       4.5       1.9       4.9
19 H  s               3.6       3.0       2.0       8.8       1.6       0.0
20 H  s               0.5       0.0       1.9       0.2       0.0       0.1

                     24        25        26        27        28        29   
                  -0.28907  -0.28091  -0.27817  -0.26092  -0.21166   0.01969
                   2.00000   2.00000   2.00000   2.00000   2.00000   0.00000
                  --------  --------  --------  --------  --------  --------
 0 C  s               0.2       0.1       0.0       0.5       0.0       2.2
 0 C  pz              0.3       0.0       0.2       0.2       0.0       0.4
 0 C  px              0.3       0.0       3.8       0.3       0.0       0.1
 0 C  py              2.8       2.1       0.0       7.9       0.0       0.1
 0 C  dz2             0.0       0.0       0.0       0.0       0.0       0.1
 0 C  dx2y2           0.0       0.0       0.1       0.0       0.0       0.1
 0 C  dxy             0.0       0.0       0.1       0.0       0.1       0.0
 1 C  s               0.2       0.1       0.2       0.1       0.0       1.4
 1 C  pz              0.8       0.1       0.1       1.7       0.2       2.7
 1 C  px              0.2       0.7       5.3       1.4       5.0       0.6
 1 C  py              3.1       1.2       0.0       8.3       0.3       0.8
 1 C  dz2             0.0       0.0       0.1       0.0       0.1       0.2
 1 C  dxz             0.0       0.0       0.0       0.0       1.4       0.0
 1 C  dyz             0.4       0.0       0.0       0.5       0.1       0.1
 1 C  dx2y2           0.0       0.1       0.0       0.4       0.1       0.0
 1 C  dxy             0.0       0.1       0.2       0.0       0.2       0.1
 2 H  s               1.1       0.8       2.1       3.2       7.8       6.3
 3 C  s               0.3       0.1       0.3       0.6       0.7       2.9
 3 C  pz              1.4       1.8       3.7       3.7       0.4       0.4
 3 C  px              6.5       1.7       7.0       1.0       7.1       0.1
 3 C  py              1.7       6.2       0.0       5.8       0.3       3.3
 3 C  dz2             0.0       0.4       0.0       0.2       0.0       0.1
 3 C  dx2y2           0.0       0.2       0.2       0.4       0.0       0.1
 3 C  dxy             0.0       0.0       0.1       0.0       0.1       0.0
 4 C  s               0.0       0.0       0.0       0.1       0.0       1.0
 4 C  pz              7.5       8.5       1.7       5.2       0.9       0.2
 4 C  px              0.1       4.7      14.8       0.0       0.5       0.1
 4 C  py              6.9       8.8       1.8       4.4       0.4       0.0
 4 C  dz2             0.1       0.0       0.0       0.1       0.0       0.0
 4 C  dxz             0.5       0.1       0.0       0.2       0.0       0.0
 4 C  dyz             0.0       0.5       0.2       0.1       0.0       0.0
 4 C  dx2y2           0.0       0.1       0.0       0.1       0.0       0.1
 4 C  dxy             0.1       0.2       0.5       0.0       0.0       0.0
 5 C  s               0.0       1.2       0.0       0.0       0.0       1.2
 5 C  pz              2.9       6.0       0.4       0.8       0.1       0.2
 5 C  px              0.1       5.2       5.6       0.0       0.0       0.0
 5 C  py              3.4      12.7       1.8       0.3       0.0       0.3
 5 C  dz2             0.2       0.0       0.0       0.1       0.0       0.0
 5 C  dxz             0.2       0.1       0.1       0.1       0.0       0.1
 5 C  dyz             0.0       0.1       0.2       0.0       0.0       0.0
 5 C  dxy             0.1       0.0       0.3       0.0       0.0       0.0
 6 C  s               0.1       0.1       0.9       0.2       0.1       1.5
 6 C  pz              2.7       4.1       2.7       0.3       0.2       0.6
 6 C  px              0.1       0.2      11.6       0.7       0.3       0.1
 6 C  py              4.1       2.6       3.4       0.8       0.0       1.3
 6 C  dxz             0.3       0.0       0.0       0.1       0.0       0.0
 6 C  dyz             0.0       0.3       0.0       0.1       0.0       0.0
 6 C  dx2y2           0.1       0.1       0.0       0.0       0.0       0.0
 6 C  dxy             0.1       0.1       0.2       0.0       0.0       0.1
 7 O  s               2.5       0.0       0.0       3.7       0.0       5.3
 7 O  pz              5.1       1.2       0.0       9.0       2.1       0.2
 7 O  px              0.0       1.0       9.6       2.6      66.0       0.4
 7 O  py             12.3       0.8       0.0      14.4       2.4       4.5
 8 H  s               0.3       0.5       1.0       0.6       0.6       0.4
 9 H  s               0.2       0.0       2.9       0.7       0.4       1.6
10 H  s               0.2       0.0       0.4       0.0       0.0       4.3
11 H  s               0.5       3.5       1.5       2.9       0.5       3.8
12 H  s               0.1       6.8       1.1       2.9       0.1       8.6
13 H  s              11.8       2.8       0.8       6.7       0.4       0.7
14 H  s               2.7       2.3       1.7       0.6       0.3       1.0
15 H  s               5.3       0.6       1.1       1.5       0.1       0.9
16 H  s               0.5       0.8       6.0       0.1       0.0       1.1
17 H  s               0.0       6.0       0.2       0.1       0.0       5.3
18 H  s               2.9       0.2       3.3       0.2       0.4       0.5
19 H  s               5.2       1.5       0.2       1.6       0.1       0.6
20 H  s               1.5       0.0       0.1       2.1       0.0      31.5

                     30        31        32        33        34        35   
                   0.05120   0.06468   0.07552   0.08519   0.09837   0.10469
                   0.00000   0.00000   0.00000   0.00000   0.00000   0.00000
                  --------  --------  --------  --------  --------  --------
 0 C  s               1.3       7.4       6.0       0.6       1.9       0.2
 0 C  pz              0.1       2.1       0.3       2.5       0.9       4.8
 0 C  px              0.3       0.3       0.5       2.5       0.0       0.1
 0 C  py              0.6       1.6       2.0       0.0       0.5       0.1
 0 C  dz2             0.1       0.0       0.0       0.3       0.3       0.1
 0 C  dx2y2           0.0       0.2       0.0       0.3       0.1       0.1
 0 C  dxy             0.0       0.0       0.1       0.2       0.0       0.0
 1 C  s               1.2       2.4       0.2       2.2       0.2       0.1
 1 C  pz              1.2       0.5       0.1       1.3       1.2       0.6
 1 C  px              0.0       0.7       0.6       2.7       0.5       0.1
 1 C  py              0.5       1.1       0.0       1.3       0.3       0.0
 1 C  dz2             0.1       0.0       0.0       0.7       0.2       0.0
 1 C  dxz             0.0       0.1       0.0       0.1       0.0       0.0
 1 C  dx2y2           0.0       0.0       0.1       0.0       0.3       0.0
 1 C  dxy             0.0       0.0       0.1       0.8       0.1       0.1
 2 H  s               4.0       9.6       2.5      10.1       1.5       0.2
 3 C  s               0.1       0.4       3.1       0.6       0.6       0.7
 3 C  pz              0.6       3.5       1.4       5.1       0.3       0.9
 3 C  px              0.7       0.1       0.0       0.1       0.5       0.8
 3 C  py              0.1       0.3       1.0       2.5       1.3       0.1
 3 C  dz2             0.1       0.1       0.0       0.7       0.0       0.2
 3 C  dxz             0.0       0.0       0.0       0.0       0.0       0.2
 3 C  dx2y2           0.2       0.2       0.0       0.4       0.1       0.0
 3 C  dxy             0.1       0.0       0.0       0.1       0.1       0.0
 4 C  s               2.1       0.2       1.0       0.1       0.2       0.3
 4 C  pz              0.5       0.4       2.2       0.6       0.6       0.4
 4 C  px              0.2       0.2       0.7       0.2       0.1       0.0
 4 C  py              0.2       0.2       0.6       0.8       0.3       1.4
 4 C  dz2             0.0       0.3       0.0       0.0       0.1       0.1
 4 C  dxz             0.0       0.0       0.1       0.1       0.1       0.8
 4 C  dyz             0.1       0.1       0.3       0.0       0.1       0.0
 4 C  dx2y2           0.1       0.0       0.0       0.0       0.4       0.0
 4 C  dxy             0.0       0.0       0.0       0.7       0.3       0.3
 5 C  s               9.3       0.3       0.1       0.0       0.3       6.1
 5 C  pz              0.9       1.3       0.8       3.3       2.5       2.0
 5 C  px              1.4       0.6       2.1       0.0       5.9       1.1
 5 C  py              1.0       0.2       1.8       0.1       1.1       2.1
 5 C  dxz             0.0       0.0       0.0       0.0       0.1       0.5
 5 C  dyz             0.1       0.0       0.0       0.0       0.2       0.1
 5 C  dxy             0.0       0.0       0.0       0.1       0.4       0.0
 6 C  s               6.9       4.6       1.3       0.0       2.2       6.5
 6 C  pz              0.0       0.8       1.6       0.9       0.4       3.7
 6 C  px              2.4       0.1       1.2       1.1       2.4       0.4
 6 C  py              0.0       0.4       0.8       0.0       7.3       0.4
 6 C  dz2             0.0       0.0       0.0       0.0       0.0       0.2
 6 C  dxz             0.0       0.0       0.0       0.0       0.2       0.0
 6 C  dyz             0.0       0.0       0.2       0.0       0.2       0.1
 6 C  dxy             0.1       0.0       0.0       0.2       0.1       0.0
 7 O  s               1.2       0.6       0.9       2.1       0.4       0.8
 7 O  pz              0.1       0.1       0.3       1.1       0.1       0.0
 7 O  px              0.0       0.1       0.0       0.1       0.1       0.1
 7 O  py              1.8       2.1       0.1       1.1       0.2       1.1
 7 O  dz2             0.0       0.0       0.0       0.1       0.0       0.0
 8 H  s               3.8       1.6      13.6       0.1       2.3       1.6
 9 H  s               0.3       6.3       2.1      10.4       2.2       0.5
10 H  s               0.7      12.5       1.9       5.0       0.4       9.4
11 H  s               1.3       8.2       7.4       8.5       1.5       3.7
12 H  s               0.2       0.8       4.4      13.5       1.1       0.1
13 H  s               3.3       2.4      11.8       0.5       1.8       0.3
14 H  s              10.6       0.5       0.2       1.4      19.5       0.9
15 H  s               9.1       0.9       4.9       3.9       0.5      21.6
16 H  s               4.1       3.0       4.3       0.7       3.5       0.5
17 H  s               1.2       6.9       0.2       0.1      14.1      10.1
18 H  s              10.2       3.3       0.4       2.0       7.6       9.2
19 H  s               6.8       1.5      11.2       0.3       7.8       0.4
20 H  s               8.4       8.8       3.0       5.4       0.7       3.7

                     36        37        38        39        40        41   
                   0.11053   0.12189   0.12830   0.13745   0.14481   0.15404
                   0.00000   0.00000   0.00000   0.00000   0.00000   0.00000
                  --------  --------  --------  --------  --------  --------
 0 C  s               0.5       0.4       4.4       0.4       0.1       0.9
 0 C  pz              0.5       2.4       0.1       1.5       2.7       5.7
 0 C  px              2.8       6.5       0.8      10.6       0.5       0.6
 0 C  py              0.5       1.7       0.3       0.3       0.4       0.7
 0 C  dz2             0.0       0.0       0.1       0.3       0.2       0.4
 0 C  dxz             0.1       0.4       0.1       0.2       0.1       0.0
 0 C  dyz             0.0       0.5       0.1       0.0       0.0       0.0
 0 C  dx2y2           0.1       0.0       0.2       0.3       0.1       0.1
 0 C  dxy             0.0       0.1       0.0       0.0       0.0       0.3
 1 C  s               0.1       0.9       3.0       0.1       0.4       1.6
 1 C  pz              0.9       1.0       3.5       0.5       2.9       0.1
 1 C  px              2.8       0.4       2.4       0.4       0.0       1.5
 1 C  py              0.2       0.1       1.1       1.1       1.2       0.0
 1 C  dz2             0.0       0.3       0.3       0.1       0.8       0.0
 1 C  dyz             0.0       0.2       0.0       0.3       0.0       0.2
 1 C  dx2y2           0.0       0.0       0.0       0.0       0.1       0.2
 1 C  dxy             0.0       0.1       0.0       0.1       0.1       0.1
 2 H  s               5.7       0.6      22.5       2.4       0.8       0.3
 3 C  s               1.2       4.6       3.3       0.5       0.0       0.2
 3 C  pz              0.3       2.2       0.0       3.0       0.2       1.9
 3 C  px              1.3       0.3       0.0       0.1       0.7       1.3
 3 C  py              3.8       1.1       1.1       1.5       1.1       0.5
 3 C  dz2             0.1       0.1       0.0       0.3       0.1       0.9
 3 C  dxz             0.2       0.0       0.1       0.1       0.7       0.0
 3 C  dyz             0.0       0.0       0.2       0.1       0.2       0.0
 3 C  dx2y2           0.4       0.0       0.0       0.0       0.0       0.3
 3 C  dxy             0.2       0.0       0.0       0.0       0.0       0.1
 4 C  s               2.1       2.0       0.2       1.0       4.1       0.2
 4 C  pz              0.1       1.8       0.4       0.2       1.8       3.2
 4 C  px              0.8       0.3       1.2       0.0       1.0       0.3
 4 C  py              2.0       1.3       0.0       0.0       0.1       1.1
 4 C  dz2             0.0       0.1       0.0       0.1       0.5       0.1
 4 C  dxz             0.1       0.2       0.0       0.1       0.2       0.1
 4 C  dyz             0.0       0.1       0.5       0.0       0.0       0.9
 4 C  dx2y2           0.3       0.0       0.2       0.0       0.3       0.2
 4 C  dxy             0.5       0.1       0.0       0.0       0.0       0.5
 5 C  s               6.1       1.6       3.2       0.2       0.0       0.2
 5 C  pz              1.1       0.8       0.1       0.2       3.3       0.6
 5 C  px              0.5       0.3       1.0       0.9       0.4       0.9
 5 C  py              1.0       0.9       0.3       0.6       0.4      13.6
 5 C  dz2             0.0       0.1       0.0       0.0       0.1       0.1
 5 C  dxz             0.0       0.0       0.0       0.1       0.4       0.9
 5 C  dyz             0.2       0.3       0.3       0.1       0.0       0.0
 5 C  dx2y2           0.1       0.0       0.1       0.0       0.0       0.2
 5 C  dxy             0.1       0.0       0.1       0.0       0.3       0.2
 6 C  s               3.0       0.8       0.8       0.2       0.6       0.1
 6 C  pz              2.3       0.7       1.3       5.5       4.1       3.1
 6 C  px              1.2       0.5       2.5       2.9       1.7       0.3
 6 C  py              0.1       0.6       0.7       0.2       4.9       0.2
 6 C  dz2             0.1       0.1       0.0       0.0       0.5       0.0
 6 C  dxz             0.0       0.0       0.0       0.0       0.3       0.3
 6 C  dyz             0.1       0.0       0.7       0.3       0.0       0.0
 6 C  dx2y2           0.0       0.1       0.1       0.0       0.1       0.0
 6 C  dxy             0.1       0.3       0.0       0.1       0.0       0.2
 7 O  s               0.5       0.6       0.1       0.0       0.1       0.0
 7 O  pz              0.1       0.5       0.3       0.4       2.1       0.1
 7 O  px              0.3       1.1       0.1       0.0       0.2       0.0
 7 O  py              0.0       0.4       0.6       0.1       1.0       0.4
 8 H  s               0.2      12.8       1.6       4.7       3.7       2.3
 9 H  s               6.9       9.6       8.7      16.9       0.1       0.2
10 H  s               0.7       3.5       1.0       7.8       3.8      13.8
11 H  s               0.0      10.2       1.8       7.2       0.2       2.6
12 H  s              13.8       2.9       6.6       1.7       1.4       0.2
13 H  s               6.4       8.5       0.8       0.1      11.3       2.3
14 H  s               6.5       2.7       1.2       0.5       3.9       3.7
15 H  s               0.3       0.2       1.0       1.4       4.7      11.4
16 H  s               7.2       4.0       4.8       0.3       0.7       8.8
17 H  s               0.8       0.7      10.0       8.2       0.0       1.9
18 H  s               2.5       2.2       1.2       0.7      19.0       1.0
19 H  s               9.5       2.0       0.5      11.9       6.0       5.1
20 H  s               0.5       1.2       1.9       0.6       3.2       0.4

                     42        43        44        45        46        47   
                   0.16221   0.16831   0.18809   0.19611   0.21848   0.24098
                   0.00000   0.00000   0.00000   0.00000   0.00000   0.00000
                  --------  --------  --------  --------  --------  --------
 0 C  s               1.6       0.4       1.4       0.7       0.3       0.2
 0 C  pz              0.1       0.3       2.7       2.0       0.5       0.2
 0 C  px              1.8       1.0       1.8       1.5       0.0       0.1
 0 C  py              0.4       0.2      21.2       2.0       5.3       2.6
 0 C  dz2             0.1       0.0       1.1       0.1       0.1       0.0
 0 C  dxz             0.0       0.0       0.2       0.5       0.1       0.0
 0 C  dyz             0.3       0.1       0.6       0.3       1.3       0.9
 0 C  dx2y2           0.2       0.0       3.4       0.0       0.4       0.3
 0 C  dxy             0.1       0.3       0.8       0.1       0.3       0.0
 1 C  s               2.1       0.8       6.8       4.7       5.2       0.7
 1 C  pz              4.9       2.0       3.1      15.8       1.4       3.5
 1 C  px              0.3       5.3       1.2       0.2       0.6       1.4
 1 C  py              0.3       0.9      13.6       0.2       2.5       2.0
 1 C  dz2             1.0       0.7       0.8       2.9       0.1       0.6
 1 C  dxz             0.1       0.0       0.2       0.7       0.1       0.1
 1 C  dyz             0.0       0.0       0.3       0.1       0.6       0.0
 1 C  dx2y2           0.0       1.5       1.7       0.0       0.0       0.1
 1 C  dxy             0.4       0.0       0.5       0.0       0.2       0.0
 2 H  s               0.5       0.5       1.9       0.0       0.1       0.3
 3 C  s               0.4       6.9       0.2       0.0       3.9       0.2
 3 C  pz              0.0       1.9       2.2       0.2       2.9       2.8
 3 C  px              2.7       0.5       6.0       1.5       1.4       4.1
 3 C  py              2.2       4.4       0.2       0.2       8.9       0.7
 3 C  dz2             0.0       0.7       0.0       0.1       0.1       0.2
 3 C  dxz             0.8       0.0       0.2       1.5       0.1       0.3
 3 C  dyz             0.0       0.5       0.1       0.2       3.0       0.1
 3 C  dx2y2           0.0       2.0       0.0       0.0       0.0       0.1
 3 C  dxy             0.5       0.1       2.8       0.0       0.1       0.2
 4 C  s               3.5      12.4       1.4       3.3       0.2       0.6
 4 C  pz              0.1       3.5       1.8       1.1       3.5       1.3
 4 C  px              1.3       1.5       4.3       1.7      19.3       0.6
 4 C  py              0.2       2.3       0.4       3.8       0.3      18.3
 4 C  dz2             0.1       0.6       0.0       0.0       0.1       0.6
 4 C  dxz             0.0       0.8       0.0       0.2       1.2       1.3
 4 C  dyz             0.3       0.9       0.2       0.4       0.7       0.6
 4 C  dxy             0.1       0.0       0.9       0.1       2.7       0.4
 5 C  s               0.0       1.4       0.1       0.1       0.1       0.3
 5 C  pz              2.6       2.1       0.3       4.9       0.7       4.9
 5 C  px              8.3       1.9       0.8       0.2       2.0       4.0
 5 C  py              0.2       3.1       0.3       2.5       1.0       2.0
 5 C  dz2             0.0       0.2       0.3       0.2       1.1       0.1
 5 C  dxz             0.0       0.1       0.2       0.2       0.0       0.4
 5 C  dyz             0.0       0.8       0.0       0.6       0.1       1.5
[...]
 7 O  dyz             1.1       0.6       0.7       0.6       5.8       0.2
 7 O  dx2y2           0.8       0.0       0.1       0.2       5.8       8.6
 7 O  dxy             0.5       0.1       0.9       8.0      14.9      51.9
 8 H  s               0.0       0.1       0.0       0.3       0.0       0.0
 9 H  s               0.1       0.0       0.0       0.3       0.0       0.2
11 H  s               0.1       0.1       0.7       0.1       0.2       0.0
12 H  s               0.4       0.6       0.3       0.3       0.4       0.5
13 H  s               2.1       1.2       0.3       0.2       0.6       0.1
14 H  s               0.0       1.0       0.3       0.1       0.0       0.1
15 H  s               1.0       0.3       0.1       0.0       0.1       0.0
16 H  s               0.0       0.0       1.2       0.1       0.0       0.0
17 H  s               0.0       0.1       1.1       0.1       0.0       0.0
18 H  s               0.6       0.4       0.3       0.0       0.2       0.0
19 H  s               0.1       1.0       0.2       0.1       0.0       0.0

                    120       121       122       123       124       125   
                   2.61422   2.64903   2.79004   2.86827   2.94493   3.28342
                   0.00000   0.00000   0.00000   0.00000   0.00000   0.00000
                  --------  --------  --------  --------  --------  --------
 0 C  s               0.0       0.2       0.0       0.0       0.0       0.1
 0 C  px              0.0       0.2       0.0       0.1       0.0       0.0
 0 C  py              0.0       0.3       0.2       0.1       0.0       0.1
 0 C  dz2             0.0       0.0       1.4       0.0       0.5       0.0
 0 C  dxz             0.0       0.1       0.0       0.3       0.0       0.0
 0 C  dyz             0.0       0.6       0.3       0.0       0.5       0.3
 0 C  dx2y2           0.0       1.2       1.1       0.4       0.1       0.1
 0 C  dxy             0.1       0.1       0.4       0.0       0.0       0.0
 1 C  s               0.0       0.3       0.1       0.0       0.1       1.7
 1 C  pz              0.0       0.0       0.2       0.2       0.1       3.8
 1 C  px              0.2       1.4       0.3       0.6       0.0       0.2
 1 C  py              0.0       0.4       0.6       0.1       0.1       0.0
 1 C  dz2             0.0       0.4       0.0       1.0       0.1      11.8
 1 C  dxz             0.1       0.2       0.1      13.3       1.6       1.0
 1 C  dyz             0.0       0.0      12.6       0.3       4.2       0.0
 1 C  dx2y2           0.7       8.1       1.5       1.9       0.1       0.1
 1 C  dxy             1.4       0.3       0.4       0.0       0.5       0.0
 3 C  s               0.1       0.1       0.1       0.1       0.0       0.0
 3 C  pz              0.2       0.2       0.0       0.1       0.0       0.0
 3 C  px              0.6       3.8       0.1       0.2       0.0       0.1
 3 C  py              0.2       0.1       0.1       0.0       0.0       0.0
 3 C  dz2             1.6       0.2       0.0       1.8       0.4       0.0
 3 C  dxz             0.7      10.7       0.0       0.5       0.7       0.3
 3 C  dyz             1.0       0.8       0.3       0.0       0.0       0.0
 3 C  dx2y2           2.2       0.0       0.6       0.8       0.5       0.0
 3 C  dxy             4.0      14.2       0.1       0.9       0.1       0.0
 4 C  pz              0.7       0.9       0.0       0.0       0.0       0.0
 4 C  px              0.1       3.0       0.0       0.0       0.0       0.0
 4 C  py              2.8       0.1       0.1       0.0       0.1       0.0
 4 C  dz2             1.8       0.0       0.0       0.0       0.0       0.0
 4 C  dxz            17.6       0.6       0.0       0.0       0.1       0.0
 4 C  dyz             4.5       4.6       0.1       0.1       0.2       0.0
 4 C  dx2y2           8.7       1.5       0.0       0.1       0.0       0.0
 4 C  dxy            10.2      27.8       0.0       0.1       0.0       0.0
 5 C  s               1.5       0.0       0.0       0.0       0.0       0.0
 5 C  pz              0.9       0.1       0.0       0.0       0.0       0.0
 5 C  px              0.4       0.1       0.0       0.0       0.0       0.0
 5 C  py              1.8       0.0       0.0       0.0       0.0       0.0
 5 C  dz2             0.1       0.3       0.0       0.0       0.0       0.0
 5 C  dxz             3.9       0.2       0.0       0.0       0.0       0.0
 5 C  dyz             7.7       0.3       0.0       0.0       0.0       0.0
 5 C  dx2y2           1.9       0.1       0.0       0.0       0.0       0.0
 5 C  dxy             3.9       0.0       0.0       0.0       0.0       0.0
 6 C  s               0.6       1.2       0.0       0.1       0.0       0.0
 6 C  pz              0.2       0.3       0.0       0.0       0.0       0.0
 6 C  px              0.4       1.2       0.0       0.0       0.0       0.0
 6 C  py              0.9       0.5       0.0       0.0       0.0       0.0
 6 C  dz2             1.0       0.7       0.0       0.0       0.0       0.0
 6 C  dxz             0.7       2.0       0.0       0.0       0.0       0.0
 6 C  dyz             1.0       0.9       0.0       0.0       0.0       0.0
 6 C  dx2y2           0.9       1.2       0.0       0.0       0.0       0.0
 6 C  dxy             6.9       6.1       0.0       0.0       0.0       0.0
 7 O  s               0.0       0.1       0.2       0.4       2.6       4.0
 7 O  pz              0.0       0.0       0.0       0.0       0.0       4.2
 7 O  px              0.0       0.0       0.0       1.0       0.0       0.1
 7 O  py              0.0       0.0       2.2       0.1       0.6       0.7
 7 O  dz2             0.0       0.0       1.8       6.3       0.1      62.7
 7 O  dxz             0.4       0.3       0.4      65.6       0.7       6.6
 7 O  dyz             0.3       0.0      30.3       0.8      40.0       0.1
 7 O  dx2y2           0.1       0.4      32.7       0.8      37.8       0.9
 7 O  dxy             4.0       0.7       9.9       0.6       1.5       0.1
 9 H  s               0.0       0.1       0.0       0.0       0.0       0.0
11 H  s               0.2       0.0       0.0       0.1       0.0       0.0
14 H  s               0.1       0.0       0.0       0.0       0.0       0.0
16 H  s               0.2       0.0       0.0       0.0       0.0       0.0
17 H  s               0.1       0.1       0.0       0.0       0.0       0.0
18 H  s               0.1       0.1       0.0       0.0       0.0       0.0
20 H  s               0.0       0.0       1.2       0.5       6.0       0.9



                      *****************************
                      * MAYER POPULATION ANALYSIS *
                      *****************************

  NA   - Mulliken gross atomic population
  ZA   - Total nuclear charge
  QA   - Mulliken gross atomic charge
  VA   - Mayer's total valence
  BVA  - Mayer's bonded valence
  FA   - Mayer's free valence

  ATOM       NA         ZA         QA         VA         BVA        FA
  0 C      6.2522     6.0000    -0.2522     3.9461     3.9461    -0.0000
  1 C      5.9900     6.0000     0.0100     4.2563     4.2563     0.0000
  2 H      0.9426     1.0000     0.0574     0.9406     0.9406    -0.0000
  3 C      6.1293     6.0000    -0.1293     3.9377     3.9377    -0.0000
  4 C      6.1808     6.0000    -0.1808     4.2304     4.2304     0.0000
  5 C      6.2532     6.0000    -0.2532     3.9708     3.9708    -0.0000
  6 C      6.2509     6.0000    -0.2509     3.9671     3.9671    -0.0000
  7 O      8.4239     8.0000    -0.4239     1.9936     1.9936     0.0000
  8 H      0.8823     1.0000     0.1177     0.9687     0.9687    -0.0000
  9 H      0.8931     1.0000     0.1069     0.9598     0.9598    -0.0000
 10 H      0.8999     1.0000     0.1001     0.9594     0.9594    -0.0000
 11 H      0.9244     1.0000     0.0756     0.9670     0.9670     0.0000
 12 H      0.9343     1.0000     0.0657     0.9686     0.9686     0.0000
 13 H      0.9095     1.0000     0.0905     0.9739     0.9739     0.0000
 14 H      0.9033     1.0000     0.0967     0.9570     0.9570     0.0000
 15 H      0.9086     1.0000     0.0914     0.9613     0.9613    -0.0000
 16 H      0.8988     1.0000     0.1012     0.9699     0.9699    -0.0000
 17 H      0.9070     1.0000     0.0930     0.9561     0.9561     0.0000
 18 H      0.9036     1.0000     0.0964     0.9577     0.9577     0.0000
 19 H      0.9065     1.0000     0.0935     0.9596     0.9596    -0.0000
 20 H      0.7059     1.0000     0.2941     0.8870     0.8870    -0.0000

  Mayer bond orders larger than 0.100000
B(  0-C ,  1-C ) :   1.1243 B(  0-C ,  8-H ) :   0.9345 B(  0-C ,  9-H ) :   0.9413 
B(  0-C , 10-H ) :   0.9445 B(  1-C ,  2-H ) :   0.9059 B(  1-C ,  3-C ) :   1.0796 
B(  1-C ,  7-O ) :   1.0477 B(  3-C ,  4-C ) :   1.0367 B(  3-C , 11-H ) :   0.9042 
B(  3-C , 12-H ) :   0.9185 B(  4-C ,  5-C ) :   1.1170 B(  4-C ,  6-C ) :   1.1124 
B(  4-C , 13-H ) :   0.9002 B(  5-C , 14-H ) :   0.9514 B(  5-C , 15-H ) :   0.9464 
B(  5-C , 16-H ) :   0.9425 B(  6-C , 17-H ) :   0.9491 B(  6-C , 18-H ) :   0.9526 
B(  6-C , 19-H ) :   0.9496 B(  7-O , 20-H ) :   0.8520 

-------
TIMINGS
-------

Total SCF time: 0 days 0 hours 0 min 8 sec 

Total time                  ....       8.053 sec
Sum of individual times     ....       7.408 sec  ( 92.0%)

SCF preparation             ....       0.161 sec  (  2.0%)
Fock matrix formation       ....       6.381 sec  ( 79.2%)
  Startup                   ....       0.055 sec  (  0.9% of F)
  Split-RI-J                ....       1.960 sec  ( 30.7% of F)
  XC integration            ....       3.863 sec  ( 60.5% of F)
    XC Preparation          ....       0.000 sec  (  0.0% of XC)
    Basis function eval.    ....       1.212 sec  ( 31.4% of XC)
    Density eval.           ....       0.442 sec  ( 11.4% of XC)
    XC-Functional eval.     ....       0.287 sec  (  7.4% of XC)
    XC-Potential eval.      ....       0.741 sec  ( 19.2% of XC)
Diagonalization             ....       0.000 sec  (  0.0%)
Density matrix formation    ....       0.197 sec  (  2.4%)
Total Energy calculation    ....       0.032 sec  (  0.4%)
Population analysis         ....       0.075 sec  (  0.9%)
Orbital Transformation      ....       0.061 sec  (  0.8%)
Orbital Orthonormalization  ....       0.000 sec  (  0.0%)
DIIS solution               ....       0.419 sec  (  5.2%)
  MO trafo                  ....       0.000 sec  (  0.0 % of DIIS)
  Orb grad                  ....       0.000 sec  (  0.0 % of DIIS)
  Energy W gradient         ....       0.000 sec  (  0.0 % of DIIS)
  DIIS error                ....       0.003 sec  (  0.7 % of DIIS)
  DIIS work                 ....       0.362 sec  ( 86.2 % of DIIS)
  Form Q                    ....       0.000 sec  (  0.0 % of DIIS)
  Form QpQm                 ....       0.000 sec  (  0.0 % of DIIS)
  Exp/Cayley                ....       0.000 sec  (  0.0 % of DIIS)
  Orb update                ....       0.000 sec  (  0.0 % of DIIS)
  Wake-sleep                ....       0.016 sec  (  3.8 % of DIIS)
SOSCF solution              ....       0.081 sec  (  1.0%)
  MO trafo                  ....       0.047 sec  ( 57.6 % of SOSCF)
  Orb grad                  ....       0.001 sec  (  1.5 % of SOSCF)
  Rot update                ....       0.016 sec  ( 19.7 % of SOSCF)
  Step                      ....       0.017 sec  ( 21.1 % of SOSCF)
Finished LeanSCF after   8.2 sec

Maximum memory used throughout the entire LEANSCF-calculation: 12.5 MB


-------------------------------------------------------------------------------
                          DFT DISPERSION CORRECTION                            
                                                                               
                                DFTD4 V3.4.0                                   
-------------------------------------------------------------------------------
The PBE functional is recognized
Active option DFTDOPT                   ...         5   

-------------------------   ----------------
Dispersion correction           -0.016675900
-------------------------   ----------------

------------------   -----------------
gCP correction             0.096201061
------------------   -----------------

-------------------------   --------------------
FINAL SINGLE POINT ENERGY      -311.515641727402
-------------------------   --------------------


------------------------------------------------------------------------------
                              ORCA PROPERTY CALCULATIONS
------------------------------------------------------------------------------

GBWName                                 ... sp.gbw
Number of atoms                         ...     21
Number of basis functions               ...    126
Max core memory                         ...   1024 MB

Electric properties:
Dipole moment                           ... YES
Quadrupole moment                       ...  NO
Static polarizability (Dipole/Dipole)   ...  NO
Static polarizability (Dipole/Quad.)    ...  NO
Static polarizability (Quad./Quad.)     ...  NO
Static polarizability (Velocity)        ...  NO

Atomic electric properties:
Dipole moment                           ...  NO
Quadrupole moment                       ...  NO
Static polarizability                   ...  NO

Choice of electric origin               ... Center of mass
Position of electric origin             ...    -0.000021     0.000004    -0.000014

General magnetic properties:
Magnetizability                         ...  NO

EPR properties:
g-Tensor (aka g-matrix)                 ...  NO
Zero-Field splitting spin-orbit         ...  NO
Zero-field splitting spin-spin          ...  NO
Hyperfine couplings                     ...  NO (   0 nuclei)
Quadrupole couplings                    ...  NO (   0 nuclei)
Contact density                         ...  NO (   0 nuclei)

NMR properties:
Chemical shifts                         ...  NO (   0 nuclei)
Spin-rotation constants                 ...  NO (   0 nuclei)
Spin-spin couplings                     ...  NO (   0 nuclei,    0 pairs)

Choice of magnetic origin               ... GIAO
Position of magnetic origin             ...     0.000000     0.000000     0.000000

Properties with geometric perturbations:
SCF Hessian                             ...  NO
IR spectrum                             ...  NO
VCD spectrum                            ...  NO
X-ray spectroscopy properties:
SCF XES/XAS/RIXS spectra                ...  NO


-------------
DIPOLE MOMENT
-------------

Method             : SCF
Type of density    : Electron Density
Multiplicity       :   1
Irrep              :   0
Energy             :  -311.5951668885492722 Eh
Relativity type    : 
Basis              : AO
                                X                 Y                 Z
Electronic contribution:      4.381573423      -1.335653290       2.566167060
Nuclear contribution   :     -4.463454054       0.887678945      -2.790264880
                        -----------------------------------------
Total Dipole Moment    :     -0.081880631      -0.447974345      -0.224097821
                        -----------------------------------------
Magnitude (a.u.)       :      0.507548308
Magnitude (Debye)      :      1.290085274



--------------------
Rotational spectrum 
--------------------
 
Rotational constants in cm-1:             0.125628             0.056680             0.045780 
Rotational constants in MHz :          3766.244233          1699.228064          1372.450761 

Dipole components along the rotational axes: 
x,y,z [a.u.] :    -0.129812    -0.197297    -0.449253 
x,y,z [Debye]:    -0.329955    -0.501488    -1.141910 

 

Dipole moment calculation done in   0.0 sec 

Maximum memory used throughout the entire PROP-calculation: 7.8 MB

--------------------------------
SUGGESTED CITATIONS FOR THIS RUN
--------------------------------

Below you find a list of papers that are relevant to this ORCA run
We neither can nor want to force you to cite these papers, but we appreciate if you do
You receive ORCA, which is the product of decades of hard work by many enthusiastic individuals, for free
The only thing we kindly ask in return is that you cite our papers,
We deeply appreciate it, if you show your appreciation for ORCA by not just citing the generic ORCA reference.

Please note that relegating all ORCA citations to the supporting information does *not* help us.
SI sections are not indexed - citations you put there will not count into any citation statistics
But we need these citations in order to attract the funding resources that allow us to do what we are doing

Therefore, if you are a happy ORCA user, please consider citing a few of the papers listed below in the main body of your paper

In addition to the list printed below, the program has created the file sp.bibtex that contains the list in bibtex format
You can import this file easily into all common literature databanks and citation aid programs


List of essential papers. We consider these as the minimum necessary citations

  1. Neese,F.
     Software update: the ORCA program system, version 5.0
     WIRES Comput. Molec. Sci., 2022 12(1)e1606
     doi.org/10.1002/wcms.1606

List of papers to cite with high priority. The work reported in these papers was absolutely
necessary for this run to complete.
Our perspective: the developers of density functionals and basis sets usually get cited in chemistry papers
Good! But without the algorithms to do something with them, the functionals or basis sets would not do anything.
Hence, in our opinion, the algorithm design and method developments papers are equally worthy of getting cited

  1. Neese,F.
     An improvement of the resolution of the identity approximation for the formation of the Coulomb matrix
     J. Comp. Chem., 2003 24(14)1740-1747
     doi.org/10.1002/jcc.10318
  2. Neese,F.
     The SHARK Integral Generation and Digestion System
     J. Comp. Chem., 2022  1-16
     doi.org/10.1002/jcc.26942
  3. Caldeweyher,E.; Bannwarth,C.; Grimme,S.
     Extension of the D3 dispersion coefficient model
     J. Chem. Phys., 2017 147 034112-XXXX
     doi.org/10.1063/1.4993215
  4. Caldeweyher,E.; Ehlert,S.; Hansen,A.; Neugebauer,H.; Spicher,S.; Bannwarth,C.; Grimme,S.
     A generally applicable atomic-charge dependent London dispersion correction
     J. Chem. Phys., 2019 150 154122-XXXX
     doi.org/10.1063/1.5090222
  5. Caldeweyher,E.; Mewes,J.; Ehlert,S.; Grimme,S.
     Extension and evaluation of the D4 London-dispersion model for periodic systems
     Phys. Chem. Chem. Phys., 2020 22(16)8499-8512
     doi.org/10.1039/D0CP00502A

List of suggested additional citations. These are papers that are important in the 'surrounding' of 
of this run, or papers that preceded the highly important papers. If you like your results we are grateful for a citation.

  1. Neese,F.
     The ORCA program system
     WIRES Comput. Molec. Sci., 2012 2(1)73-78
     doi.org/10.1002/wcms.81
  2. Neese,F.
     Software update: the ORCA program system, version 4.0
     WIRES Comput. Molec. Sci., 2018 8(1)1-6
     doi.org/10.1002/wcms.1327
  3. Neese,F.; Wennmohs,F.; Becker,U.; Riplinger,C.
     The ORCA quantum chemistry program package
     J. Chem. Phys., 2020 152 Art. No. L224108
     doi.org/10.1063/5.0004608

List of optional additional citations

  1. Neese,F.
     Approximate second-order SCF convergence for spin unrestricted wavefunctions
     Chem. Phys. Lett., 2000 325(1-3)93-98
     doi.org/10.1016/s0009-2614(00)00662-x

Timings for individual modules:

Sum of individual times          ...        9.809 sec (=   0.163 min)
Startup calculation              ...        0.749 sec (=   0.012 min)   7.6 %
SCF iterations                   ...        8.933 sec (=   0.149 min)  91.1 %
Property calculations            ...        0.127 sec (=   0.002 min)   1.3 %
                             ****ORCA TERMINATED NORMALLY****
TOTAL RUN TIME: 0 days 0 hours 0 minutes 10 seconds 648 msec
