
                                 *****************
                                 * O   R   C   A *
                                 *****************

                                            #,                                       
                                            ###                                      
                                            ####                                     
                                            #####                                    
                                            ######                                   
                                           ########,                                 
                                     ,,################,,,,,                         
                               ,,#################################,,                 
                          ,,##########################################,,             
                       ,#########################################, ''#####,          
                    ,#############################################,,   '####,        
                  ,##################################################,,,,####,       
                ,###########''''           ''''###############################       
              ,#####''   ,,,,##########,,,,          '''####'''          '####       
            ,##' ,,,,###########################,,,                        '##       
           ' ,,###''''                  '''############,,,                           
         ,,##''                                '''############,,,,        ,,,,,,###''
      ,#''                                            '''#######################'''  
     '                                                          ''''####''''         
             ,#######,   #######,   ,#######,      ##                                
            ,#'     '#,  ##    ##  ,#'     '#,    #''#        ,####,   ,####,        
            ##       ##  ##   ,#'  ##            #'  '#       #'       #'  '#        
            ##       ##  #######   ##           ,######,      #####,   #    #        
            '#,     ,#'  ##    ##  '#,     ,#' ,#      #,     #,   #   #,  ,#        
             '#######'   ##     ##  '#######'  #'      '#     '####' # '####'        



                #########################################################
                #                        -***-                          #
                #          Department of theory and spectroscopy        #
                #                                                       #
                #                      Frank Neese                      #
                #                                                       #
                #     Directorship, Architecture, Infrastructure        #
                #                    SHARK, DRIVERS                     #
                #        Core code/Algorithms in most modules           #
                #                                                       #
                #        Max Planck Institute fuer Kohlenforschung      #
                #                Kaiser Wilhelm Platz 1                 #
                #                 D-45470 Muelheim/Ruhr                 #
                #                      Germany                          #
                #                                                       #
                #                  All rights reserved                  #
                #                        -***-                          #
                #########################################################


                         Program Version 6.0.0  -   RELEASE  -


 With contributions from (in alphabetic order):
   Daniel Aravena         : Magnetic Suceptibility
   Michael Atanasov       : Ab Initio Ligand Field Theory (pilot matlab implementation)
   Alexander A. Auer      : GIAO ZORA, VPT2 properties, NMR spectrum
   Ute Becker             : All parallelization in ORCA, NUMFREQ, NUMCALC
   Giovanni Bistoni       : ED, misc. LED, open-shell LED, HFLD
   Martin Brehm           : Molecular dynamics
   Dmytro Bykov           : pre 5.0 version of the SCF Hessian
   Marcos Casanova-Páez   : Triplet and SCS-CIS(D). UHF-(DLPNO)-IP/EA/STEOM-CCSD. UHF-CVS-IP/STEOM-CCSD
   Vijay G. Chilkuri      : MRCI spin determinant printing, contributions to CSF-ICE
   Pauline Colinet        : FMM embedding
   Dipayan Datta          : RHF DLPNO-CCSD density
   Achintya Kumar Dutta   : EOM-CC, STEOM-CC
   Nicolas Foglia         : Exact transition moments, OPA infrastructure, MCD improvements
   Dmitry Ganyushin       : Spin-Orbit,Spin-Spin,Magnetic field MRCI
   Miquel Garcia          : C-PCM and meta-GGA Hessian, CCSD/C-PCM, Gaussian charge scheme
   Tiago L. C. Gouveia    : GS-ROHF, GS-ROCIS
   Yang Guo               : DLPNO-NEVPT2, F12-NEVPT2, CIM, IAO-localization
   Andreas Hansen         : Spin unrestricted coupled pair/coupled cluster methods
   Ingolf Harden          : AUTO-CI MPn and infrastructure 
   Benjamin Helmich-Paris : MC-RPA, TRAH-(SCF,CASSCF), AVAS, COSX integrals, SCF dyn. polar.
   Lee Huntington         : MR-EOM, pCC
   Robert Izsak           : Overlap fitted RIJCOSX, COSX-SCS-MP3, EOM
   Riya Kayal             : Wick's Theorem for AUTO-CI, AUTO-CI UHF-CCSDT
   Emily Kempfer          : AUTO-CI, RHF CISDT and CCSDT
   Christian Kollmar      : KDIIS, OOCD, Brueckner-CCSD(T), CCSD density, CASPT2, CASPT2-K, improved NEVPT2
   Axel Koslowski         : Symmetry handling
   Simone Kossmann        : Meta GGA functionals, TD-DFT gradient, OOMP2, (MP2 Hessian; deprecated post 5.0)
   Lucas Lang             : DCDCAS
   Marvin Lechner         : AUTO-CI (C++ implementation), FIC-MRCC
   Spencer Leger          : CASSCF response
   Dagmar Lenk            : GEPOL surface, SMD, ORCA-2-JSON
   Dimitrios Liakos       : Extrapolation schemes; Compound Job, initial MDCI parallelization
   Dimitrios Manganas     : Further ROCIS development; embedding schemes. LFT, Crystal Embedding
   Dimitrios Pantazis     : SARC Basis sets
   Anastasios Papadopoulos: AUTO-CI, single reference methods and gradients
   Taras Petrenko         : pre 6.0 DFT Hessian and TD-DFT gradient, (ASA, deprecated), ECA, 1-Electron XAS/XES, NRVS
   Peter Pinski           : DLPNO-MP2, DLPNO-MP2 Gradient
   Christoph Reimann      : Effective Core Potentials
   Marius Retegan         : Local ZFS, SOC
   Christoph Riplinger    : Optimizer, TS searches, QM/MM, DLPNO-CCSD(T), (RO)-DLPNO pert. Triples
   Michael Roemelt        : Original ROCIS implementation
   Masaaki Saitow         : Open-shell DLPNO-CCSD energy and density
   Barbara Sandhoefer     : DKH picture change effects
   Kantharuban Sivalingam : CASSCF convergence/infrastructure, NEVPT2 and variants, FIC-MRCI
   Bernardo de Souza      : ESD, SOC TD-DFT
   Georgi Stoychev        : AutoAux, RI-MP2 NMR, DLPNO-MP2 response, X2C
   Van Anh Tran           : RI-MP2 g-tensors
   Willem Van den Heuvel  : Paramagnetic NMR
   Zikuan Wang            : NOTCH, Electric field optimization 
   Frank Wennmohs         : Technical directorship and infrastructure
   Hang Xu                : AUTO-CI-Response properties 


 We gratefully acknowledge several colleagues who have allowed us to
 interface, adapt or use parts of their codes:
   Stefan Grimme, W. Hujo, H. Kruse, P. Pracht,  : VdW corrections, initial TS optimization,
                  C. Bannwarth, S. Ehlert,         DFT functionals, gCP, sTDA/sTD-DF
                  L. Wittmann, M. Mueller
   Ed Valeev, F. Pavosevic, A. Kumar             : LibInt (2-el integral package), F12 methods
   Garnet Chan, S. Sharma, J. Yang, R. Olivares  : DMRG
   Ulf Ekstrom                                   : XCFun DFT Library
   Mihaly Kallay                                 : mrcc  (arbitrary order and MRCC methods)
   Frank Weinhold                                : gennbo (NPA and NBO analysis)
   Simon Mueller                                 : openCOSMO-RS
   Christopher J. Cramer and Donald G. Truhlar   : smd solvation model
   Lars Goerigk                                  : TD-DFT with DH, B97 family of functionals
   V. Asgeirsson, H. Jonsson                     : NEB implementation
   FAccTs GmbH                                   : IRC, NEB, NEB-TS, DLPNO-Multilevel, CI-OPT
                                                   MM, QMMM, 2- and 3-layer-ONIOM, Crystal-QMMM,
                                                   LR-CPCM, SF, NACMEs, symmetry and pop. for TD-DFT,
                                                   nearIR, NL-DFT gradient (VV10), updates on ESD,
                                                   ML-optimized integration grids, MBIS, APM,
                                                   GOAT, DOCKER, SOLVATOR, interface openCOSMO-RS
   S Lehtola, MJT Oliveira, MAL Marques          : LibXC Library
   Liviu Ungur et al                             : ANISO software


 Your calculation uses the libint2 library for the computation of 2-el integrals
 For citations please refer to: http://libint.valeyev.net

 Your ORCA version has been built with support for libXC version: 6.2.2
 For citations please refer to: https://libxc.gitlab.io

 This ORCA versions uses:
   CBLAS   interface :  Fast vector & matrix operations
   LAPACKE interface :  Fast linear algebra routines
   SCALAPACK package :  Parallel linear algebra routines
   Shared memory     :  Shared parallel matrices
   BLAS/LAPACK       :  OpenBLAS 0.3.27  USE64BITINT DYNAMIC_ARCH NO_AFFINITY SkylakeX SINGLE_THREADED
        Core in use  :  SkylakeX
   Copyright (c) 2011-2014, The OpenBLAS Project


Your calculation utilizes the geometrical counterpoise correction gCP
Please cite in your paper:
H.Kruse, S. Grimme J.Chem.Phys., 136, (2012), 154101 
   

Your calculation utilizes the atom-pairwise dispersion correction
based on EEQ partial charges (D4)


================================================================================

----- Orbital basis set information -----
Your calculation utilizes the basis: def2-SV(P)
   F. Weigend and R. Ahlrichs, Phys. Chem. Chem. Phys. 7, 3297 (2005).

----- AuxJ basis set information -----
Your calculation utilizes the auxiliary basis: def2/J
   F. Weigend, Phys. Chem. Chem. Phys. 8, 1057 (2006).

================================================================================
                                        WARNINGS
                       Please study these warnings very carefully!
================================================================================


================================================================================
                                       INPUT FILE
================================================================================
NAME = sp.inp
|  1> ! pbe def2-sv(p) def2/J RI DEFGRID1 loosescf d4 GCP(DFT/SV(P)) printgap
|  2> %output
|  3>     printlevel normal
|  4> end
|  5> * xyz 0 1
|  6> C -1.0272372551 -0.4538158718 -0.3347967805
|  7> C 0.1313899665 0.3488203249 0.2708489306
|  8> C 1.4723375487 -0.0916451347 -0.334349414
|  9> O 1.8111153654 -1.4144164542 -0.0023730214
| 10> O -0.0184137596 1.7309319732 0.0280929514
| 11> O -2.2660892234 -0.1080456884 0.2438407776
| 12> H -0.8168529878 -1.5238878911 -0.2371940701
| 13> H -1.113310514 -0.2077789735 -1.3959663045
| 14> H 0.1562652525 0.1754243547 1.361590158
| 15> H 2.2447774271 0.617565784 -0.0161583717
| 16> H 1.401304358 -0.0552494404 -1.4236072932
| 17> H 2.0464343404 -1.4621532306 0.9351170011
| 18> H -0.961121056 1.9480117508 0.0990286741
| 19> H -2.3127685316 -0.4578561346 1.1445116589
| 20> *
| 21> 
| 22>                          ****END OF INPUT****
================================================================================

                       ****************************
                       * Single Point Calculation *
                       ****************************

---------------------------------
CARTESIAN COORDINATES (ANGSTROEM)
---------------------------------
  C     -1.027237   -0.453816   -0.334797
  C      0.131390    0.348820    0.270849
  C      1.472338   -0.091645   -0.334349
  O      1.811115   -1.414416   -0.002373
  O     -0.018414    1.730932    0.028093
  O     -2.266089   -0.108046    0.243841
  H     -0.816853   -1.523888   -0.237194
  H     -1.113311   -0.207779   -1.395966
  H      0.156265    0.175424    1.361590
  H      2.244777    0.617566   -0.016158
  H      1.401304   -0.055249   -1.423607
  H      2.046434   -1.462153    0.935117
  H     -0.961121    1.948012    0.099029
  H     -2.312769   -0.457856    1.144512

----------------------------
CARTESIAN COORDINATES (A.U.)
----------------------------
  NO LB      ZA    FRAG     MASS         X           Y           Z
   0 C     6.0000    0    12.011   -1.941197   -0.857588   -0.632674
   1 C     6.0000    0    12.011    0.248291    0.659175    0.511830
   2 C     6.0000    0    12.011    2.782315   -0.173184   -0.631829
   3 O     8.0000    0    15.999    3.422512   -2.672860   -0.004484
   4 O     8.0000    0    15.999   -0.034797    3.270987    0.053088
   5 O     8.0000    0    15.999   -4.282288   -0.204177    0.460792
   6 H     1.0000    0     1.008   -1.543628   -2.879731   -0.448232
   7 H     1.0000    0     1.008   -2.103852   -0.392645   -2.637994
   8 H     1.0000    0     1.008    0.295299    0.331504    2.573033
   9 H     1.0000    0     1.008    4.242015    1.167030   -0.030535
  10 H     1.0000    0     1.008    2.648081   -0.104406   -2.690228
  11 H     1.0000    0     1.008    3.867200   -2.763069    1.767115
  12 H     1.0000    0     1.008   -1.816256    3.681209    0.187137
  13 H     1.0000    0     1.008   -4.370499   -0.865223    2.162814

--------------------------------
INTERNAL COORDINATES (ANGSTROEM)
--------------------------------
 C      0   0   0     0.000000000000     0.00000000     0.00000000
 C      1   0   0     1.534095378475     0.00000000     0.00000000
 C      2   1   0     1.535713279104   110.72149814     0.00000000
 O      3   2   1     1.405241152978   112.79221743   294.25473841
 O      2   1   3     1.411242087722   111.36564211   119.93799264
 O      1   2   3     1.410366137828   111.91086692   177.54467051
 H      1   2   3     1.094916414843   109.33042893    53.08732116
 H      1   2   3     1.092713832570   108.97045841   294.32698382
 H      2   1   3     1.104717777301   108.94622739   240.22576878
 H      3   2   1     1.095850825772   108.38708443   169.96540857
 H      3   2   1     1.092178139382   109.06749186    52.26548749
 H      4   3   2     0.967750671456   109.50619464   289.12024495
 H      5   2   1     0.969975542621   108.04512930    37.66751783
 H      6   1   2     0.967343962873   109.61681071   287.80450056

---------------------------
INTERNAL COORDINATES (A.U.)
---------------------------
 C      0   0   0     0.000000000000     0.00000000     0.00000000
 C      1   0   0     2.899020128633     0.00000000     0.00000000
 C      2   1   0     2.902077517732   110.72149814     0.00000000
 O      3   2   1     2.655520931245   112.79221743   294.25473841
 O      2   1   3     2.666861054457   111.36564211   119.93799264
 O      1   2   3     2.665205749052   111.91086692   177.54467051
 H      1   2   3     2.069092163589   109.33042893    53.08732116
 H      1   2   3     2.064929886304   108.97045841   294.32698382
 H      2   1   3     2.087614054373   108.94622739   240.22576878
 H      3   2   1     2.070857944341   108.38708443   169.96540857
 H      3   2   1     2.063917572888   109.06749186    52.26548749
 H      4   3   2     1.828783734970   109.50619464   289.12024495
 H      5   2   1     1.832988132156   108.04512930    37.66751783
 H      6   1   2     1.828015167132   109.61681071   287.80450056

---------------------
BASIS SET INFORMATION
---------------------
There are 3 groups of distinct atoms

 Group   1 Type C   : 7s4p1d contracted to 3s2p1d pattern {511/31/1}
 Group   2 Type O   : 7s4p1d contracted to 3s2p1d pattern {511/31/1}
 Group   3 Type H   : 4s contracted to 2s pattern {31}

Atom   0C    basis set group =>   1
Atom   1C    basis set group =>   1
Atom   2C    basis set group =>   1
Atom   3O    basis set group =>   2
Atom   4O    basis set group =>   2
Atom   5O    basis set group =>   2
Atom   6H    basis set group =>   3
Atom   7H    basis set group =>   3
Atom   8H    basis set group =>   3
Atom   9H    basis set group =>   3
Atom  10H    basis set group =>   3
Atom  11H    basis set group =>   3
Atom  12H    basis set group =>   3
Atom  13H    basis set group =>   3
---------------------------------
AUXILIARY/J BASIS SET INFORMATION
---------------------------------
There are 3 groups of distinct atoms

 Group   1 Type C   : 12s5p4d2f1g contracted to 6s4p3d1f1g pattern {711111/2111/211/2/1}
 Group   2 Type O   : 12s5p4d2f1g contracted to 6s4p3d1f1g pattern {711111/2111/211/2/1}
 Group   3 Type H   : 5s2p1d contracted to 3s1p1d pattern {311/2/1}

Atom   0C    basis set group =>   1
Atom   1C    basis set group =>   1
Atom   2C    basis set group =>   1
Atom   3O    basis set group =>   2
Atom   4O    basis set group =>   2
Atom   5O    basis set group =>   2
Atom   6H    basis set group =>   3
Atom   7H    basis set group =>   3
Atom   8H    basis set group =>   3
Atom   9H    basis set group =>   3
Atom  10H    basis set group =>   3
Atom  11H    basis set group =>   3
Atom  12H    basis set group =>   3
Atom  13H    basis set group =>   3
------------------------------------------------------------------------------
                             ORCA STARTUP CALCULATIONS
                           -- RI-GTO INTEGRALS CHOSEN --
------------------------------------------------------------------------------
------------------------------------------------------------------------------
                   ___                                                        
                  /   \      - P O W E R E D   B Y -                         
                 /     \                                                     
                 |  |  |   _    _      __       _____    __    __             
                 |  |  |  | |  | |    /  \     |  _  \  |  |  /  |          
                  \  \/   | |  | |   /    \    | | | |  |  | /  /          
                 / \  \   | |__| |  /  /\  \   | |_| |  |  |/  /          
                |  |  |   |  __  | /  /__\  \  |    /   |      \           
                |  |  |   | |  | | |   __   |  |    \   |  |\   \          
                \     /   | |  | | |  |  |  |  | |\  \  |  | \   \       
                 \___/    |_|  |_| |__|  |__|  |_| \__\ |__|  \__/        
                                                                              
                      - O R C A' S   B I G   F R I E N D -                    
                                      &                                       
                       - I N T E G R A L  F E E D E R -                       
                                                                              
 v1 FN, 2020, v2 2021, v3 2022-2024                                           
------------------------------------------------------------------------------


----------------------
SHARK INTEGRAL PACKAGE
----------------------

Number of atoms                             ...     14
Number of basis functions                   ...    100
Number of shells                            ...     52
Maximum angular momentum                    ...      2
Integral batch strategy                     ... SHARK/LIBINT Hybrid
RI-J (if used) integral strategy            ... SPLIT-RIJ (Revised 2003 algorithm where possible)
Printlevel                                  ...      1
Contraction scheme used                     ... SEGMENTED contraction
Prescreening option                         ... SCHWARTZ
   Thresh                                   ... 1.000e-09
   Tcut                                     ... 1.000e-10
   Tpresel                                  ... 1.000e-10 
Coulomb Range Separation                    ... NOT USED
Exchange Range Separation                   ... NOT USED
Multipole approximations                    ... NOT USED
Finite Nucleus Model                        ... NOT USED
CABS basis                                  ... NOT available
Auxiliary Coulomb fitting basis             ... AVAILABLE
   # of basis functions in Aux-J            ...    382
   # of shells in Aux-J                     ...    130
   Maximum angular momentum in Aux-J        ...      4
Auxiliary J/K fitting basis                 ... NOT available
Auxiliary Correlation fitting basis         ... NOT available
Auxiliary 'external' fitting basis          ... NOT available

Checking pre-screening integrals            ... done (  0.0 sec) Dimension = 52
Check shell pair data                       ... done (  0.0 sec)
Shell pair information
Shell pair cut-off parameter TPreSel        ...   1.0e-10
Total number of shell pairs                 ...      1378
Shell pairs after pre-screening             ...      1329
Total number of primitive shell pairs       ...      5562
Primitive shell pairs kept                  ...      3961
          la=0 lb=0:    572 shell pairs
          la=1 lb=0:    397 shell pairs
          la=1 lb=1:     77 shell pairs
          la=2 lb=0:    193 shell pairs
          la=2 lb=1:     70 shell pairs
          la=2 lb=2:     20 shell pairs

Calculating one electron integrals          ... done (  0.0 sec)
Calculating RI/J V-Matrix + Cholesky decomp.... done (  0.1 sec)
Calculating Nuclear repulsion               ... done (  0.0 sec) ENN=    260.786477147831 Eh

Diagonalization of the overlap matrix:
Smallest eigenvalue                        ... 2.043e-03
Time for diagonalization                   ...    0.001 sec
Threshold for overlap eigenvalues          ... 1.000e-07
Number of eigenvalues below threshold      ... 0
Time for construction of square roots      ...    0.012 sec
Total time needed                          ...    0.023 sec

-------------------
DFT GRID GENERATION
-------------------

General Integration Accuracy     IntAcc      ... 4.159
Radial Grid Type                 RadialGrid  ... OptM3 with GC (2021)
Angular Grid (max. ang.)         AngularGrid ... 3 (Lebedev-194)
Angular grid pruning method      GridPruning ... 4 (adaptive)
Weight generation scheme         WeightScheme... mBecke (2022)
Basis function cutoff            BFCut       ... 1.0000e-10
Integration weight cutoff        WCut        ... 1.0000e-14
Partially contracted basis set               ... off
Rotationally invariant grid construction     ... off
Angular grids for H and He will be reduced by one unit

Total number of grid points                  ...    31049
Total number of batches                      ...      494
Average number of points per batch           ...       62
Average number of grid points per atom       ...     2218
Initializing property integral containers    ... done (  0.0 sec)

SHARK setup successfully completed in   0.5 seconds

Maximum memory used throughout the entire STARTUP-calculation: 15.2 MB
-------------------------------------------------------------------------------
                                 ORCA GUESS
                   Start orbitals & Density for SCF / CASSCF
-------------------------------------------------------------------------------

------------
SCF SETTINGS
------------
Hamiltonian:
 Density Functional     Method          .... DFT(GTOs)
 Exchange Functional    Exchange        .... PBE
   PBE kappa parameter   XKappa         ....  0.804000
   PBE mue parameter    XMuePBE         ....  0.219520
 Correlation Functional Correlation     .... PBE
   PBE beta parameter  CBetaPBE         ....  0.066725
 LDA part of GGA corr.  LDAOpt          .... PW91-LDA
 Gradients option       PostSCFGGA      .... off
   NL short-range parameter             ....  6.400000
 RI-approximation to the Coulomb term is turned on
   Number of AuxJ basis functions       .... 382


General Settings:
 Integral files         IntName         .... sp
 Hartree-Fock type      HFTyp           .... RHF
 Total Charge           Charge          ....    0
 Multiplicity           Mult            ....    1
 Number of Electrons    NEL             ....   50
 Basis Dimension        Dim             ....  100
 Nuclear Repulsion      ENuc            ....    260.7864771478 Eh

Convergence Acceleration:
 AO-DIIS                CNVDIIS         .... on
   Start iteration      DIISMaxIt       ....    12
   Startup error        DIISStart       ....  0.200000
   # of expansion vecs  DIISMaxEq       ....     5
   Bias factor          DIISBfac        ....   1.050
   Max. coefficient     DIISMaxC        ....  10.000
 MO-DIIS                CNVKDIIS        .... off
 Trust-Rad. Augm. Hess. CNVTRAH         .... auto
   Auto Start mean grad. ratio tolernc. ....  1.125000
   Auto Start start iteration           ....    50
   Auto Start num. interpolation iter.  ....    10
   Max. Number of Micro iterations      ....    24
   Max. Number of Macro iterations      .... Maxiter - #DIIS iter
   Number of Davidson start vectors     ....     2
   Converg. threshold    (grad. norm)   ....   1.000e-04
   Grad. Scal. Fac. for Micro threshold ....   0.100
   Minimum threshold for Micro iter.    ....   1.000e-02
   NR start threshold (gradient norm)   ....   1.000e-04
   Initial trust radius                 ....   0.400
   Minimum AH scaling param. (alpha)    ....   1.000
   Maximum AH scaling param. (alpha)    .... 1000.000
   Quad. conv. algorithm                .... NR
   White noise on init. David. guess    .... on
   Maximum white noise                  ....   0.010
   Pseudo random numbers                .... off
   Inactive MOs                         .... canonical
   Orbital update algorithm             .... Taylor
   Preconditioner                       .... Diag
   Full preconditioner red. dimension   ....   250
 SOSCF                  CNVSOSCF        .... on
   Start iteration      SOSCFMaxIt      ....   150
   Startup grad/error   SOSCFStart      ....  0.003300
   Hessian update       SOSCFHessUp     .... L-BFGS
 Level Shifting         CNVShift        .... on
   Level shift para.    LevelShift      ....    0.2500
   Turn off err/grad.   ShiftErr        ....    0.0010
 Zerner damping         CNVZerner       .... off
 Static damping         CNVDamp         .... on
   Fraction old density DampFac         ....    0.7000
   Max. Damping (<1)    DampMax         ....    0.9800
   Min. Damping (>=0)   DampMin         ....    0.0000
   Turn off err/grad.   DampErr         ....    0.1000

SCF Procedure:
 Maximum # iterations   MaxIter         ....   125
 SCF integral mode      SCFMode         .... Direct
   Integral package                     .... SHARK and LIBINT hybrid scheme
 Reset frequency        DirectResetFreq ....    20
 Integral Threshold     Thresh          ....  1.000e-09 Eh
 Primitive CutOff       TCut            ....  1.000e-10 Eh

Convergence Tolerance:
 Convergence Check Mode ConvCheckMode   .... Total+1el-Energy
 Convergence forced     ConvForced      .... 0
 Energy Change          TolE            ....  1.000e-05 Eh
 1-El. energy change                    ....  1.000e-02 Eh
 Orbital Gradient       TolG            ....  1.000e-04
 Orbital Rotation angle TolX            ....  1.000e-04
 DIIS Error             TolErr          ....  5.000e-04

------------------------------
INITIAL GUESS: MODEL POTENTIAL
------------------------------
Loading Hartree-Fock densities                     ... done
Calculating cut-offs                               ... done
Initializing the effective Hamiltonian             ... done
Setting up the integral package (SHARK)            ... done
Starting the Coulomb interaction                   ... done (   0.1 sec)
Making the grid                                    ... done (   0.1 sec)
Mapping shells                                     ... done
Starting the XC term evaluation                    ... done (   0.1 sec)
  promolecular density results
     # of electrons  =     49.995067440
     EX              =    -42.174139504
     EC              =     -1.664968450
     EX+EC           =    -43.839107954
Transforming the Hamiltonian                       ... done (   0.0 sec)
Diagonalizing the Hamiltonian                      ... done (   0.0 sec)
Back transforming the eigenvectors                 ... done (   0.0 sec)
Now organizing SCF variables                       ... done
                      ------------------
                      INITIAL GUESS DONE (   0.3 sec)
                      ------------------
             **** ENERGY FILE WAS UPDATED (sp.en.tmp) ****
Finished Guess after   0.5 sec
Maximum memory used throughout the entire GUESS-calculation: 11.7 MB

-------------------------------------------------------------------------------------------
                                      ORCA LEAN-SCF
                              memory conserving SCF solver
-------------------------------------------------------------------------------------------

----------------------------------------D-I-I-S--------------------------------------------
Iteration    Energy (Eh)           Delta-E    RMSDP     MaxDP     DIISErr   Damp  Time(sec)
-------------------------------------------------------------------------------------------
               ***  Starting incremental Fock matrix formation  ***
    1    -343.8996850729637345     0.00e+00  6.18e-03  7.50e-02  2.37e-01  0.700   0.6
    2    -343.9903794543383810    -9.07e-02  4.04e-03  5.25e-02  9.48e-02  0.700   0.6
                               ***Turning on AO-DIIS***
    3    -344.0194496250178418    -2.91e-02  1.50e-03  1.72e-02  2.13e-02  0.700   0.5
    4    -344.0383763247350544    -1.89e-02  2.02e-03  2.79e-02  1.06e-02  0.000   0.5
    5    -344.0821780935538072    -4.38e-02  5.96e-04  8.31e-03  6.25e-03  0.000   0.5
                              *** Initializing SOSCF ***
---------------------------------------S-O-S-C-F--------------------------------------
Iteration    Energy (Eh)           Delta-E    RMSDP     MaxDP     MaxGrad    Time(sec)
--------------------------------------------------------------------------------------
    6    -344.0824177426962933    -2.40e-04  2.14e-04  3.14e-03  1.29e-03     0.5
               *** Restarting incremental Fock matrix formation ***
    7    -344.0824384415861914    -2.07e-05  1.52e-04  2.02e-03  2.23e-04     0.5
    8    -344.0824399031117764    -1.46e-06  4.65e-05  6.75e-04  1.80e-04     0.5
                 **** Energy Check signals convergence ****

               *****************************************************
               *                     SUCCESS                       *
               *           SCF CONVERGED AFTER   8 CYCLES          *
               *****************************************************

             **** ENERGY FILE WAS UPDATED (sp.en.tmp) ****

----------------
TOTAL SCF ENERGY
----------------

Total Energy       :       -344.08243990311178 Eh           -9362.95919 eV

Components:
Nuclear Repulsion  :        260.78647714783131 Eh            7096.36082 eV
Electronic Energy  :       -604.86891705094308 Eh          -16459.32001 eV
One Electron Energy:       -987.60978240467284 Eh          -26874.22844 eV
Two Electron Energy:        382.74086535372970 Eh           10414.90843 eV

Virial components:
Potential Energy   :       -685.81884408629367 Eh          -18662.07951 eV
Kinetic Energy     :        341.73640418318189 Eh            9299.12032 eV
Virial Ratio       :          2.00686504478660

DFT components:
N(Alpha)           :       24.999854350231 electrons
N(Beta)            :       24.999854350231 electrons
N(Total)           :       49.999708700462 electrons
E(X)               :      -42.971053141525 Eh       
E(C)               :       -1.681454693331 Eh       
E(XC)              :      -44.652507834856 Eh       

---------------
SCF CONVERGENCE
---------------

  Last Energy change         ...    1.4615e-06  Tolerance :   1.0000e-05
  Last MAX-Density change    ...    6.7495e-04  Tolerance :   1.0000e-03
  Last RMS-Density change    ...    4.6460e-05  Tolerance :   1.0000e-04
  Last DIIS Error            ...    1.2921e-03  Tolerance :   5.0000e-04
  Last Orbital Gradient      ...    1.7956e-04  Tolerance :   1.0000e-04
  Last Orbital Rotation      ...    1.8132e-04  Tolerance :   1.0000e-04


----------------
ORBITAL ENERGIES
----------------

  NO   OCC          E(Eh)            E(eV) 
   0   2.0000     -18.757553      -510.4190 
   1   2.0000     -18.753641      -510.3125 
   2   2.0000     -18.745135      -510.0811 
   3   2.0000      -9.937030      -270.4003 
   4   2.0000      -9.931468      -270.2490 
   5   2.0000      -9.931010      -270.2365 
   6   2.0000      -0.940482       -25.5918 
   7   2.0000      -0.928462       -25.2647 
   8   2.0000      -0.913315       -24.8526 
   9   2.0000      -0.679475       -18.4894 
  10   2.0000      -0.608238       -16.5510 
  11   2.0000      -0.547899       -14.9091 
  12   2.0000      -0.484756       -13.1909 
  13   2.0000      -0.453282       -12.3344 
  14   2.0000      -0.442822       -12.0498 
  15   2.0000      -0.418515       -11.3884 
  16   2.0000      -0.390914       -10.6373 
  17   2.0000      -0.372368       -10.1327 
  18   2.0000      -0.348912        -9.4944 
  19   2.0000      -0.296530        -8.0690 
  20   2.0000      -0.286289        -7.7903 
  21   2.0000      -0.278943        -7.5904 
  22   2.0000      -0.249228        -6.7818 
  23   2.0000      -0.217139        -5.9087 
  24   2.0000      -0.210030        -5.7152 
  25   0.0000       0.016235         0.4418 
  26   0.0000       0.019451         0.5293 
  27   0.0000       0.062627         1.7042 
  28   0.0000       0.070426         1.9164 
  29   0.0000       0.092778         2.5246 
  30   0.0000       0.105767         2.8781 
  31   0.0000       0.118557         3.2261 
  32   0.0000       0.124640         3.3916 
  33   0.0000       0.147613         4.0168 
  34   0.0000       0.189029         5.1437 
  35   0.0000       0.200250         5.4491 
*Only the first 10 virtual orbitals were printed.

                    ********************************
                    * MULLIKEN POPULATION ANALYSIS *
                    ********************************

-----------------------
MULLIKEN ATOMIC CHARGES
-----------------------
   0 C :    0.001885
   1 C :   -0.013180
   2 C :    0.032390
   3 O :   -0.432203
   4 O :   -0.429538
   5 O :   -0.433312
   6 H :    0.083788
   7 H :    0.089251
   8 H :    0.028805
   9 H :    0.089971
  10 H :    0.086688
  11 H :    0.297235
  12 H :    0.299570
  13 H :    0.298648
Sum of atomic charges:   -0.0000000

--------------------------------
MULLIKEN REDUCED ORBITAL CHARGES
--------------------------------
  0 C s       :     3.058760  s :     3.058760
      pz      :     1.035473  p :     2.877377
      px      :     0.800123
      py      :     1.041780
      dz2     :     0.014901  d :     0.061978
      dxz     :     0.012208
      dyz     :     0.003922
      dx2y2   :     0.017812
      dxy     :     0.013135

  1 C s       :     3.077115  s :     3.077115
      pz      :     1.037898  p :     2.867874
      px      :     1.037113
      py      :     0.792863
      dz2     :     0.016213  d :     0.068191
      dxz     :     0.005700
      dyz     :     0.014617
      dx2y2   :     0.017759
      dxy     :     0.013902

  2 C s       :     3.043307  s :     3.043307
      pz      :     1.080603  p :     2.861849
      px      :     1.003685
      py      :     0.777561
      dz2     :     0.014828  d :     0.062454
      dxz     :     0.004787
      dyz     :     0.009433
      dx2y2   :     0.014083
      dxy     :     0.019323

  3 O s       :     3.791351  s :     3.791351
      pz      :     1.348654  p :     4.625205
      px      :     1.843572
      py      :     1.432979
      dz2     :     0.007306  d :     0.015647
      dxz     :     0.001356
      dyz     :     0.001647
      dx2y2   :     0.003199
      dxy     :     0.002141

  4 O s       :     3.785323  s :     3.785323
      pz      :     1.875218  p :     4.628958
      px      :     1.387262
      py      :     1.366478
      dz2     :     0.002670  d :     0.015256
      dxz     :     0.000814
      dyz     :     0.002084
      dx2y2   :     0.007606
      dxy     :     0.002082

  5 O s       :     3.788747  s :     3.788747
      pz      :     1.327017  p :     4.629119
      px      :     1.510290
      py      :     1.791813
      dz2     :     0.005437  d :     0.015446
      dxz     :     0.001511
      dyz     :     0.003113
      dx2y2   :     0.002779
      dxy     :     0.002606

  6 H s       :     0.916212  s :     0.916212

  7 H s       :     0.910749  s :     0.910749

  8 H s       :     0.971195  s :     0.971195

  9 H s       :     0.910029  s :     0.910029

 10 H s       :     0.913312  s :     0.913312

 11 H s       :     0.702765  s :     0.702765

 12 H s       :     0.700430  s :     0.700430

 13 H s       :     0.701352  s :     0.701352


------------------------
MULLIKEN OVERLAP CHARGES
------------------------
B(  0-C ,  1-C ) :   0.7333 B(  0-C ,  4-O ) :  -0.0594 B(  0-C ,  5-O ) :   0.6636 
B(  0-C ,  6-H ) :   0.6652 B(  0-C ,  7-H ) :   0.6670 B(  0-C ,  8-H ) :  -0.1191 
B(  0-C , 13-H ) :  -0.0927 B(  1-C ,  2-C ) :   0.4122 B(  1-C ,  3-O ) :  -0.0969 
B(  1-C ,  4-O ) :   0.5719 B(  1-C ,  5-O ) :  -0.1219 B(  1-C ,  6-H ) :  -0.1121 
B(  1-C ,  8-H ) :   0.6224 B(  1-C ,  9-H ) :  -0.0565 B(  1-C , 12-H ) :  -0.0985 
B(  2-C ,  3-O ) :   0.6235 B(  2-C ,  4-O ) :  -0.0981 B(  2-C ,  8-H ) :  -0.0975 
B(  2-C ,  9-H ) :   0.6702 B(  2-C , 10-H ) :   0.6581 B(  2-C , 11-H ) :  -0.0957 
B(  3-O ,  6-H ) :   0.0501 B(  3-O , 10-H ) :  -0.0567 B(  3-O , 11-H ) :   0.5272 
B(  4-O ,  8-H ) :  -0.0698 B(  4-O , 12-H ) :   0.5186 B(  5-O ,  6-H ) :  -0.0560 
B(  5-O ,  7-H ) :  -0.0702 B(  5-O , 12-H ) :   0.0562 B(  5-O , 13-H ) :   0.5269 
B(  6-H ,  7-H ) :  -0.0571 B(  9-H , 10-H ) :  -0.0767 


                     *******************************
                     * LOEWDIN POPULATION ANALYSIS *
                     *******************************

----------------------
LOEWDIN ATOMIC CHARGES
----------------------
   0 C :   -0.144876
   1 C :   -0.099585
   2 C :   -0.127087
   3 O :   -0.332661
   4 O :   -0.331819
   5 O :   -0.337316
   6 H :    0.103859
   7 H :    0.116476
   8 H :    0.081926
   9 H :    0.103643
  10 H :    0.116523
  11 H :    0.284258
  12 H :    0.281538
  13 H :    0.285120

-------------------------------
LOEWDIN REDUCED ORBITAL CHARGES
-------------------------------
  0 C s       :     2.926436  s :     2.926436
      pz      :     1.072553  p :     3.076396
      px      :     0.902790
      py      :     1.101053
      dz2     :     0.033880  d :     0.142044
      dxz     :     0.026770
      dyz     :     0.008279
      dx2y2   :     0.040643
      dxy     :     0.032472

  1 C s       :     2.907307  s :     2.907307
      pz      :     1.074982  p :     3.034013
      px      :     1.078855
      py      :     0.880175
      dz2     :     0.037811  d :     0.158265
      dxz     :     0.014234
      dyz     :     0.033219
      dx2y2   :     0.041293
      dxy     :     0.031708

  2 C s       :     2.922735  s :     2.922735
      pz      :     1.109536  p :     3.061677
      px      :     1.062350
      py      :     0.889791
      dz2     :     0.034431  d :     0.142675
      dxz     :     0.011005
      dyz     :     0.018666
      dx2y2   :     0.033863
      dxy     :     0.044710

  3 O s       :     3.541069  s :     3.541069
      pz      :     1.421487  p :     4.764476
      px      :     1.839641
      py      :     1.503348
      dz2     :     0.012851  d :     0.027116
      dxz     :     0.002226
      dyz     :     0.002992
      dx2y2   :     0.005560
      dxy     :     0.003488

  4 O s       :     3.539502  s :     3.539502
      pz      :     1.887454  p :     4.765692
      px      :     1.450142
      py      :     1.428096
      dz2     :     0.004223  d :     0.026626
      dxz     :     0.000990
      dyz     :     0.003226
      dx2y2   :     0.014142
      dxy     :     0.004046

  5 O s       :     3.543465  s :     3.543465
      pz      :     1.399552  p :     4.767087
      px      :     1.555917
      py      :     1.811618
      dz2     :     0.009724  d :     0.026763
      dxz     :     0.003319
      dyz     :     0.005148
      dx2y2   :     0.004745
      dxy     :     0.003828

  6 H s       :     0.896141  s :     0.896141

  7 H s       :     0.883524  s :     0.883524

  8 H s       :     0.918074  s :     0.918074

  9 H s       :     0.896357  s :     0.896357

 10 H s       :     0.883477  s :     0.883477

 11 H s       :     0.715742  s :     0.715742

 12 H s       :     0.718462  s :     0.718462

 13 H s       :     0.714880  s :     0.714880


---------------------------------
LOEWDIN BOND ORDERS (THRESH 0.050000)
---------------------------------
B(  0-C ,  1-C ) :   1.0695 B(  0-C ,  2-C ) :   0.0583 B(  0-C ,  4-O ) :   0.0734 
B(  0-C ,  5-O ) :   1.2331 B(  0-C ,  6-H ) :   0.9018 B(  0-C ,  7-H ) :   0.9058 
B(  1-C ,  2-C ) :   1.0536 B(  1-C ,  3-O ) :   0.0834 B(  1-C ,  4-O ) :   1.2188 
B(  1-C ,  5-O ) :   0.0827 B(  1-C ,  8-H ) :   0.8712 B(  2-C ,  3-O ) :   1.2448 
B(  2-C ,  4-O ) :   0.0703 B(  2-C ,  9-H ) :   0.9078 B(  2-C , 10-H ) :   0.9089 
B(  3-O , 11-H ) :   0.8908 B(  4-O , 12-H ) :   0.8721 B(  5-O , 13-H ) :   0.8902 


------------------------------------------
LOEWDIN REDUCED ORBITAL POPULATIONS PER MO
-------------------------------------------
THRESHOLD FOR PRINTING IS 0.1%%
                      0         1         2         3         4         5   
                 -18.75755 -18.75364 -18.74513  -9.93703  -9.93147  -9.93101
                   2.00000   2.00000   2.00000   2.00000   2.00000   2.00000
                  --------  --------  --------  --------  --------  --------
 0 C  s               0.0       0.0       0.0       0.0      99.6       0.0
 1 C  s               0.0       0.0       0.0      99.6       0.0       0.0
 2 C  s               0.0       0.0       0.0       0.0       0.0      99.6
 3 O  s               0.0      99.9       0.0       0.0       0.0       0.0
 3 O  py              0.0       0.0       0.0       0.0       0.0       0.1
 4 O  s               0.0       0.0      99.9       0.0       0.0       0.0
 4 O  py              0.0       0.0       0.0       0.1       0.0       0.0
 5 O  s              99.9       0.0       0.0       0.0       0.0       0.0

                      6         7         8         9        10        11   
                  -0.94048  -0.92846  -0.91331  -0.67947  -0.60824  -0.54790
                   2.00000   2.00000   2.00000   2.00000   2.00000   2.00000
                  --------  --------  --------  --------  --------  --------
 0 C  s               8.1       1.5       1.0      11.5      17.4       2.1
 0 C  pz              1.6       0.3       0.2       0.0       0.7       3.4
 0 C  px              1.9       2.0       3.4       4.7       0.1       2.1
 0 C  py              1.0       0.1       0.2       0.1       0.0       0.4
 0 C  dxz             0.2       0.1       0.2       0.1       0.0       0.0
 0 C  dx2y2           0.2       0.1       0.1       0.0       0.0       0.0
 1 C  s               6.7       0.2       4.8      18.3       0.0      10.1
 1 C  pz              0.3       0.0       0.1       0.7       0.0       4.9
 1 C  px              0.5       1.7       0.0       0.4      11.2       0.0
 1 C  py              1.0       0.1       8.0       5.1       0.9       0.2
 1 C  dz2             0.1       0.0       0.1       0.0       0.0       0.0
 1 C  dxz             0.0       0.0       0.0       0.0       0.2       0.0
 1 C  dx2y2           0.1       0.0       0.5       0.2       0.0       0.0
 1 C  dxy             0.0       0.0       0.1       0.0       0.1       0.0
 2 C  s               2.8       8.0       0.1      11.1      14.4       5.4
 2 C  pz              0.3       0.7       0.0       0.0       0.2       5.2
 2 C  px              0.2       0.5       0.7       3.7       0.1       3.1
 2 C  py              0.4       6.1       1.7       1.4       1.4       1.2
 2 C  dyz             0.0       0.2       0.0       0.0       0.0       0.0
 2 C  dx2y2           0.0       0.3       0.1       0.1       0.0       0.1
 2 C  dxy             0.0       0.1       0.0       0.0       0.0       0.0
 3 O  s               7.2      47.6       4.4       3.2       1.6       0.1
 3 O  pz              0.1       1.0       0.1       1.4       3.3       9.8
 3 O  px              0.0       0.0       0.0       0.6       0.4       0.5
 3 O  py              0.4       1.9       0.1       1.6       4.1       5.0
 3 O  dz2             0.0       0.0       0.0       0.0       0.1       0.1
 4 O  s              16.3       0.0      42.0       5.0       0.0       0.8
 4 O  pz              0.1       0.0       0.1       0.0       0.0       0.7
 4 O  px              0.4       0.0       1.1       2.0       1.3       4.2
 4 O  py              0.8       0.0       1.1       3.6       0.1       7.7
 4 O  dx2y2           0.0       0.0       0.0       0.1       0.0       0.2
 5 O  s              31.6      12.2      16.1       2.1       2.5       0.0
 5 O  pz              0.3       0.1       0.2       1.4       7.7       5.3
 5 O  px              1.3       0.4       0.3       1.4       5.2       1.0
 5 O  py              0.4       0.2       0.3       0.0       0.0       0.0
 6 H  s               1.0       0.1       0.2       2.6       4.6       0.8
 7 H  s               1.1       0.2       0.1       2.6       5.7       2.4
 8 H  s               1.0       0.0       0.4       3.6       0.0       7.0
 9 H  s               0.4       0.9       0.0       2.0       4.8       1.3
10 H  s               0.4       0.9       0.0       2.8       4.1       4.6
11 H  s               1.5       9.7       0.9       1.9       2.5       4.3
12 H  s               3.9       0.0       7.9       3.0       0.3       3.6
13 H  s               6.4       2.5       3.4       1.3       4.4       1.7

                     12        13        14        15        16        17   
                  -0.48476  -0.45328  -0.44282  -0.41852  -0.39091  -0.37237
                   2.00000   2.00000   2.00000   2.00000   2.00000   2.00000
                  --------  --------  --------  --------  --------  --------
 0 C  s               0.1       1.4       0.1       0.5       0.6       0.8
 0 C  pz              3.0       5.4       1.1       0.1       8.7      13.7
 0 C  px             10.7       4.3       0.3       2.8       0.4       1.6
 0 C  py              1.8       8.0       3.1      24.8       0.1       1.5
 0 C  dz2             0.0       0.0       0.0       0.0       0.0       0.3
 0 C  dxz             0.1       0.0       0.0       0.0       0.0       0.1
 0 C  dyz             0.0       0.1       0.0       0.0       0.0       0.0
 0 C  dx2y2           0.1       0.2       0.0       0.1       0.2       0.2
 1 C  s               0.4       0.9       0.3       0.5       0.1       0.0
 1 C  pz              1.1      13.3       5.1       6.0       0.4       0.4
 1 C  px              3.3       1.2       2.6       2.7      13.2       2.6
 1 C  py              9.1       0.0       5.0       2.9       2.2       1.4
 1 C  dxz             0.0       0.0       0.0       0.0       0.0       0.3
 1 C  dx2y2           0.0       0.0       0.4       0.5       0.0       0.0
 1 C  dxy             0.0       0.0       0.0       0.0       0.2       0.0
 2 C  s               0.4       0.1       2.0       0.5       0.1       0.1
 2 C  pz              0.1       1.5       6.6       2.5       8.7       9.4
 2 C  px              1.4       1.1       2.1       0.9      17.6      13.2
 2 C  py              8.2       3.9       8.6       1.8       1.9       0.4
 2 C  dz2             0.0       0.0       0.1       0.1       0.0       0.2
 2 C  dxz             0.0       0.0       0.0       0.0       0.1       0.1
 2 C  dx2y2           0.0       0.1       0.2       0.2       0.0       0.0
 2 C  dxy             0.0       0.0       0.3       0.0       0.0       0.0
 3 O  s               0.1       0.0       3.4       0.2       0.2       0.6
 3 O  pz              4.6       4.9      13.5       3.6       0.8       0.1
 3 O  px              2.5       0.5       1.2       0.7       9.7       2.2
 3 O  py              1.1       4.5       0.4       2.0       0.8      12.4
 4 O  s               0.1       0.8       0.0       2.8       0.3       0.6
 4 O  pz              0.1       2.4       0.2       1.9       0.5       0.6
 4 O  px              9.5       1.8       5.7      11.7       0.1       0.6
 4 O  py              4.7       0.1      14.1       0.2       4.0       2.9
 4 O  dx2y2           0.1       0.0       0.2       0.0       0.0       0.0
 5 O  s               1.0       0.3       0.1       0.5       3.0       0.0
 5 O  pz             16.1       9.5       0.2       0.3       4.7       2.8
 5 O  px              1.4       5.8       0.6       0.2       7.7       6.4
 5 O  py              0.3       2.8       0.4       9.7       1.0       1.2
 6 H  s               2.0       6.2       1.2      10.8       0.7       0.1
 7 H  s               0.8       2.9       0.3       0.2       2.1      10.7
 8 H  s               1.5       6.4       2.6       0.7       0.0       0.1
 9 H  s               3.4       0.2       9.4       0.1       4.8       3.8
10 H  s               0.1       1.1       0.2       2.5       3.7       6.2
11 H  s               2.3       2.6       3.1       1.9       0.1       0.4
12 H  s               3.8       0.3       5.0       2.8       0.4       0.0
13 H  s               4.7       4.9       0.1       0.0       0.4       1.6

                     18        19        20        21        22        23   
                  -0.34891  -0.29653  -0.28629  -0.27894  -0.24923  -0.21714
                   2.00000   2.00000   2.00000   2.00000   2.00000   2.00000
                  --------  --------  --------  --------  --------  --------
 0 C  s               0.2       0.5       0.1       0.0       0.1       0.2
 0 C  pz              9.1       0.1       4.4       1.1       0.1       0.0
 0 C  px              0.4       1.0       4.5       2.1       0.2       0.1
 0 C  py              0.8       5.0       2.7       0.5       0.5       0.2
 0 C  dz2             0.1       0.3       0.7       0.1       0.0       0.0
 0 C  dxz             0.1       0.0       0.1       0.1       0.1       0.1
 0 C  dx2y2           0.0       0.0       0.1       0.0       0.4       0.0
 0 C  dxy             0.0       0.0       0.0       0.0       0.5       0.0
 1 C  s               0.2       0.2       0.3       0.1       1.9       0.6
 1 C  pz             14.3       0.5       1.3       0.4       0.1       3.0
 1 C  px              0.2       0.0       0.4       3.5       0.1       4.5
 1 C  py              0.3       3.8       0.5       0.3       1.8       0.3
 1 C  dz2             0.6       0.1       0.1       0.0       0.3       0.2
 1 C  dyz             0.0       0.0       0.0       0.0       0.2       0.6
 1 C  dx2y2           0.0       0.1       0.0       0.3       0.0       0.0
 1 C  dxy             0.0       0.7       0.1       0.1       0.0       0.0
 2 C  s               0.2       0.4       0.1       0.1       0.2       0.3
 2 C  pz             10.7       0.2       2.1       6.7       0.1       0.6
 2 C  px              0.0       0.8       1.5       0.4       0.0       5.1
 2 C  py              0.7       0.4       1.6       4.3       0.3       0.2
 2 C  dz2             0.3       0.1       0.4       0.4       0.0       0.0
 2 C  dyz             0.1       0.1       0.1       0.3       0.0       0.1
 2 C  dx2y2           0.0       0.0       0.0       0.0       0.2       0.3
 2 C  dxy             0.0       0.0       0.0       0.0       0.4       0.8
 3 O  s               1.0       1.2       1.6       4.8       0.0       0.0
 3 O  pz              2.3       4.6       6.1      11.2       1.3       2.1
 3 O  px              0.8       1.4       0.9       1.3      23.3      38.2
 3 O  py             11.6       2.7       4.9      19.0       1.2       0.9
 4 O  s               0.4       5.1       0.0       2.0       0.1       0.3
 4 O  pz              8.3       2.1       2.0       0.2      18.3      29.7
 4 O  px              0.6      23.7       0.0       8.2       0.2       0.0
 4 O  py              0.4      25.6       0.3       1.9       0.2       0.7
 5 O  s               0.8       0.2       5.0       1.7       0.0       0.0
 5 O  pz              1.3       3.0       6.4       1.5       5.2       0.3
 5 O  px             10.1       3.0      15.0       4.6       6.0       1.2
 5 O  py              0.4       3.6      11.8       7.2      31.0       0.8
 6 H  s               0.2       2.2       5.5       0.9       2.5       0.3
 7 H  s               4.6       1.8       6.8       1.1       0.0       0.3
 8 H  s              10.9       1.0       1.3       0.3       2.0       3.9
 9 H  s               0.1       0.9       3.5       2.9       1.1       2.6
10 H  s               7.1       0.8       3.6       5.2       0.0       0.6
11 H  s               0.1       0.6       1.1       2.6       0.0       0.0
12 H  s               0.4       1.9       0.1       1.5       0.2       0.4
13 H  s               0.1       0.3       2.8       0.9       0.0       0.1

                     24        25        26        27        28        29   
                  -0.21003   0.01624   0.01945   0.06263   0.07043   0.09278
                   2.00000   0.00000   0.00000   0.00000   0.00000   0.00000
                  --------  --------  --------  --------  --------  --------
 0 C  s               0.5       0.4       0.4       1.0       5.3       0.2
 0 C  pz              0.7       1.4       0.2       2.7       6.2       0.7
 0 C  px              2.5       2.9       0.6       1.1       0.6       3.1
 0 C  py              4.4       1.4       0.5       0.3       0.8       0.7
 0 C  dz2             0.0       0.1       0.1       0.0       0.2       0.1
 0 C  dxz             0.1       0.3       0.1       0.3       0.4       0.6
 0 C  dyz             0.0       0.2       0.0       0.0       0.1       0.0
 0 C  dx2y2           0.4       0.3       0.1       0.0       0.0       0.4
 0 C  dxy             0.4       0.0       0.0       0.0       0.0       0.1
 1 C  s               0.1       0.5       1.8       0.2       0.6       3.4
 1 C  pz              1.7       2.3       2.6       0.0       2.9       3.7
 1 C  px              5.8       0.2       0.3       0.1       0.0       0.0
 1 C  py              0.9       0.8       0.3       2.3       2.7       0.1
 1 C  dz2             0.2       0.0       0.0       0.0       1.0       0.2
 1 C  dxz             0.0       0.2       0.2       0.0       0.0       0.0
 1 C  dyz             0.5       0.0       0.0       0.0       0.2       0.0
 1 C  dx2y2           0.0       0.3       0.3       0.0       0.1       0.2
 1 C  dxy             0.1       0.0       0.1       0.3       0.2       0.1
 2 C  s               0.0       0.3       1.0       5.8       0.4       6.6
 2 C  pz              0.0       0.1       0.5       1.0       6.0       0.7
 2 C  px              0.8       0.3       0.5       0.5       0.2       2.2
 2 C  py              0.1       1.3       5.5       0.5       0.9       0.3
 2 C  dz2             0.1       0.1       0.0       0.0       0.5       0.0
 2 C  dxz             0.0       0.0       0.0       0.1       0.1       0.5
 2 C  dyz             0.0       0.1       0.5       0.0       0.0       0.1
 2 C  dx2y2           0.0       0.1       0.3       0.2       0.2       0.0
 2 C  dxy             0.4       0.1       0.1       0.1       0.0       0.0
 3 O  s               0.0       0.4       9.1       0.2       0.3       2.5
 3 O  pz              0.4       0.0       8.0       0.0       0.1       2.1
 3 O  px              7.8       0.0       0.0       0.0       0.4       0.6
 3 O  py              0.7       0.4       0.3       0.8       0.6       0.1
 3 O  dyz             0.0       0.0       0.0       0.0       0.0       0.1
 4 O  s               0.3       1.8       0.4       7.2       2.3       0.7
 4 O  pz             27.4       0.1       0.2       0.0       0.4       0.2
 4 O  px              1.4       2.1       0.1       4.3       0.5       2.8
 4 O  py              3.0       0.2       0.5       0.3       0.3       0.1
 5 O  s               0.1       9.1       0.1       0.8       1.0       0.5
 5 O  pz              3.7       6.4       0.3       0.7       0.5       1.5
 5 O  px              6.1       0.7       0.4       0.0       0.2       1.2
 5 O  py             19.3       0.4       0.0       2.6       0.6       0.2
 5 O  dz2             0.0       0.0       0.0       0.1       0.0       0.0
 6 H  s               3.0       3.5       1.3       0.1       5.9       0.8
 7 H  s               0.4       0.3       0.1       8.9      21.7       0.3
 8 H  s               3.1       5.1       7.6       0.1      11.5      15.5
 9 H  s               2.5       0.3       5.5       5.0       0.2      12.8
10 H  s               0.2       0.7       0.3       9.6      14.4       7.6
11 H  s               0.0       0.2      48.2       0.0       0.1      15.9
12 H  s               0.6       9.5       0.8      34.2       6.2       8.8
13 H  s               0.0      45.1       0.3       8.2       3.1       1.6

                     30        31        32        33        34        35   
                   0.10577   0.11856   0.12464   0.14761   0.18903   0.20025
                   0.00000   0.00000   0.00000   0.00000   0.00000   0.00000
                  --------  --------  --------  --------  --------  --------
 0 C  s               5.3       0.2       5.9       3.9       3.8       0.0
 0 C  pz              0.3       8.6       0.7       1.4       6.3       0.5
 0 C  px              0.4       0.4       2.6       5.1      12.8      11.3
 0 C  py              4.8      10.4       0.5       0.1       4.6       0.6
 0 C  dz2             0.0       1.0       0.0       0.1       0.2       0.0
 0 C  dxz             0.3       0.1       0.3       0.3       1.6       0.6
 0 C  dyz             0.1       0.2       0.1       0.0       2.0       0.4
 0 C  dx2y2           0.2       0.2       0.0       1.6       0.8       0.4
 0 C  dxy             0.0       0.0       0.1       0.7       0.2       1.4
 1 C  s               1.8       3.0       0.7       0.2       0.2       0.2
 1 C  pz              3.7       1.2       0.1       0.2       1.6       1.6
 1 C  px              0.4       0.0       2.6       3.3       7.4      10.4
 1 C  py              2.0       2.7       0.5      11.4       8.3       0.4
 1 C  dz2             0.3       0.3       0.1       0.0       0.3       0.1
 1 C  dxz             0.0       0.5       1.4       0.3       0.9       0.7
 1 C  dyz             0.0       0.2       0.0       0.2       1.0       0.0
 1 C  dx2y2           0.6       0.5       0.0       3.6       0.4       0.3
 1 C  dxy             0.0       0.1       0.3       0.0       0.2       1.9
 2 C  s               2.0       1.5       0.1       0.7       4.1       7.1
 2 C  pz              0.1       0.2      10.8       1.9       0.7       7.1
 2 C  px              1.6       0.3       7.8       7.3       5.4       1.5
 2 C  py              4.7       1.3       1.5       7.5       0.7      13.1
 2 C  dz2             0.0       0.1       1.1       0.0       0.0       1.4
 2 C  dxz             0.2       0.0       0.1       0.5       1.3       0.7
 2 C  dyz             0.2       0.0       0.0       0.0       0.2       0.4
 2 C  dx2y2           0.1       0.0       0.0       2.5       0.0       1.4
 2 C  dxy             0.2       0.0       0.1       0.4       0.3       0.9
 3 O  s               0.4       0.1       0.2       0.6       0.6       1.9
 3 O  pz              0.0       0.6       0.1       3.5       0.2       1.4
 3 O  px              0.2       0.3       0.3       0.9       0.0       1.3
 3 O  py              0.4       0.2       0.9       3.0       0.1       9.9
 3 O  dz2             0.0       0.0       0.0       0.1       0.0       0.2
 3 O  dxz             0.0       0.0       0.0       0.0       0.1       0.0
 3 O  dyz             0.0       0.0       0.1       0.1       0.0       0.0
 3 O  dx2y2           0.0       0.0       0.1       0.0       0.0       0.4
 3 O  dxy             0.1       0.0       0.0       0.0       0.0       0.3
 4 O  s               0.0       0.7       0.1       0.5       0.7       0.1
 4 O  pz              0.4       0.4       0.0       0.1       1.3       0.2
 4 O  px              0.4       0.0       0.3       2.5       0.0       2.0
 4 O  py              1.6       1.7       0.1       7.0       1.9       0.1
 4 O  dyz             0.1       0.1       0.0       0.1       0.2       0.0
 4 O  dx2y2           0.1       0.1       0.0       0.2       0.2       0.1
 4 O  dxy             0.0       0.0       0.0       0.0       0.0       0.3
 5 O  s               1.8       0.0       0.0       1.1       1.7       0.7
 5 O  pz              0.7       0.0       0.6       1.0       5.5       2.6
 5 O  px              0.0       0.4       0.0       4.5       5.0       2.0
 5 O  py              0.6       0.3       0.1       0.7       0.4       0.0
 5 O  dxz             0.1       0.1       0.0       0.1       0.4       0.1
 5 O  dyz             0.0       0.0       0.0       0.1       0.0       0.2
 5 O  dx2y2           0.0       0.0       0.0       0.2       0.2       0.0
 5 O  dxy             0.0       0.2       0.0       0.1       0.1       0.0
 6 H  s              19.4      27.8       3.7       2.3       1.3       0.1
 7 H  s               3.0      20.2       8.0       0.2       2.7       0.5
 8 H  s              13.7       6.8       1.2       0.3       2.4       4.1
 9 H  s              15.6       3.9      21.4       0.8       2.6       0.2
10 H  s               0.5       2.2      22.8       4.5       0.5       1.0
11 H  s               0.3       0.7       0.2       4.7       1.2       2.2
12 H  s               2.7       0.0       0.8       7.5       0.4       1.7
13 H  s               8.7       0.2       1.1       0.2       4.7       1.9

                     36        37        38        39        40        41   
                   0.21523   0.24240   0.42393   0.42930   0.45686   0.47140
                   0.00000   0.00000   0.00000   0.00000   0.00000   0.00000
                  --------  --------  --------  --------  --------  --------
 0 C  s               4.8       0.0       1.2       6.0       1.3       4.5
 0 C  pz              7.7       1.3      11.0       7.0       0.4       4.3
 0 C  px              5.9       0.7       5.1      14.4      20.4       2.5
 0 C  py              8.4       1.1       2.9       6.9       7.8       1.0
 0 C  dz2             0.3       0.5       1.2       1.5       1.4       1.6
 0 C  dxz             0.5       0.0       0.3       0.3       0.0       0.2
 0 C  dyz             1.8       0.0       1.2       0.3       0.8       0.0
 0 C  dx2y2           1.1       0.0       0.3       0.3       0.6       0.1
 0 C  dxy             1.8       0.8       0.6       0.0       0.3       0.0
 1 C  s               7.0      16.0       0.0       0.2       0.9       3.5
 1 C  pz              4.7       7.5       0.7       0.7       2.7       2.3
 1 C  px              6.7       4.1       4.1      11.3       0.6       0.8
 1 C  py              9.7       7.2      13.5       1.1       1.7       5.3
 1 C  dz2             0.4       1.9       0.1       0.0       1.3       2.0
 1 C  dxz             1.0       0.8       1.9       0.5       0.0       0.7
 1 C  dyz             1.0       0.2       0.1       0.2       0.3       0.0
 1 C  dx2y2           0.8       0.2       0.1       0.0       0.2       0.2
 1 C  dxy             0.7       0.3       0.5       0.2       0.7       0.0
 2 C  s               1.6       0.6       6.3       1.1       3.1       5.7
 2 C  pz              2.9       1.4      12.2       3.9       0.8       0.6
 2 C  px              1.0      14.0       3.7       0.4       1.0      11.1
 2 C  py              5.7       6.5       5.7       2.4       8.8      24.3
 2 C  dz2             1.2       0.2       1.1       1.9       1.1       0.2
 2 C  dxz             0.2       1.0       0.3       0.1       0.8       0.1
 2 C  dyz             1.3       0.5       0.5       0.2       0.5       0.2
 2 C  dx2y2           0.0       2.5       0.2       0.3       0.1       0.0
 2 C  dxy             0.1       1.0       0.0       0.0       1.2       0.0
 3 O  s               0.5       0.6       0.5       0.5       0.2       0.1
 3 O  pz              1.3       1.1       1.5       0.5       0.7       0.8
 3 O  px              0.5       3.0       0.4       0.1       0.2       0.3
 3 O  py              1.4       0.9       1.3       0.6       1.3       2.2
 3 O  dz2             0.0       0.0       0.7       0.2       0.6       0.6
 3 O  dyz             0.1       0.2       0.2       0.0       0.0       0.4
 3 O  dx2y2           0.0       0.1       0.2       0.1       0.4       0.7
 3 O  dxy             0.1       0.1       0.1       0.1       0.0       0.2
 4 O  s               0.2       1.9       0.4       0.2       0.2       0.1
 4 O  pz              1.0       0.0       0.3       0.8       1.5       1.7
 4 O  px              0.3       1.5       0.0       0.1       0.8       0.3
 4 O  py              0.0       8.5       1.8       0.7       0.5       0.8
 4 O  dxz             0.2       0.1       0.0       0.0       0.0       0.0
 4 O  dyz             0.1       0.0       0.0       0.0       0.0       0.2
 4 O  dx2y2           0.0       1.1       0.4       0.1       0.2       0.3
 4 O  dxy             0.0       0.2       0.0       0.0       0.1       0.0
 5 O  s               0.3       0.1       0.8       0.6       0.8       0.1
 5 O  pz              0.2       0.0       0.5       3.4       0.3       0.3
 5 O  px              1.8       0.2       0.2       4.4       0.6       0.6
 5 O  py              0.3       0.9       0.3       0.1       0.2       0.1
 5 O  dz2             0.1       0.0       0.1       1.3       0.2       0.0
 5 O  dxz             0.0       0.0       0.1       0.2       0.3       0.5
 5 O  dyz             0.2       0.0       0.0       0.8       0.3       0.0
 5 O  dx2y2           0.2       0.0       0.0       0.8       0.1       0.2
 5 O  dxy             0.0       0.1       0.0       0.1       0.0       0.0
 6 H  s               1.0       1.2       0.7       4.9       5.0       0.8
 7 H  s               1.2       4.4       6.0       0.8       1.4       5.6
 8 H  s               0.5       0.4       0.1       0.0       3.6       8.8
 9 H  s               1.5       0.8       0.2       1.0      10.6       0.1
10 H  s               6.2       0.6       4.6       5.0       1.6       0.9
11 H  s               1.7       0.3       2.8       1.8       3.0       1.3
12 H  s               0.8       1.0       0.5       0.1       0.9       0.2
13 H  s               0.1       0.1       0.5       9.4       5.3       0.3

                     42        43        44        45        46        47   
                   0.49560   0.51734   0.55418   0.56236   0.57294   0.58947
                   0.00000   0.00000   0.00000   0.00000   0.00000   0.00000
                  --------  --------  --------  --------  --------  --------
 0 C  s               4.7      11.0       2.7       0.8       0.1       3.5
 0 C  pz              0.6       5.0       5.1       0.7       3.8       1.1
 0 C  px             10.0       1.0      18.4       0.1       3.6       0.2
 0 C  py              2.0       1.0       7.0       1.4       1.5       4.0
 0 C  dz2             0.3       1.3       0.3       0.0       0.1       0.9
 0 C  dxz             0.0       0.1       0.0       0.5       0.8       0.0
 0 C  dyz             0.1       0.2       0.3       0.0       1.2       0.3
 0 C  dx2y2           1.3       0.2       0.0       0.0       0.0       1.7
 0 C  dxy             0.1       0.2       0.1       0.0       0.4       1.0
 1 C  s               9.5       1.2       1.3       6.0       0.4       7.6
 1 C  pz              0.0       1.3       0.0       2.4       5.3       0.2
 1 C  px              7.4       1.3       0.9       2.8       0.4      24.9
 1 C  py             17.4       0.2      26.2       4.3       0.3       1.5
 1 C  dz2             0.3       0.0       0.0       1.8       0.6       0.7
 1 C  dxz             0.4       0.0       0.2       0.0       0.4       0.1
 1 C  dyz             0.1       0.0       0.0       0.6       0.1       0.2
 1 C  dx2y2           0.5       0.1       0.0       0.0       0.1       0.1
 1 C  dxy             0.1       0.7       0.1       0.0       0.2       0.2
 2 C  s               1.4       0.6       0.1      11.8       2.0       0.8
 2 C  pz              4.0       0.1       2.8       2.2       5.0       2.1
 2 C  px              6.3      16.3       5.0       0.1       0.4       0.9
 2 C  py              1.3      10.4       0.6       0.7       0.2       5.3
 2 C  dz2             0.8       0.5       0.4       0.9       0.0       0.7
 2 C  dxz             0.3       0.1       0.0       1.1       0.5       0.3
 2 C  dyz             0.1       1.4       0.0       0.4       0.2       0.1
 2 C  dx2y2           0.1       0.0       0.1       0.2       0.0       0.3
 2 C  dxy             0.1       0.3       0.9       0.0       0.1       0.2
 3 O  s               0.4       0.4       0.2       0.1       0.3       0.6
 3 O  pz              0.5       0.8       0.3       0.9       1.4       3.0
 3 O  px              3.2       0.7       0.3       0.3       0.2       0.2
 3 O  py              0.1       0.4       0.0       0.0       0.3       1.6
 3 O  dz2             0.5       0.5       0.2       0.9       0.3       0.0
 3 O  dxz             0.1       0.5       0.0       0.3       0.1       0.0
 3 O  dyz             0.1       0.2       0.0       0.4       0.0       0.1
 3 O  dx2y2           0.0       0.1       0.0       0.1       0.0       0.1
 3 O  dxy             0.0       0.1       0.2       0.1       0.0       0.0
 4 O  s               0.0       1.0       1.0       0.3       0.3       0.7
 4 O  pz              0.1       0.1       0.5       0.8       1.0       0.0
 4 O  px              0.9       1.1       0.1       5.0       1.7       0.4
 4 O  py              2.5       1.1       0.2       2.9       0.3       0.8
 4 O  dz2             0.2       0.7       0.1       0.6       0.3       0.0
 4 O  dxz             0.0       0.0       0.0       0.1       0.1       0.1
 4 O  dyz             0.1       0.0       0.1       0.1       0.1       0.0
 4 O  dx2y2           1.3       0.4       0.4       0.7       0.6       0.0
 4 O  dxy             0.2       0.3       0.1       0.1       0.2       0.0
 5 O  s               0.3       0.2       0.5       0.1       0.8       0.1
 5 O  pz              0.3       0.2       1.1       0.7       4.9       0.3
 5 O  px              0.5       0.6       0.5       0.1       3.6       0.4
 5 O  py              0.6       0.7       0.1       0.3       0.7       5.1
 5 O  dz2             0.0       0.0       0.1       0.4       2.3       0.0
 5 O  dxz             0.3       0.3       0.0       0.0       0.1       0.0
 5 O  dyz             0.1       0.0       0.0       0.3       0.9       0.0
 5 O  dx2y2           0.1       0.1       0.0       0.0       0.0       0.1
 5 O  dxy             0.3       0.0       0.0       0.0       0.0       0.2
 6 H  s               4.8       2.2       1.1       0.3       0.1      16.1
 7 H  s               0.4       3.0       4.8       0.0       0.7       0.9
 8 H  s               2.1       0.5       6.4       9.0       0.6       3.3
 9 H  s               0.5       5.2       4.6       0.0       3.2       0.2
10 H  s               4.2       1.0       0.8       4.7       0.3       5.0
11 H  s               4.7      10.5       2.6      11.2       3.2       1.1
12 H  s               1.3      12.5       0.4      14.9      10.3       0.2
13 H  s               0.3       0.2       0.8       5.7      33.4       0.3

                     48        49        50        51        52        53   
                   0.61508   0.62352   0.64453   0.65139   0.65441   0.67207
                   0.00000   0.00000   0.00000   0.00000   0.00000   0.00000
                  --------  --------  --------  --------  --------  --------
 0 C  s              11.5       6.2       0.6       0.1       9.7       7.9
 0 C  pz              0.1      18.8       7.4       1.4       7.9       3.5
 0 C  px              1.0       0.4       1.5       0.1       0.1       0.7
 0 C  py              0.4       1.5      16.8       2.6      17.8       0.4
 0 C  dz2             0.0       0.1       0.1       0.0       0.2       0.4
 0 C  dx2y2           0.0       0.0       0.0       0.0       0.5       0.0
 0 C  dxy             0.0       0.2       0.0       0.1       0.0       0.0
 1 C  s               0.7       0.7      22.4       1.1       1.3       0.2
 1 C  pz              0.2       9.2       1.5      12.4       1.7      18.3
 1 C  px             13.1       3.9       0.1       1.0       1.1       1.2
 1 C  py              0.3       0.2       1.1       2.6       0.2       4.5
 1 C  dz2             0.0       0.0       0.1       0.3       0.1       0.2
 1 C  dxz             0.0       0.2       0.0       0.1       0.0       0.0
 1 C  dyz             0.2       0.0       0.2       0.4       0.0       0.1
 1 C  dx2y2           0.2       0.0       0.2       0.0       0.0       0.0
 1 C  dxy             0.1       0.1       0.0       0.0       0.1       0.0
 2 C  s               1.0       3.8       8.6      16.0       3.4       2.1
 2 C  pz              6.6      10.2       6.3       1.2       4.8       0.7
 2 C  px             12.3       0.2       0.4      11.8       0.8       4.8
 2 C  py              1.9       2.5       2.6      12.2       0.2       1.6
 2 C  dz2             0.1       0.4       0.1       0.2       0.6       0.1
 2 C  dxz             0.1       0.7       0.0       0.0       0.4       0.1
 2 C  dyz             0.0       0.0       0.2       0.0       0.0       0.3
 2 C  dx2y2           0.0       0.2       0.0       0.0       0.0       0.0
 2 C  dxy             0.1       0.1       0.0       0.7       0.1       0.2
 3 O  s               0.6       0.3       1.3       0.3       2.1       0.9
 3 O  pz              2.7       1.5       1.6       0.6       2.0       0.1
 3 O  px              0.2       0.6       0.1       0.0       1.4       0.5
 3 O  py              3.0       0.1       2.8       0.0       0.0       2.4
 3 O  dz2             0.7       0.2       0.0       0.1       0.5       0.1
 4 O  s               0.2       0.1       1.7       0.8       0.3       0.5
 4 O  pz              0.2       0.0       0.0       0.2       0.1       2.8
 4 O  px              2.8       1.9       5.0       0.2       0.5       0.2
 4 O  py              0.1       0.0       1.0       0.4       0.6       0.9
 4 O  dz2             0.6       0.0       0.2       0.1       0.0       0.0
 4 O  dx2y2           0.6       0.2       0.1       0.0       0.0       0.1
 4 O  dxy             0.2       0.1       0.0       0.0       0.1       0.0
 5 O  s               3.2       0.1       0.1       0.0       0.2       0.3
 5 O  pz              0.5       0.0       1.9       0.0       0.1       3.3
 5 O  px              0.3       1.0       1.2       0.0       0.3       0.7
 5 O  py              0.0       1.3       1.0       0.0       1.2       0.1
 5 O  dxz             0.1       0.0       0.0       0.0       0.0       0.0
 6 H  s               1.0       2.0       2.0       0.7      13.8       0.5
 7 H  s               1.7      14.1       1.3       0.2      11.0       2.5
 8 H  s               1.0       2.1       1.2      13.4       0.1       8.0
 9 H  s               1.5       0.4       0.7      16.5       2.6      17.2
10 H  s               3.5       5.3       0.5       0.2       4.0       6.5
11 H  s              10.7       4.0       0.3       1.5       7.1       1.5
12 H  s              14.2       4.1       4.2       0.1       0.7       0.6
13 H  s               0.5       0.5       1.1       0.2       0.1       2.4

                     54        55        56        57        58        59   
                   0.68117   0.70734   0.80135   0.89520   0.94372   0.97057
                   0.00000   0.00000   0.00000   0.00000   0.00000   0.00000
                  --------  --------  --------  --------  --------  --------
 0 C  s               0.1       1.7       0.1      17.8       0.7       0.2
 0 C  pz              8.5       5.1       1.8       0.4       1.6       0.1
 0 C  px              1.5       0.2       0.2       6.8       0.2       0.2
 0 C  py             12.3       0.9       0.2       0.9       0.0       1.8
 0 C  dz2             0.1       1.0       0.3       0.2       0.1       0.0
 0 C  dxz             0.1       0.2       0.0       1.6       0.2       0.1
 0 C  dyz             0.2       0.6       0.0       0.5       0.4       0.0
 0 C  dx2y2           0.0       0.1       0.0       0.1       1.0       0.0
 0 C  dxy             0.2       0.3       0.0       0.3       0.2       0.8
 1 C  s               1.5       0.0      22.6       2.8       0.0       1.5
 1 C  pz              2.8      22.5       0.6       0.2       1.0       2.5
 1 C  px              4.1       5.2       0.1       0.4       0.3       1.6
 1 C  py              0.6       0.2       1.1       0.3       0.0       0.9
 1 C  dz2             0.2       1.3       0.1       0.1       0.5       0.5
 1 C  dxz             0.0       0.1       0.4       0.2       0.8       0.3
 1 C  dyz             0.0       0.4       0.3       0.1       0.3       0.0
 1 C  dx2y2           0.0       0.1       0.3       0.3       0.4       0.0
 1 C  dxy             0.3       0.0       0.6       0.0       0.1       0.3
 2 C  s               0.8       0.0      16.1       2.4       0.1       0.5
 2 C  pz             28.0       2.0       0.7       0.1       0.0       0.1
 2 C  px              0.3       0.4       0.0       6.6       0.0       0.0
 2 C  py              0.4       0.5       2.0       3.2       0.0       0.2
 2 C  dz2             0.2       0.6       0.0       0.1       0.2       0.0
 2 C  dxz             0.2       1.5       0.3       0.2       0.9       0.2
 2 C  dyz             0.1       0.2       0.0       0.0       0.2       0.3
 2 C  dx2y2           0.0       0.6       0.4       0.1       0.5       0.2
 2 C  dxy             0.0       0.6       1.0       0.1       0.0       0.2
 3 O  s               0.0       0.0       1.6      10.2       0.8       8.0
 3 O  pz              0.2       2.1      11.1       4.2       1.2       1.5
 3 O  px              1.6       2.0       6.5       1.1       1.3       0.7
 3 O  py              0.1       1.8       0.6       8.5       7.1      20.4
 3 O  dz2             0.0       0.1       0.0       0.0       0.0       0.1
 3 O  dxz             0.0       0.1       0.2       0.0       0.0       0.0
 3 O  dyz             0.0       0.1       0.1       0.1       0.0       0.0
 3 O  dx2y2           0.0       0.0       0.1       0.0       0.0       0.2
 4 O  s               0.1       0.1       4.7       4.5       0.4       9.8
 4 O  pz              0.1       2.8       5.6       0.1      14.6       3.2
 4 O  px              0.4       0.1       6.4       2.9       1.4       0.8
 4 O  py              1.2       2.0       0.0       4.9       0.0      27.3
 4 O  dz2             0.1       0.0       0.1       0.0       0.0       0.1
 4 O  dxz             0.0       0.1       0.1       0.3       0.1       0.0
 4 O  dyz             0.0       0.3       0.0       0.0       0.1       0.3
[...]
                  --------  --------  --------  --------  --------  --------
 0 C  s               0.0       0.1       0.2       0.0       0.0       0.2
 0 C  px              0.1       0.1       0.2       0.1       0.0       0.0
 0 C  py              0.3       0.3       0.0       0.0       0.1       0.0
 0 C  dz2             0.1       0.4       0.1       0.8       0.0       1.3
 0 C  dxz             0.4       0.3       0.5       0.1       0.0       1.2
 0 C  dyz             0.2       1.4       0.2       0.2       0.1       0.8
 0 C  dx2y2           0.0       0.3       1.6       1.1       0.5       3.2
 0 C  dxy             0.1       1.9       2.2       2.3       1.8       0.0
 1 C  s               0.1       0.1       0.1       0.1       0.0       0.0
 1 C  pz              0.1       0.7       0.0       0.2       0.0       0.1
 1 C  px              0.3       0.3       0.0       0.5       0.2       0.0
 1 C  py              0.1       0.0       0.0       0.3       0.0       0.1
 1 C  dz2             0.2       2.3       0.6       0.1       0.1       0.0
 1 C  dxz             0.2       1.5       0.0       2.2       0.4       0.2
 1 C  dyz             1.4       5.2       0.3       2.5       0.3       2.7
 1 C  dx2y2           0.8       0.0       0.1       0.4       0.1       1.7
 1 C  dxy             6.6       0.0       4.0       0.0       0.0       0.6
 2 C  s               0.2       0.1       0.0       0.0       0.2       0.1
 2 C  px              0.0       0.0       0.5       0.0       0.0       0.0
 2 C  py              0.1       0.0       0.1       0.3       0.1       0.0
 2 C  dz2             0.4       0.3       0.2       0.1       0.1       0.0
 2 C  dxz             0.6       0.5       1.0       0.0       0.0       0.1
 2 C  dyz             0.9       0.3       0.3       0.1       0.6       0.4
 2 C  dx2y2           1.8       0.1       0.6       1.8       0.1       0.0
 2 C  dxy             2.4       0.0       3.4       4.4       0.6       0.8
 3 O  s               0.1       0.0       0.2       0.9       0.8       0.3
 3 O  pz              0.0       0.0       0.0       0.4       0.3       0.1
 3 O  px              0.1       0.0       0.4       0.1       0.1       0.0
 3 O  dz2             1.3       0.5       0.4       9.3      17.8       7.7
 3 O  dxz             0.0       0.0       1.2       8.0       5.5       1.2
 3 O  dyz            10.0       0.7       0.8       0.0       3.4       1.5
 3 O  dx2y2           5.5       0.2       2.6       0.0       3.0       0.6
 3 O  dxy             8.9       0.0      26.4      21.7       0.2       0.0
 4 O  s               0.2       0.1       0.5       0.2       1.0       0.1
 4 O  pz              0.1       0.7       0.0       0.1       0.0       0.1
 4 O  px              1.0       0.1       1.4       0.0       0.8       0.0
 4 O  dz2             6.9       4.5      16.2       8.7      12.1       2.2
 4 O  dxz             1.9       0.2       1.6       0.6       0.4       0.2
 4 O  dyz            12.1      48.3       0.0       3.8       1.6       5.7
 4 O  dx2y2           0.3       0.8       7.8       0.1       8.2       1.6
 4 O  dxy            24.0       2.2       2.9       3.9       0.5       1.2
 5 O  s               0.0       0.0       0.3       0.3       1.0       1.1
 5 O  pz              0.0       0.0       0.2       0.3       0.4       0.3
 5 O  px              0.1       0.0       0.1       0.1       0.1       0.0
 5 O  py              0.2       0.4       0.0       0.0       0.0       0.4
 5 O  dz2             0.6       2.9       1.0       0.6       8.8      37.5
 5 O  dxz             0.2       1.3       0.2       0.1       0.8       9.8
 5 O  dyz             0.1       0.1       9.3       9.8      13.6       4.2
 5 O  dx2y2           1.9       3.6       5.8       7.1       5.3       1.8
 5 O  dxy             6.4      16.5       1.4       3.2       2.2       3.9
11 H  s               0.1       0.1       0.1       1.8       2.3       0.9
12 H  s               0.2       0.0       2.0       0.4       2.3       0.0
13 H  s               0.1       0.3       0.7       0.6       2.0       3.8

                     96        97        98        99   
                   2.94446   3.26478   3.27640   3.30423
                   0.00000   0.00000   0.00000   0.00000
                  --------  --------  --------  --------
 0 C  s               0.0       1.2       1.2       0.4
 0 C  pz              0.0       0.3       0.2       0.1
 0 C  px              0.0       1.5       1.6       0.1
 0 C  py              0.0       0.1       0.0       0.1
 0 C  dz2             0.0       0.1       0.5       0.0
 0 C  dxz             0.7       1.9       2.2       0.3
 0 C  dyz             0.0       0.2       0.0       0.3
 0 C  dx2y2           1.3       2.0       2.6       0.1
 0 C  dxy             0.2       0.8       1.2       0.0
 1 C  s               0.1       0.0       0.2       1.6
 1 C  px              0.1       0.1       0.0       0.1
 1 C  py              0.1       0.0       0.4       3.4
 1 C  dz2             0.3       0.1       0.1       1.7
 1 C  dxz             0.1       0.2       0.0       0.1
 1 C  dyz             0.0       0.0       0.1       1.3
 1 C  dx2y2           0.4       0.0       1.7       8.2
 1 C  dxy             7.8       0.2       0.9       0.2
 2 C  s               0.0       1.7       1.0       0.1
 2 C  px              0.2       0.1       0.1       0.1
 2 C  py              0.0       1.7       1.2       0.6
 2 C  dz2             0.1       1.3       0.7       0.0
 2 C  dxz             0.3       0.1       0.0       0.0
 2 C  dyz             1.3       0.8       0.2       0.7
 2 C  dx2y2           0.4       2.5       2.8       1.0
 2 C  dxy             0.6       1.2       1.5       0.2
 3 O  s               0.3       1.9       1.5       0.6
 3 O  pz              0.3       0.6       0.4       0.0
 3 O  px              0.1       0.1       0.1       0.1
 3 O  py              0.0       1.6       1.2       0.3
 3 O  dz2            17.3       8.9       6.0       1.7
 3 O  dxz             3.6       0.1       0.1       0.0
 3 O  dyz             2.9       4.9       4.7       0.1
 3 O  dx2y2           0.5      19.0      13.6       1.7
 3 O  dxy             1.0       4.4       2.6       3.7
 4 O  s               1.3       0.0       0.3       3.8
 4 O  px              0.1       0.0       0.1       0.6
 4 O  py              0.0       0.0       0.5       3.4
 4 O  dz2            13.3       0.2       0.4       9.7
 4 O  dxz             0.0       0.0       0.0       0.1
 4 O  dyz             0.7       0.1       1.9       3.7
 4 O  dx2y2           6.3       0.2       7.0      43.7
 4 O  dxy            30.8       0.8       0.0       1.0
 5 O  s               0.0       2.2       1.8       0.4
 5 O  pz              0.0       0.8       0.9       0.1
 5 O  px              0.0       1.4       1.3       0.2
 5 O  dz2             0.7       3.7       2.9       0.7
 5 O  dxz             0.2      11.0      12.9       0.7
 5 O  dyz             0.3       1.5       1.7       0.1
 5 O  dx2y2           0.3      13.4      11.4       1.7
 5 O  dxy             0.6       4.0       4.8       0.1
11 H  s               2.0       0.4       0.2       0.1
12 H  s               2.8       0.0       0.2       0.7
13 H  s               0.0       0.3       0.3       0.0


                      *****************************
                      * MAYER POPULATION ANALYSIS *
                      *****************************

  NA   - Mulliken gross atomic population
  ZA   - Total nuclear charge
  QA   - Mulliken gross atomic charge
  VA   - Mayer's total valence
  BVA  - Mayer's bonded valence
  FA   - Mayer's free valence

  ATOM       NA         ZA         QA         VA         BVA        FA
  0 C      5.9981     6.0000     0.0019     3.9572     3.9572    -0.0000
  1 C      6.0132     6.0000    -0.0132     4.1032     4.1032    -0.0000
  2 C      5.9676     6.0000     0.0324     3.9344     3.9344    -0.0000
  3 O      8.4322     8.0000    -0.4322     2.0083     2.0083    -0.0000
  4 O      8.4295     8.0000    -0.4295     1.9971     1.9971    -0.0000
  5 O      8.4333     8.0000    -0.4333     2.0124     2.0124     0.0000
  6 H      0.9162     1.0000     0.0838     0.9822     0.9822    -0.0000
  7 H      0.9107     1.0000     0.0893     0.9691     0.9691     0.0000
  8 H      0.9712     1.0000     0.0288     0.9670     0.9670    -0.0000
  9 H      0.9100     1.0000     0.0900     0.9549     0.9549    -0.0000
 10 H      0.9133     1.0000     0.0867     0.9672     0.9672    -0.0000
 11 H      0.7028     1.0000     0.2972     0.8832     0.8832    -0.0000
 12 H      0.7004     1.0000     0.2996     0.9059     0.9059    -0.0000
 13 H      0.7014     1.0000     0.2986     0.8822     0.8822    -0.0000

  Mayer bond orders larger than 0.100000
B(  0-C ,  1-C ) :   1.0475 B(  0-C ,  5-O ) :   1.0547 B(  0-C ,  6-H ) :   0.9127 
B(  0-C ,  7-H ) :   0.9131 B(  1-C ,  2-C ) :   1.0185 B(  1-C ,  4-O ) :   1.0698 
B(  1-C ,  8-H ) :   0.8898 B(  2-C ,  3-O ) :   1.0612 B(  2-C ,  9-H ) :   0.9231 
B(  2-C , 10-H ) :   0.9174 B(  3-O , 11-H ) :   0.8522 B(  4-O , 12-H ) :   0.8345 
B(  5-O , 13-H ) :   0.8528 

-------
TIMINGS
-------

Total SCF time: 0 days 0 hours 0 min 4 sec 

Total time                  ....       4.517 sec
Sum of individual times     ....       4.138 sec  ( 91.6%)

SCF preparation             ....       0.156 sec  (  3.4%)
Fock matrix formation       ....       3.407 sec  ( 75.4%)
  Startup                   ....       0.049 sec  (  1.4% of F)
  Split-RI-J                ....       0.990 sec  ( 29.0% of F)
  XC integration            ....       1.937 sec  ( 56.8% of F)
    Basis function eval.    ....       0.683 sec  ( 35.3% of XC)
    Density eval.           ....       0.218 sec  ( 11.2% of XC)
    XC-Functional eval.     ....       0.214 sec  ( 11.1% of XC)
    XC-Potential eval.      ....       0.381 sec  ( 19.6% of XC)
Diagonalization             ....       0.000 sec  (  0.0%)
Density matrix formation    ....       0.134 sec  (  3.0%)
Total Energy calculation    ....       0.025 sec  (  0.6%)
Population analysis         ....       0.054 sec  (  1.2%)
Orbital Transformation      ....       0.049 sec  (  1.1%)
Orbital Orthonormalization  ....       0.000 sec  (  0.0%)
DIIS solution               ....       0.220 sec  (  4.9%)
  MO trafo                  ....       0.000 sec  (  0.0 % of DIIS)
  Orb grad                  ....       0.000 sec  (  0.0 % of DIIS)
  Energy W gradient         ....       0.000 sec  (  0.0 % of DIIS)
  DIIS error                ....       0.001 sec  (  0.6 % of DIIS)
  DIIS work                 ....       0.175 sec  ( 79.5 % of DIIS)
  Form Q                    ....       0.000 sec  (  0.0 % of DIIS)
  Form QpQm                 ....       0.000 sec  (  0.0 % of DIIS)
  Exp/Cayley                ....       0.000 sec  (  0.0 % of DIIS)
  Orb update                ....       0.000 sec  (  0.0 % of DIIS)
  Wake-sleep                ....       0.016 sec  (  7.1 % of DIIS)
SOSCF solution              ....       0.093 sec  (  2.1%)
  MO trafo                  ....       0.060 sec  ( 64.5 % of SOSCF)
  Orb grad                  ....       0.001 sec  (  1.2 % of SOSCF)
  Rot update                ....       0.016 sec  ( 16.9 % of SOSCF)
  Step                      ....       0.016 sec  ( 17.3 % of SOSCF)
Finished LeanSCF after   4.6 sec

Maximum memory used throughout the entire LEANSCF-calculation: 9.4 MB


-------------------------------------------------------------------------------
                          DFT DISPERSION CORRECTION                            
                                                                               
                                DFTD4 V3.4.0                                   
-------------------------------------------------------------------------------
The PBE functional is recognized
Active option DFTDOPT                   ...         5   

-------------------------   ----------------
Dispersion correction           -0.009016077
-------------------------   ----------------

------------------   -----------------
gCP correction             0.082383163
------------------   -----------------

-------------------------   --------------------
FINAL SINGLE POINT ENERGY      -344.009072816808
-------------------------   --------------------


------------------------------------------------------------------------------
                              ORCA PROPERTY CALCULATIONS
------------------------------------------------------------------------------

GBWName                                 ... sp.gbw
Number of atoms                         ...     14
Number of basis functions               ...    100
Max core memory                         ...   1024 MB

Electric properties:
Dipole moment                           ... YES
Quadrupole moment                       ...  NO
Static polarizability (Dipole/Dipole)   ...  NO
Static polarizability (Dipole/Quad.)    ...  NO
Static polarizability (Quad./Quad.)     ...  NO
Static polarizability (Velocity)        ...  NO

Atomic electric properties:
Dipole moment                           ...  NO
Quadrupole moment                       ...  NO
Static polarizability                   ...  NO

Choice of electric origin               ... Center of mass
Position of electric origin             ...     0.000008    -0.000004    -0.000004

General magnetic properties:
Magnetizability                         ...  NO

EPR properties:
g-Tensor (aka g-matrix)                 ...  NO
Zero-Field splitting spin-orbit         ...  NO
Zero-field splitting spin-spin          ...  NO
Hyperfine couplings                     ...  NO (   0 nuclei)
Quadrupole couplings                    ...  NO (   0 nuclei)
Contact density                         ...  NO (   0 nuclei)

NMR properties:
Chemical shifts                         ...  NO (   0 nuclei)
Spin-rotation constants                 ...  NO (   0 nuclei)
Spin-spin couplings                     ...  NO (   0 nuclei,    0 pairs)

Choice of magnetic origin               ... GIAO
Position of magnetic origin             ...     0.000000     0.000000     0.000000

Properties with geometric perturbations:
SCF Hessian                             ...  NO
IR spectrum                             ...  NO
VCD spectrum                            ...  NO
X-ray spectroscopy properties:
SCF XES/XAS/RIXS spectra                ...  NO


-------------
DIPOLE MOMENT
-------------

Method             : SCF
Type of density    : Electron Density
Multiplicity       :   1
Irrep              :   0
Energy             :  -344.0824399031117764 Eh
Relativity type    : 
Basis              : AO
                                X                 Y                 Z
Electronic contribution:     -0.695357515       0.627465831       0.444348693
Nuclear contribution   :      0.597836478      -0.903107919       0.442431881
                        -----------------------------------------
Total Dipole Moment    :     -0.097521038      -0.275642089       0.886780574
                        -----------------------------------------
Magnitude (a.u.)       :      0.933739096
Magnitude (Debye)      :      2.373376168



--------------------
Rotational spectrum 
--------------------
 
Rotational constants in cm-1:             0.178117             0.077943             0.058744 
Rotational constants in MHz :          5339.825048          2336.660454          1761.089867 

Dipole components along the rotational axes: 
x,y,z [a.u.] :     0.065446    -0.297531     0.882644 
x,y,z [Debye]:     0.166352    -0.756265     2.243503 

 

Dipole moment calculation done in   0.0 sec 

Maximum memory used throughout the entire PROP-calculation: 6.0 MB

--------------------------------
SUGGESTED CITATIONS FOR THIS RUN
--------------------------------

Below you find a list of papers that are relevant to this ORCA run
We neither can nor want to force you to cite these papers, but we appreciate if you do
You receive ORCA, which is the product of decades of hard work by many enthusiastic individuals, for free
The only thing we kindly ask in return is that you cite our papers,
We deeply appreciate it, if you show your appreciation for ORCA by not just citing the generic ORCA reference.

Please note that relegating all ORCA citations to the supporting information does *not* help us.
SI sections are not indexed - citations you put there will not count into any citation statistics
But we need these citations in order to attract the funding resources that allow us to do what we are doing

Therefore, if you are a happy ORCA user, please consider citing a few of the papers listed below in the main body of your paper

In addition to the list printed below, the program has created the file sp.bibtex that contains the list in bibtex format
You can import this file easily into all common literature databanks and citation aid programs


List of essential papers. We consider these as the minimum necessary citations

  1. Neese,F.
     Software update: the ORCA program system, version 5.0
     WIRES Comput. Molec. Sci., 2022 12(1)e1606
     doi.org/10.1002/wcms.1606

List of papers to cite with high priority. The work reported in these papers was absolutely
necessary for this run to complete.
Our perspective: the developers of density functionals and basis sets usually get cited in chemistry papers
Good! But without the algorithms to do something with them, the functionals or basis sets would not do anything.
Hence, in our opinion, the algorithm design and method developments papers are equally worthy of getting cited

  1. Neese,F.
     An improvement of the resolution of the identity approximation for the formation of the Coulomb matrix
     J. Comp. Chem., 2003 24(14)1740-1747
     doi.org/10.1002/jcc.10318
  2. Neese,F.
     The SHARK Integral Generation and Digestion System
     J. Comp. Chem., 2022  1-16
     doi.org/10.1002/jcc.26942
  3. Caldeweyher,E.; Bannwarth,C.; Grimme,S.
     Extension of the D3 dispersion coefficient model
     J. Chem. Phys., 2017 147 034112-XXXX
     doi.org/10.1063/1.4993215
  4. Caldeweyher,E.; Ehlert,S.; Hansen,A.; Neugebauer,H.; Spicher,S.; Bannwarth,C.; Grimme,S.
     A generally applicable atomic-charge dependent London dispersion correction
     J. Chem. Phys., 2019 150 154122-XXXX
     doi.org/10.1063/1.5090222
  5. Caldeweyher,E.; Mewes,J.; Ehlert,S.; Grimme,S.
     Extension and evaluation of the D4 London-dispersion model for periodic systems
     Phys. Chem. Chem. Phys., 2020 22(16)8499-8512
     doi.org/10.1039/D0CP00502A

List of suggested additional citations. These are papers that are important in the 'surrounding' of 
of this run, or papers that preceded the highly important papers. If you like your results we are grateful for a citation.

  1. Neese,F.
     The ORCA program system
     WIRES Comput. Molec. Sci., 2012 2(1)73-78
     doi.org/10.1002/wcms.81
  2. Neese,F.
     Software update: the ORCA program system, version 4.0
     WIRES Comput. Molec. Sci., 2018 8(1)1-6
     doi.org/10.1002/wcms.1327
  3. Neese,F.; Wennmohs,F.; Becker,U.; Riplinger,C.
     The ORCA quantum chemistry program package
     J. Chem. Phys., 2020 152 Art. No. L224108
     doi.org/10.1063/5.0004608

List of optional additional citations

  1. Neese,F.
     Approximate second-order SCF convergence for spin unrestricted wavefunctions
     Chem. Phys. Lett., 2000 325(1-3)93-98
     doi.org/10.1016/s0009-2614(00)00662-x

Timings for individual modules:

Sum of individual times          ...        5.879 sec (=   0.098 min)
Startup calculation              ...        0.577 sec (=   0.010 min)   9.8 %
SCF iterations                   ...        5.185 sec (=   0.086 min)  88.2 %
Property calculations            ...        0.118 sec (=   0.002 min)   2.0 %
                             ****ORCA TERMINATED NORMALLY****
TOTAL RUN TIME: 0 days 0 hours 0 minutes 6 seconds 638 msec
