
                                 *****************
                                 * O   R   C   A *
                                 *****************

                                            #,                                       
                                            ###                                      
                                            ####                                     
                                            #####                                    
                                            ######                                   
                                           ########,                                 
                                     ,,################,,,,,                         
                               ,,#################################,,                 
                          ,,##########################################,,             
                       ,#########################################, ''#####,          
                    ,#############################################,,   '####,        
                  ,##################################################,,,,####,       
                ,###########''''           ''''###############################       
              ,#####''   ,,,,##########,,,,          '''####'''          '####       
            ,##' ,,,,###########################,,,                        '##       
           ' ,,###''''                  '''############,,,                           
         ,,##''                                '''############,,,,        ,,,,,,###''
      ,#''                                            '''#######################'''  
     '                                                          ''''####''''         
             ,#######,   #######,   ,#######,      ##                                
            ,#'     '#,  ##    ##  ,#'     '#,    #''#        ,####,   ,####,        
            ##       ##  ##   ,#'  ##            #'  '#       #'       #'  '#        
            ##       ##  #######   ##           ,######,      #####,   #    #        
            '#,     ,#'  ##    ##  '#,     ,#' ,#      #,     #,   #   #,  ,#        
             '#######'   ##     ##  '#######'  #'      '#     '####' # '####'        



                #########################################################
                #                        -***-                          #
                #          Department of theory and spectroscopy        #
                #                                                       #
                #                      Frank Neese                      #
                #                                                       #
                #     Directorship, Architecture, Infrastructure        #
                #                    SHARK, DRIVERS                     #
                #        Core code/Algorithms in most modules           #
                #                                                       #
                #        Max Planck Institute fuer Kohlenforschung      #
                #                Kaiser Wilhelm Platz 1                 #
                #                 D-45470 Muelheim/Ruhr                 #
                #                      Germany                          #
                #                                                       #
                #                  All rights reserved                  #
                #                        -***-                          #
                #########################################################


                         Program Version 6.0.0  -   RELEASE  -


 With contributions from (in alphabetic order):
   Daniel Aravena         : Magnetic Suceptibility
   Michael Atanasov       : Ab Initio Ligand Field Theory (pilot matlab implementation)
   Alexander A. Auer      : GIAO ZORA, VPT2 properties, NMR spectrum
   Ute Becker             : All parallelization in ORCA, NUMFREQ, NUMCALC
   Giovanni Bistoni       : ED, misc. LED, open-shell LED, HFLD
   Martin Brehm           : Molecular dynamics
   Dmytro Bykov           : pre 5.0 version of the SCF Hessian
   Marcos Casanova-Páez   : Triplet and SCS-CIS(D). UHF-(DLPNO)-IP/EA/STEOM-CCSD. UHF-CVS-IP/STEOM-CCSD
   Vijay G. Chilkuri      : MRCI spin determinant printing, contributions to CSF-ICE
   Pauline Colinet        : FMM embedding
   Dipayan Datta          : RHF DLPNO-CCSD density
   Achintya Kumar Dutta   : EOM-CC, STEOM-CC
   Nicolas Foglia         : Exact transition moments, OPA infrastructure, MCD improvements
   Dmitry Ganyushin       : Spin-Orbit,Spin-Spin,Magnetic field MRCI
   Miquel Garcia          : C-PCM and meta-GGA Hessian, CCSD/C-PCM, Gaussian charge scheme
   Tiago L. C. Gouveia    : GS-ROHF, GS-ROCIS
   Yang Guo               : DLPNO-NEVPT2, F12-NEVPT2, CIM, IAO-localization
   Andreas Hansen         : Spin unrestricted coupled pair/coupled cluster methods
   Ingolf Harden          : AUTO-CI MPn and infrastructure 
   Benjamin Helmich-Paris : MC-RPA, TRAH-(SCF,CASSCF), AVAS, COSX integrals, SCF dyn. polar.
   Lee Huntington         : MR-EOM, pCC
   Robert Izsak           : Overlap fitted RIJCOSX, COSX-SCS-MP3, EOM
   Riya Kayal             : Wick's Theorem for AUTO-CI, AUTO-CI UHF-CCSDT
   Emily Kempfer          : AUTO-CI, RHF CISDT and CCSDT
   Christian Kollmar      : KDIIS, OOCD, Brueckner-CCSD(T), CCSD density, CASPT2, CASPT2-K, improved NEVPT2
   Axel Koslowski         : Symmetry handling
   Simone Kossmann        : Meta GGA functionals, TD-DFT gradient, OOMP2, (MP2 Hessian; deprecated post 5.0)
   Lucas Lang             : DCDCAS
   Marvin Lechner         : AUTO-CI (C++ implementation), FIC-MRCC
   Spencer Leger          : CASSCF response
   Dagmar Lenk            : GEPOL surface, SMD, ORCA-2-JSON
   Dimitrios Liakos       : Extrapolation schemes; Compound Job, initial MDCI parallelization
   Dimitrios Manganas     : Further ROCIS development; embedding schemes. LFT, Crystal Embedding
   Dimitrios Pantazis     : SARC Basis sets
   Anastasios Papadopoulos: AUTO-CI, single reference methods and gradients
   Taras Petrenko         : pre 6.0 DFT Hessian and TD-DFT gradient, (ASA, deprecated), ECA, 1-Electron XAS/XES, NRVS
   Peter Pinski           : DLPNO-MP2, DLPNO-MP2 Gradient
   Christoph Reimann      : Effective Core Potentials
   Marius Retegan         : Local ZFS, SOC
   Christoph Riplinger    : Optimizer, TS searches, QM/MM, DLPNO-CCSD(T), (RO)-DLPNO pert. Triples
   Michael Roemelt        : Original ROCIS implementation
   Masaaki Saitow         : Open-shell DLPNO-CCSD energy and density
   Barbara Sandhoefer     : DKH picture change effects
   Kantharuban Sivalingam : CASSCF convergence/infrastructure, NEVPT2 and variants, FIC-MRCI
   Bernardo de Souza      : ESD, SOC TD-DFT
   Georgi Stoychev        : AutoAux, RI-MP2 NMR, DLPNO-MP2 response, X2C
   Van Anh Tran           : RI-MP2 g-tensors
   Willem Van den Heuvel  : Paramagnetic NMR
   Zikuan Wang            : NOTCH, Electric field optimization 
   Frank Wennmohs         : Technical directorship and infrastructure
   Hang Xu                : AUTO-CI-Response properties 


 We gratefully acknowledge several colleagues who have allowed us to
 interface, adapt or use parts of their codes:
   Stefan Grimme, W. Hujo, H. Kruse, P. Pracht,  : VdW corrections, initial TS optimization,
                  C. Bannwarth, S. Ehlert,         DFT functionals, gCP, sTDA/sTD-DF
                  L. Wittmann, M. Mueller
   Ed Valeev, F. Pavosevic, A. Kumar             : LibInt (2-el integral package), F12 methods
   Garnet Chan, S. Sharma, J. Yang, R. Olivares  : DMRG
   Ulf Ekstrom                                   : XCFun DFT Library
   Mihaly Kallay                                 : mrcc  (arbitrary order and MRCC methods)
   Frank Weinhold                                : gennbo (NPA and NBO analysis)
   Simon Mueller                                 : openCOSMO-RS
   Christopher J. Cramer and Donald G. Truhlar   : smd solvation model
   Lars Goerigk                                  : TD-DFT with DH, B97 family of functionals
   V. Asgeirsson, H. Jonsson                     : NEB implementation
   FAccTs GmbH                                   : IRC, NEB, NEB-TS, DLPNO-Multilevel, CI-OPT
                                                   MM, QMMM, 2- and 3-layer-ONIOM, Crystal-QMMM,
                                                   LR-CPCM, SF, NACMEs, symmetry and pop. for TD-DFT,
                                                   nearIR, NL-DFT gradient (VV10), updates on ESD,
                                                   ML-optimized integration grids, MBIS, APM,
                                                   GOAT, DOCKER, SOLVATOR, interface openCOSMO-RS
   S Lehtola, MJT Oliveira, MAL Marques          : LibXC Library
   Liviu Ungur et al                             : ANISO software


 Your calculation uses the libint2 library for the computation of 2-el integrals
 For citations please refer to: http://libint.valeyev.net

 Your ORCA version has been built with support for libXC version: 6.2.2
 For citations please refer to: https://libxc.gitlab.io

 This ORCA versions uses:
   CBLAS   interface :  Fast vector & matrix operations
   LAPACKE interface :  Fast linear algebra routines
   SCALAPACK package :  Parallel linear algebra routines
   Shared memory     :  Shared parallel matrices
   BLAS/LAPACK       :  OpenBLAS 0.3.27  USE64BITINT DYNAMIC_ARCH NO_AFFINITY SkylakeX SINGLE_THREADED
        Core in use  :  SkylakeX
   Copyright (c) 2011-2014, The OpenBLAS Project


Your calculation utilizes the geometrical counterpoise correction gCP
Please cite in your paper:
H.Kruse, S. Grimme J.Chem.Phys., 136, (2012), 154101 
   

Your calculation utilizes the atom-pairwise dispersion correction
based on EEQ partial charges (D4)


================================================================================

----- Orbital basis set information -----
Your calculation utilizes the basis: def2-SV(P)
   F. Weigend and R. Ahlrichs, Phys. Chem. Chem. Phys. 7, 3297 (2005).

----- AuxJ basis set information -----
Your calculation utilizes the auxiliary basis: def2/J
   F. Weigend, Phys. Chem. Chem. Phys. 8, 1057 (2006).

================================================================================
                                        WARNINGS
                       Please study these warnings very carefully!
================================================================================


================================================================================
                                       INPUT FILE
================================================================================
NAME = sp.inp
|  1> ! pbe def2-sv(p) def2/J RI DEFGRID1 loosescf d4 GCP(DFT/SV(P)) printgap
|  2> %output
|  3>     printlevel normal
|  4> end
|  5> * xyz 0 1
|  6> C 3.3890447907 -0.7374238223 0.1022292521
|  7> C 2.031448645 -0.2183093498 0.4713663581
|  8> C 1.4768029321 -0.4920826549 1.6418158623
|  9> C 1.3699367709 0.623179566 -0.5969402401
| 10> H 2.1649467445 1.1580064968 -1.1271640235
| 11> C 0.6363959978 -0.2634776389 -1.6160021919
| 12> C -0.505045482 -1.0291572779 -0.9547132046
| 13> C -1.3935391238 -0.0965663382 -0.1843178824
| 14> C -0.9637558982 1.1080008341 0.2298930701
| 15> C 0.3860107292 1.6579767069 -0.0404518087
| 16> C -2.7384551381 -0.5332660299 0.1377991781
| 17> O -3.5651010354 0.0998624721 0.7731241049
| 18> H 3.768157143 -1.4142945645 0.8625547558
| 19> H 3.3516170095 -1.2642523601 -0.8493760015
| 20> H 4.088034783 0.0910865526 -0.0056061056
| 21> H 0.5055540713 -0.1271865601 1.928546045
| 22> H 1.9800272043 -1.1059028128 2.370569452
| 23> H 0.2314826022 0.3749692162 -2.4029889528
| 24> H 1.3319323315 -0.9665055716 -2.0747165036
| 25> H -1.0902131997 -1.5595321524 -1.7082674149
| 26> H -0.0971814069 -1.7749568697 -0.2659920508
| 27> H -1.6528818858 1.7361020352 0.7806046012
| 28> H 0.2663825311 2.4712521466 -0.7636489215
| 29> H 0.7849528786 2.109874559 0.8703750434
| 30> H -2.9998417259 -1.5387952372 -0.2428887152
| 31> *
| 32> 
| 33>                          ****END OF INPUT****
================================================================================

                       ****************************
                       * Single Point Calculation *
                       ****************************

---------------------------------
CARTESIAN COORDINATES (ANGSTROEM)
---------------------------------
  C      3.389045   -0.737424    0.102229
  C      2.031449   -0.218309    0.471366
  C      1.476803   -0.492083    1.641816
  C      1.369937    0.623180   -0.596940
  H      2.164947    1.158006   -1.127164
  C      0.636396   -0.263478   -1.616002
  C     -0.505045   -1.029157   -0.954713
  C     -1.393539   -0.096566   -0.184318
  C     -0.963756    1.108001    0.229893
  C      0.386011    1.657977   -0.040452
  C     -2.738455   -0.533266    0.137799
  O     -3.565101    0.099862    0.773124
  H      3.768157   -1.414295    0.862555
  H      3.351617   -1.264252   -0.849376
  H      4.088035    0.091087   -0.005606
  H      0.505554   -0.127187    1.928546
  H      1.980027   -1.105903    2.370569
  H      0.231483    0.374969   -2.402989
  H      1.331932   -0.966506   -2.074717
  H     -1.090213   -1.559532   -1.708267
  H     -0.097181   -1.774957   -0.265992
  H     -1.652882    1.736102    0.780605
  H      0.266383    2.471252   -0.763649
  H      0.784953    2.109875    0.870375
  H     -2.999842   -1.538795   -0.242889

----------------------------
CARTESIAN COORDINATES (A.U.)
----------------------------
  NO LB      ZA    FRAG     MASS         X           Y           Z
   0 C     6.0000    0    12.011    6.404367   -1.393529    0.193185
   1 C     6.0000    0    12.011    3.838882   -0.412545    0.890753
   2 C     6.0000    0    12.011    2.790753   -0.929901    3.102582
   3 C     6.0000    0    12.011    2.588805    1.177639   -1.128054
   4 H     1.0000    0     1.008    4.091156    2.188315   -2.130031
   5 C     6.0000    0    12.011    1.202614   -0.497901   -3.053802
   6 C     6.0000    0    12.011   -0.954398   -1.944825   -1.804146
   7 C     6.0000    0    12.011   -2.633407   -0.182484   -0.348310
   8 C     6.0000    0    12.011   -1.821235    2.093818    0.434435
   9 C     6.0000    0    12.011    0.729455    3.133122   -0.076443
  10 C     6.0000    0    12.011   -5.174930   -1.007727    0.260403
  11 O     8.0000    0    15.999   -6.737065    0.188713    1.460993
  12 H     1.0000    0     1.008    7.120785   -2.672629    1.629992
  13 H     1.0000    0     1.008    6.333638   -2.389091   -1.605088
  14 H     1.0000    0     1.008    7.725266    0.172129   -0.010594
  15 H     1.0000    0     1.008    0.955359   -0.240348    3.644424
  16 H     1.0000    0     1.008    3.741709   -2.089853    4.479727
  17 H     1.0000    0     1.008    0.437439    0.708589   -4.540991
  18 H     1.0000    0     1.008    2.516987   -1.826431   -3.920646
  19 H     1.0000    0     1.008   -2.060204   -2.947089   -3.228158
  20 H     1.0000    0     1.008   -0.183646   -3.354182   -0.502652
  21 H     1.0000    0     1.008   -3.123494    3.280757    1.475129
  22 H     1.0000    0     1.008    0.503390    4.669990   -1.443087
  23 H     1.0000    0     1.008    1.483346    3.987085    1.644770
  24 H     1.0000    0     1.008   -5.668879   -2.907902   -0.458993

--------------------------------
INTERNAL COORDINATES (ANGSTROEM)
--------------------------------
 C      0   0   0     0.000000000000     0.00000000     0.00000000
 C      1   0   0     1.499603058614     0.00000000     0.00000000
 C      2   1   0     1.323833724947   121.69124950     0.00000000
 C      2   1   3     1.512276609205   114.50266647   180.21200287
 H      4   2   1     1.095088108106   107.23147233   327.16028951
 C      4   2   1     1.537117538254   110.86175105    84.70008467
 C      6   4   2     1.525272790720   111.05478991    63.71415783
 C      7   6   4     1.500884993861   110.70952687    51.51303863
 C      8   7   6     1.344346088908   121.71222087   338.69465954
 C      9   8   7     1.482373017360   124.56502315     1.39537384
 C      8   7   6     1.450263805973   118.41685790   160.01941467
 O     11   8   7     1.219767560718   126.00593090   178.72180249
 H      1   2   3     1.086266564380   111.06105992     5.58980167
 H      1   2   3     1.088348154648   110.58904938   126.49934523
 H      1   2   3     1.089332325336   109.99805605   245.31038655
 H      3   2   1     1.076423572427   122.91803874   179.77648901
 H      3   2   1     1.077539627520   121.33856932   359.54347414
 H      6   4   2     1.091291623057   108.52393968   183.74178887
 H      6   4   2     1.090154982290   110.27229625   301.96608704
 H      7   6   4     1.091587244887   110.22949417   173.21165270
 H      7   6   4     1.094032432142   109.64253885   291.54758288
 H      9   8   7     1.082907630454   118.22614553   179.91976511
 H     10   9   8     1.094870727786   107.25130694   109.21824658
 H     10   9   8     1.092232604259   109.51159836   224.36097728
 H     11   8   7     1.106496817492   114.60079857   358.88184562

---------------------------
INTERNAL COORDINATES (A.U.)
---------------------------
 C      0   0   0     0.000000000000     0.00000000     0.00000000
 C      1   0   0     2.833839090371     0.00000000     0.00000000
 C      2   1   0     2.501683186998   121.69124950     0.00000000
 C      2   1   3     2.857788630132   114.50266647   180.21200287
 H      4   2   1     2.069416616835   107.23147233   327.16028951
 C      4   2   1     2.904731182947   110.86175105    84.70008467
 C      6   4   2     2.882347853983   111.05478991    63.71415783
 C      7   6   4     2.836261596909   110.70952687    51.51303863
 C      8   7   6     2.540445937243   121.71222087   338.69465954
 C      9   8   7     2.801279031126   124.56502315     1.39537384
 C      8   7   6     2.740601415228   118.41685790   160.01941467
 O     11   8   7     2.305026636799   126.00593090   178.72180249
 H      1   2   3     2.052746315113   111.06105992     5.58980167
 H      1   2   3     2.056679950643   110.58904938   126.49934523
 H      1   2   3     2.058539763713   109.99805605   245.31038655
 H      3   2   1     2.034145755984   122.91803874   179.77648901
 H      3   2   1     2.036254794461   121.33856932   359.54347414
 H      6   4   2     2.062242299821   108.52393968   183.74178887
 H      6   4   2     2.060094360058   110.27229625   301.96608704
 H      7   6   4     2.062800944118   110.22949417   173.21165270
 H      7   6   4     2.067421678376   109.64253885   291.54758288
 H      9   8   7     2.046398849892   118.22614553   179.91976511
 H     10   9   8     2.069005827562   107.25130694   109.21824658
 H     10   9   8     2.064020496590   109.51159836   224.36097728
 H     11   8   7     2.090975953116   114.60079857   358.88184562

---------------------
BASIS SET INFORMATION
---------------------
There are 3 groups of distinct atoms

 Group   1 Type C   : 7s4p1d contracted to 3s2p1d pattern {511/31/1}
 Group   2 Type H   : 4s contracted to 2s pattern {31}
 Group   3 Type O   : 7s4p1d contracted to 3s2p1d pattern {511/31/1}

Atom   0C    basis set group =>   1
Atom   1C    basis set group =>   1
Atom   2C    basis set group =>   1
Atom   3C    basis set group =>   1
Atom   4H    basis set group =>   2
Atom   5C    basis set group =>   1
Atom   6C    basis set group =>   1
Atom   7C    basis set group =>   1
Atom   8C    basis set group =>   1
Atom   9C    basis set group =>   1
Atom  10C    basis set group =>   1
Atom  11O    basis set group =>   3
Atom  12H    basis set group =>   2
Atom  13H    basis set group =>   2
Atom  14H    basis set group =>   2
Atom  15H    basis set group =>   2
Atom  16H    basis set group =>   2
Atom  17H    basis set group =>   2
Atom  18H    basis set group =>   2
Atom  19H    basis set group =>   2
Atom  20H    basis set group =>   2
Atom  21H    basis set group =>   2
Atom  22H    basis set group =>   2
Atom  23H    basis set group =>   2
Atom  24H    basis set group =>   2
---------------------------------
AUXILIARY/J BASIS SET INFORMATION
---------------------------------
There are 3 groups of distinct atoms

 Group   1 Type C   : 12s5p4d2f1g contracted to 6s4p3d1f1g pattern {711111/2111/211/2/1}
 Group   2 Type H   : 5s2p1d contracted to 3s1p1d pattern {311/2/1}
 Group   3 Type O   : 12s5p4d2f1g contracted to 6s4p3d1f1g pattern {711111/2111/211/2/1}

Atom   0C    basis set group =>   1
Atom   1C    basis set group =>   1
Atom   2C    basis set group =>   1
Atom   3C    basis set group =>   1
Atom   4H    basis set group =>   2
Atom   5C    basis set group =>   1
Atom   6C    basis set group =>   1
Atom   7C    basis set group =>   1
Atom   8C    basis set group =>   1
Atom   9C    basis set group =>   1
Atom  10C    basis set group =>   1
Atom  11O    basis set group =>   3
Atom  12H    basis set group =>   2
Atom  13H    basis set group =>   2
Atom  14H    basis set group =>   2
Atom  15H    basis set group =>   2
Atom  16H    basis set group =>   2
Atom  17H    basis set group =>   2
Atom  18H    basis set group =>   2
Atom  19H    basis set group =>   2
Atom  20H    basis set group =>   2
Atom  21H    basis set group =>   2
Atom  22H    basis set group =>   2
Atom  23H    basis set group =>   2
Atom  24H    basis set group =>   2
------------------------------------------------------------------------------
                             ORCA STARTUP CALCULATIONS
                           -- RI-GTO INTEGRALS CHOSEN --
------------------------------------------------------------------------------
------------------------------------------------------------------------------
                   ___                                                        
                  /   \      - P O W E R E D   B Y -                         
                 /     \                                                     
                 |  |  |   _    _      __       _____    __    __             
                 |  |  |  | |  | |    /  \     |  _  \  |  |  /  |          
                  \  \/   | |  | |   /    \    | | | |  |  | /  /          
                 / \  \   | |__| |  /  /\  \   | |_| |  |  |/  /          
                |  |  |   |  __  | /  /__\  \  |    /   |      \           
                |  |  |   | |  | | |   __   |  |    \   |  |\   \          
                \     /   | |  | | |  |  |  |  | |\  \  |  | \   \       
                 \___/    |_|  |_| |__|  |__|  |_| \__\ |__|  \__/        
                                                                              
                      - O R C A' S   B I G   F R I E N D -                    
                                      &                                       
                       - I N T E G R A L  F E E D E R -                       
                                                                              
 v1 FN, 2020, v2 2021, v3 2022-2024                                           
------------------------------------------------------------------------------


----------------------
SHARK INTEGRAL PACKAGE
----------------------

Number of atoms                             ...     25
Number of basis functions                   ...    182
Number of shells                            ...     94
Maximum angular momentum                    ...      2
Integral batch strategy                     ... SHARK/LIBINT Hybrid
RI-J (if used) integral strategy            ... SPLIT-RIJ (Revised 2003 algorithm where possible)
Printlevel                                  ...      1
Contraction scheme used                     ... SEGMENTED contraction
Prescreening option                         ... SCHWARTZ
   Thresh                                   ... 1.000e-09
   Tcut                                     ... 1.000e-10
   Tpresel                                  ... 1.000e-10 
Coulomb Range Separation                    ... NOT USED
Exchange Range Separation                   ... NOT USED
Multipole approximations                    ... NOT USED
Finite Nucleus Model                        ... NOT USED
CABS basis                                  ... NOT available
Auxiliary Coulomb fitting basis             ... AVAILABLE
   # of basis functions in Aux-J            ...    693
   # of shells in Aux-J                     ...    235
   Maximum angular momentum in Aux-J        ...      4
Auxiliary J/K fitting basis                 ... NOT available
Auxiliary Correlation fitting basis         ... NOT available
Auxiliary 'external' fitting basis          ... NOT available

Checking pre-screening integrals            ... done (  0.0 sec) Dimension = 94
Check shell pair data                       ... done (  0.0 sec)
Shell pair information
Shell pair cut-off parameter TPreSel        ...   1.0e-10
Total number of shell pairs                 ...      4465
Shell pairs after pre-screening             ...      4112
Total number of primitive shell pairs       ...     17951
Primitive shell pairs kept                  ...     11297
          la=0 lb=0:   1721 shell pairs
          la=1 lb=0:   1267 shell pairs
          la=1 lb=1:    246 shell pairs
          la=2 lb=0:    594 shell pairs
          la=2 lb=1:    228 shell pairs
          la=2 lb=2:     56 shell pairs

Calculating one electron integrals          ... done (  0.0 sec)
Calculating RI/J V-Matrix + Cholesky decomp.... done (  0.1 sec)
Calculating Nuclear repulsion               ... done (  0.0 sec) ENN=    613.147357749811 Eh

Diagonalization of the overlap matrix:
Smallest eigenvalue                        ... 8.894e-04
Time for diagonalization                   ...    0.004 sec
Threshold for overlap eigenvalues          ... 1.000e-07
Number of eigenvalues below threshold      ... 0
Time for construction of square roots      ...    0.019 sec
Total time needed                          ...    0.052 sec

-------------------
DFT GRID GENERATION
-------------------

General Integration Accuracy     IntAcc      ... 4.159
Radial Grid Type                 RadialGrid  ... OptM3 with GC (2021)
Angular Grid (max. ang.)         AngularGrid ... 3 (Lebedev-194)
Angular grid pruning method      GridPruning ... 4 (adaptive)
Weight generation scheme         WeightScheme... mBecke (2022)
Basis function cutoff            BFCut       ... 1.0000e-10
Integration weight cutoff        WCut        ... 1.0000e-14
Partially contracted basis set               ... off
Rotationally invariant grid construction     ... off
Angular grids for H and He will be reduced by one unit

Total number of grid points                  ...    55014
Total number of batches                      ...      874
Average number of points per batch           ...       62
Average number of grid points per atom       ...     2201
Initializing property integral containers    ... done (  0.0 sec)

SHARK setup successfully completed in   1.3 seconds

Maximum memory used throughout the entire STARTUP-calculation: 28.1 MB
-------------------------------------------------------------------------------
                                 ORCA GUESS
                   Start orbitals & Density for SCF / CASSCF
-------------------------------------------------------------------------------

------------
SCF SETTINGS
------------
Hamiltonian:
 Density Functional     Method          .... DFT(GTOs)
 Exchange Functional    Exchange        .... PBE
   PBE kappa parameter   XKappa         ....  0.804000
   PBE mue parameter    XMuePBE         ....  0.219520
 Correlation Functional Correlation     .... PBE
   PBE beta parameter  CBetaPBE         ....  0.066725
 LDA part of GGA corr.  LDAOpt          .... PW91-LDA
 Gradients option       PostSCFGGA      .... off
   NL short-range parameter             ....  6.400000
 RI-approximation to the Coulomb term is turned on
   Number of AuxJ basis functions       .... 693


General Settings:
 Integral files         IntName         .... sp
 Hartree-Fock type      HFTyp           .... RHF
 Total Charge           Charge          ....    0
 Multiplicity           Mult            ....    1
 Number of Electrons    NEL             ....   82
 Basis Dimension        Dim             ....  182
 Nuclear Repulsion      ENuc            ....    613.1473577498 Eh

Convergence Acceleration:
 AO-DIIS                CNVDIIS         .... on
   Start iteration      DIISMaxIt       ....    12
   Startup error        DIISStart       ....  0.200000
   # of expansion vecs  DIISMaxEq       ....     5
   Bias factor          DIISBfac        ....   1.050
   Max. coefficient     DIISMaxC        ....  10.000
 MO-DIIS                CNVKDIIS        .... off
 Trust-Rad. Augm. Hess. CNVTRAH         .... auto
   Auto Start mean grad. ratio tolernc. ....  1.125000
   Auto Start start iteration           ....    50
   Auto Start num. interpolation iter.  ....    10
   Max. Number of Micro iterations      ....    24
   Max. Number of Macro iterations      .... Maxiter - #DIIS iter
   Number of Davidson start vectors     ....     2
   Converg. threshold    (grad. norm)   ....   1.000e-04
   Grad. Scal. Fac. for Micro threshold ....   0.100
   Minimum threshold for Micro iter.    ....   1.000e-02
   NR start threshold (gradient norm)   ....   1.000e-04
   Initial trust radius                 ....   0.400
   Minimum AH scaling param. (alpha)    ....   1.000
   Maximum AH scaling param. (alpha)    .... 1000.000
   Quad. conv. algorithm                .... NR
   White noise on init. David. guess    .... on
   Maximum white noise                  ....   0.010
   Pseudo random numbers                .... off
   Inactive MOs                         .... canonical
   Orbital update algorithm             .... Taylor
   Preconditioner                       .... Diag
   Full preconditioner red. dimension   ....   250
 SOSCF                  CNVSOSCF        .... on
   Start iteration      SOSCFMaxIt      ....   150
   Startup grad/error   SOSCFStart      ....  0.003300
   Hessian update       SOSCFHessUp     .... L-BFGS
 Level Shifting         CNVShift        .... on
   Level shift para.    LevelShift      ....    0.2500
   Turn off err/grad.   ShiftErr        ....    0.0010
 Zerner damping         CNVZerner       .... off
 Static damping         CNVDamp         .... on
   Fraction old density DampFac         ....    0.7000
   Max. Damping (<1)    DampMax         ....    0.9800
   Min. Damping (>=0)   DampMin         ....    0.0000
   Turn off err/grad.   DampErr         ....    0.1000

SCF Procedure:
 Maximum # iterations   MaxIter         ....   125
 SCF integral mode      SCFMode         .... Direct
   Integral package                     .... SHARK and LIBINT hybrid scheme
 Reset frequency        DirectResetFreq ....    20
 Integral Threshold     Thresh          ....  1.000e-09 Eh
 Primitive CutOff       TCut            ....  1.000e-10 Eh

Convergence Tolerance:
 Convergence Check Mode ConvCheckMode   .... Total+1el-Energy
 Convergence forced     ConvForced      .... 0
 Energy Change          TolE            ....  1.000e-05 Eh
 1-El. energy change                    ....  1.000e-02 Eh
 Orbital Gradient       TolG            ....  1.000e-04
 Orbital Rotation angle TolX            ....  1.000e-04
 DIIS Error             TolErr          ....  5.000e-04

------------------------------
INITIAL GUESS: MODEL POTENTIAL
------------------------------
Loading Hartree-Fock densities                     ... done
Calculating cut-offs                               ... done
Initializing the effective Hamiltonian             ... done
Setting up the integral package (SHARK)            ... done
Starting the Coulomb interaction                   ... done (   0.3 sec)
Making the grid                                    ... done (   0.3 sec)
Mapping shells                                     ... done
Starting the XC term evaluation                    ... done (   0.3 sec)
  promolecular density results
     # of electrons  =     81.996394587
     EX              =    -63.438681430
     EC              =     -2.716150240
     EX+EC           =    -66.154831670
Transforming the Hamiltonian                       ... done (   0.0 sec)
Diagonalizing the Hamiltonian                      ... done (   0.0 sec)
Back transforming the eigenvectors                 ... done (   0.0 sec)
Now organizing SCF variables                       ... done
                      ------------------
                      INITIAL GUESS DONE (   1.0 sec)
                      ------------------
             **** ENERGY FILE WAS UPDATED (sp.en.tmp) ****
Finished Guess after   1.3 sec
Maximum memory used throughout the entire GUESS-calculation: 21.7 MB

-------------------------------------------------------------------------------------------
                                      ORCA LEAN-SCF
                              memory conserving SCF solver
-------------------------------------------------------------------------------------------

----------------------------------------D-I-I-S--------------------------------------------
Iteration    Energy (Eh)           Delta-E    RMSDP     MaxDP     DIISErr   Damp  Time(sec)
-------------------------------------------------------------------------------------------
               ***  Starting incremental Fock matrix formation  ***
    1    -463.4319867600670477     0.00e+00  4.87e-03  1.91e-01  2.17e-01  0.700   1.6
Warning: op=0 Small HOMO/LUMO gap (   0.093) - skipping pre-diagonalization
         Will do a full diagonalization
    2    -463.5657518648386031    -1.34e-01  3.04e-03  8.47e-02  7.36e-02  0.700   1.8
                               ***Turning on AO-DIIS***
    3    -463.6107595146909262    -4.50e-02  1.14e-03  1.47e-02  2.26e-02  0.700   1.5
    4    -463.6377353854870762    -2.70e-02  1.68e-03  2.67e-02  9.37e-03  0.000   1.5
    5    -463.6994134152671450    -6.17e-02  5.55e-04  1.15e-02  6.06e-03  0.000   1.6
                              *** Initializing SOSCF ***
---------------------------------------S-O-S-C-F--------------------------------------
Iteration    Energy (Eh)           Delta-E    RMSDP     MaxDP     MaxGrad    Time(sec)
--------------------------------------------------------------------------------------
    6    -463.7000669071203447    -6.53e-04  2.21e-04  5.03e-03  2.71e-03     1.5
               *** Restarting incremental Fock matrix formation ***
    7    -463.7001311156584507    -6.42e-05  1.33e-04  2.22e-03  2.54e-04     2.1
    8    -463.7001248812414360     6.23e-06  9.84e-05  5.20e-03  6.97e-04     1.4
                 **** Energy Check signals convergence ****

               *****************************************************
               *                     SUCCESS                       *
               *           SCF CONVERGED AFTER   8 CYCLES          *
               *****************************************************

             **** ENERGY FILE WAS UPDATED (sp.en.tmp) ****

----------------
TOTAL SCF ENERGY
----------------

Total Energy       :       -463.70012488124144 Eh          -12617.92188 eV

Components:
Nuclear Repulsion  :        613.14735774981091 Eh           16684.58783 eV
Electronic Energy  :      -1076.84748263105212 Eh          -29302.50971 eV
One Electron Energy:      -1843.03267686704248 Eh          -50151.46879 eV
Two Electron Energy:        766.18519423599025 Eh           20848.95908 eV

Virial components:
Potential Energy   :       -923.35638367747333 Eh          -25125.80457 eV
Kinetic Energy     :        459.65625879623184 Eh           12507.88269 eV
Virial Ratio       :          2.00879758734407

DFT components:
N(Alpha)           :       41.000085564827 electrons
N(Beta)            :       41.000085564827 electrons
N(Total)           :       82.000171129655 electrons
E(X)               :      -64.729676217419 Eh       
E(C)               :       -2.726303720876 Eh       
E(XC)              :      -67.455979938295 Eh       

---------------
SCF CONVERGENCE
---------------

  Last Energy change         ...   -6.2344e-06  Tolerance :   1.0000e-05
  Last MAX-Density change    ...    5.2041e-03  Tolerance :   1.0000e-03
  Last RMS-Density change    ...    9.8440e-05  Tolerance :   1.0000e-04
  Last DIIS Error            ...    2.7053e-03  Tolerance :   5.0000e-04
  Last Orbital Gradient      ...    6.9654e-04  Tolerance :   1.0000e-04
  Last Orbital Rotation      ...    7.6444e-04  Tolerance :   1.0000e-04


----------------
ORBITAL ENERGIES
----------------

  NO   OCC          E(Eh)            E(eV) 
   0   2.0000     -18.734062      -509.7797 
   1   2.0000      -9.959165      -271.0026 
   2   2.0000      -9.909605      -269.6541 
   3   2.0000      -9.908346      -269.6198 
   4   2.0000      -9.905996      -269.5558 
   5   2.0000      -9.902408      -269.4582 
   6   2.0000      -9.900837      -269.4155 
   7   2.0000      -9.899912      -269.3903 
   8   2.0000      -9.897528      -269.3254 
   9   2.0000      -9.887188      -269.0441 
  10   2.0000      -9.875763      -268.7332 
  11   2.0000      -0.925984       -25.1973 
  12   2.0000      -0.783859       -21.3299 
  13   2.0000      -0.728880       -19.8338 
  14   2.0000      -0.685750       -18.6602 
  15   2.0000      -0.677832       -18.4448 
  16   2.0000      -0.619449       -16.8561 
  17   2.0000      -0.586370       -15.9559 
  18   2.0000      -0.568686       -15.4747 
  19   2.0000      -0.527108       -14.3433 
  20   2.0000      -0.483185       -13.1481 
  21   2.0000      -0.453887       -12.3509 
  22   2.0000      -0.446118       -12.1395 
  23   2.0000      -0.426343       -11.6014 
  24   2.0000      -0.412718       -11.2306 
  25   2.0000      -0.395391       -10.7591 
  26   2.0000      -0.384349       -10.4587 
  27   2.0000      -0.378763       -10.3067 
  28   2.0000      -0.370811       -10.0903 
  29   2.0000      -0.367643       -10.0041 
  30   2.0000      -0.354580        -9.6486 
  31   2.0000      -0.351719        -9.5708 
  32   2.0000      -0.341848        -9.3022 
  33   2.0000      -0.329865        -8.9761 
  34   2.0000      -0.322119        -8.7653 
  35   2.0000      -0.297684        -8.1004 
  36   2.0000      -0.289883        -7.8881 
  37   2.0000      -0.280582        -7.6350 
  38   2.0000      -0.230089        -6.2611 
  39   2.0000      -0.222065        -6.0427 
  40   2.0000      -0.196101        -5.3362 
  41   0.0000      -0.089198        -2.4272 
  42   0.0000      -0.020130        -0.5478 
  43   0.0000       0.020709         0.5635 
  44   0.0000       0.030265         0.8235 
  45   0.0000       0.055295         1.5047 
  46   0.0000       0.062804         1.7090 
  47   0.0000       0.071105         1.9349 
  48   0.0000       0.078417         2.1338 
  49   0.0000       0.084056         2.2873 
  50   0.0000       0.102299         2.7837 
  51   0.0000       0.110902         3.0178 
*Only the first 10 virtual orbitals were printed.

                    ********************************
                    * MULLIKEN POPULATION ANALYSIS *
                    ********************************

-----------------------
MULLIKEN ATOMIC CHARGES
-----------------------
   0 C :   -0.213034
   1 C :   -0.074366
   2 C :   -0.234492
   3 C :   -0.127472
   4 H :    0.062588
   5 C :   -0.124038
   6 C :   -0.091561
   7 C :   -0.046275
   8 C :   -0.193436
   9 C :   -0.043934
  10 C :    0.041326
  11 O :   -0.171754
  12 H :    0.100768
  13 H :    0.107844
  14 H :    0.111242
  15 H :    0.107644
  16 H :    0.083991
  17 H :    0.093103
  18 H :    0.086816
  19 H :    0.091781
  20 H :    0.110734
  21 H :    0.077530
  22 H :    0.107581
  23 H :    0.108716
  24 H :    0.028698
Sum of atomic charges:   -0.0000000

--------------------------------
MULLIKEN REDUCED ORBITAL CHARGES
--------------------------------
  0 C s       :     3.018709  s :     3.018709
      pz      :     1.063921  p :     3.165256
      px      :     1.043170
      py      :     1.058165
      dz2     :     0.005661  d :     0.029069
      dxz     :     0.003887
      dyz     :     0.007247
      dx2y2   :     0.003678
      dxy     :     0.008596

  1 C s       :     3.084563  s :     3.084563
      pz      :     0.970838  p :     2.947699
      px      :     0.996369
      py      :     0.980492
      dz2     :     0.010045  d :     0.042105
      dxz     :     0.010527
      dyz     :     0.008863
      dx2y2   :     0.005894
      dxy     :     0.006775

  2 C s       :     3.188311  s :     3.188311
      pz      :     1.044283  p :     3.019436
      px      :     0.962567
      py      :     1.012586
      dz2     :     0.006008  d :     0.026744
      dxz     :     0.007309
      dyz     :     0.006411
      dx2y2   :     0.003339
      dxy     :     0.003677

  3 C s       :     3.052276  s :     3.052276
      pz      :     1.018818  p :     3.033070
      px      :     1.001067
      py      :     1.013184
      dz2     :     0.006408  d :     0.042126
      dxz     :     0.009710
      dyz     :     0.009865
      dx2y2   :     0.005886
      dxy     :     0.010258

  4 H s       :     0.937412  s :     0.937412

  5 C s       :     3.029362  s :     3.029362
      pz      :     1.032437  p :     3.058190
      px      :     1.019276
      py      :     1.006477
      dz2     :     0.004430  d :     0.036486
      dxz     :     0.007989
      dyz     :     0.009851
      dx2y2   :     0.004044
      dxy     :     0.010172

  6 C s       :     2.946059  s :     2.946059
      pz      :     1.018072  p :     3.109349
      px      :     1.002060
      py      :     1.089218
      dz2     :     0.003818  d :     0.036152
      dxz     :     0.008924
      dyz     :     0.010151
      dx2y2   :     0.004919
      dxy     :     0.008341

  7 C s       :     3.060098  s :     3.060098
      pz      :     1.015420  p :     2.948019
      px      :     0.942584
      py      :     0.990014
      dz2     :     0.005308  d :     0.038159
      dxz     :     0.005086
      dyz     :     0.006912
      dx2y2   :     0.010268
      dxy     :     0.010585

  8 C s       :     3.302016  s :     3.302016
      pz      :     0.914033  p :     2.856227
      px      :     0.944352
      py      :     0.997841
      dz2     :     0.002695  d :     0.035194
      dxz     :     0.006383
      dyz     :     0.006796
      dx2y2   :     0.008082
      dxy     :     0.011237

  9 C s       :     2.920224  s :     2.920224
      pz      :     1.025329  p :     3.087280
      px      :     0.992210
      py      :     1.069740
      dz2     :     0.004584  d :     0.036429
      dxz     :     0.006964
      dyz     :     0.009743
      dx2y2   :     0.008156
      dxy     :     0.006983

 10 C s       :     3.206385  s :     3.206385
      pz      :     0.834982  p :     2.667920
      px      :     0.925614
      py      :     0.907324
      dz2     :     0.009965  d :     0.084369
      dxz     :     0.015523
      dyz     :     0.012318
      dx2y2   :     0.031252
      dxy     :     0.015311

 11 O s       :     3.755963  s :     3.755963
      pz      :     1.302402  p :     4.398568
      px      :     1.531282
      py      :     1.564884
      dz2     :     0.003281  d :     0.017223
      dxz     :     0.004026
      dyz     :     0.002669
      dx2y2   :     0.003138
      dxy     :     0.004110

 12 H s       :     0.899232  s :     0.899232

 13 H s       :     0.892156  s :     0.892156

 14 H s       :     0.888758  s :     0.888758

 15 H s       :     0.892356  s :     0.892356

 16 H s       :     0.916009  s :     0.916009

 17 H s       :     0.906897  s :     0.906897

 18 H s       :     0.913184  s :     0.913184

 19 H s       :     0.908219  s :     0.908219

 20 H s       :     0.889266  s :     0.889266

 21 H s       :     0.922470  s :     0.922470

 22 H s       :     0.892419  s :     0.892419

 23 H s       :     0.891284  s :     0.891284

 24 H s       :     0.971302  s :     0.971302


------------------------
MULLIKEN OVERLAP CHARGES
------------------------
B(  0-C ,  1-C ) :   0.8928 B(  0-C ,  2-C ) :  -0.1585 B(  0-C ,  3-C ) :  -0.2382 
B(  0-C , 12-H ) :   0.7084 B(  0-C , 13-H ) :   0.7081 B(  0-C , 14-H ) :   0.6983 
B(  0-C , 16-H ) :  -0.0624 B(  1-C ,  2-C ) :   1.4950 B(  1-C ,  3-C ) :   0.6291 
B(  1-C ,  4-H ) :  -0.0515 B(  1-C ,  5-C ) :  -0.1194 B(  1-C ,  9-C ) :  -0.0654 
B(  2-C ,  3-C ) :  -0.1645 B(  2-C , 15-H ) :   0.6945 B(  2-C , 16-H ) :   0.6647 
B(  3-C ,  4-H ) :   0.6270 B(  3-C ,  5-C ) :   0.7421 B(  3-C ,  6-C ) :  -0.0716 
B(  3-C ,  9-C ) :   0.6729 B(  3-C , 15-H ) :  -0.0783 B(  3-C , 17-H ) :  -0.0583 
B(  3-C , 23-H ) :  -0.0568 B(  4-H ,  5-C ) :  -0.0513 B(  5-C ,  6-C ) :   0.8085 
B(  5-C ,  7-C ) :  -0.0588 B(  5-C ,  8-C ) :  -0.0564 B(  5-C ,  9-C ) :  -0.0783 
B(  5-C , 17-H ) :   0.7178 B(  5-C , 18-H ) :   0.6720 B(  6-C ,  7-C ) :   0.6259 
B(  6-C ,  8-C ) :  -0.1711 B(  6-C ,  9-C ) :  -0.1318 B(  6-C , 10-C ) :  -0.1045 
B(  6-C , 17-H ) :  -0.0562 B(  6-C , 19-H ) :   0.6440 B(  6-C , 20-H ) :   0.6093 
B(  7-C ,  8-C ) :   0.9719 B(  7-C , 10-C ) :   0.1248 B(  7-C , 11-O ) :  -0.2872 
B(  7-C , 21-H ) :  -0.1369 B(  7-C , 24-H ) :  -0.3706 B(  8-C ,  9-C ) :   0.5356 
B(  8-C , 21-H ) :   0.7624 B(  9-C , 21-H ) :  -0.1171 B(  9-C , 22-H ) :   0.6091 
B(  9-C , 23-H ) :   0.6915 B( 10-C , 11-O ) :   1.4006 B( 10-C , 24-H ) :   0.8099 
B( 11-O , 21-H ) :   0.0511 B( 11-O , 24-H ) :  -0.0971 B( 15-H , 16-H ) :  -0.1106 
B( 17-H , 18-H ) :  -0.0561 B( 19-H , 20-H ) :  -0.0507 


                     *******************************
                     * LOEWDIN POPULATION ANALYSIS *
                     *******************************

----------------------
LOEWDIN ATOMIC CHARGES
----------------------
   0 C :   -0.321764
   1 C :   -0.050702
   2 C :   -0.266033
   3 C :   -0.131121
   4 H :    0.121829
   5 C :   -0.201770
   6 C :   -0.216519
   7 C :   -0.119878
   8 C :   -0.072451
   9 C :   -0.212490
  10 C :   -0.001918
  11 O :   -0.137114
  12 H :    0.125031
  13 H :    0.126099
  14 H :    0.130453
  15 H :    0.124351
  16 H :    0.119504
  17 H :    0.121895
  18 H :    0.117879
  19 H :    0.126450
  20 H :    0.134176
  21 H :    0.131121
  22 H :    0.140965
  23 H :    0.135932
  24 H :    0.076076

-------------------------------
LOEWDIN REDUCED ORBITAL CHARGES
-------------------------------
  0 C s       :     2.937569  s :     2.937569
      pz      :     1.119110  p :     3.312719
      px      :     1.077748
      py      :     1.115862
      dz2     :     0.014076  d :     0.071476
      dxz     :     0.008674
      dyz     :     0.018114
      dx2y2   :     0.009158
      dxy     :     0.021454

  1 C s       :     2.867565  s :     2.867565
      pz      :     1.073270  p :     3.074327
      px      :     1.028001
      py      :     0.973056
      dz2     :     0.027450  d :     0.108810
      dxz     :     0.029495
      dyz     :     0.022117
      dx2y2   :     0.014311
      dxy     :     0.015437

  2 C s       :     2.951337  s :     2.951337
      pz      :     1.095485  p :     3.245240
      px      :     1.082744
      py      :     1.067011
      dz2     :     0.016847  d :     0.069457
      dxz     :     0.021073
      dyz     :     0.015459
      dx2y2   :     0.008180
      dxy     :     0.007899

  3 C s       :     2.870799  s :     2.870799
      pz      :     1.056002  p :     3.156772
      px      :     1.048421
      py      :     1.052349
      dz2     :     0.013085  d :     0.103550
      dxz     :     0.025232
      dyz     :     0.026252
      dx2y2   :     0.011180
      dxy     :     0.027802

  4 H s       :     0.878171  s :     0.878171

  5 C s       :     2.904004  s :     2.904004
      pz      :     1.065193  p :     3.209103
      px      :     1.064984
      py      :     1.078926
      dz2     :     0.009316  d :     0.088663
      dxz     :     0.020741
      dyz     :     0.025039
      dx2y2   :     0.008425
      dxy     :     0.025142

  6 C s       :     2.894595  s :     2.894595
      pz      :     1.085974  p :     3.232763
      px      :     1.062700
      py      :     1.084089
      dz2     :     0.007916  d :     0.089161
      dxz     :     0.022369
      dyz     :     0.025358
      dx2y2   :     0.010419
      dxy     :     0.023098

  7 C s       :     2.872684  s :     2.872684
      pz      :     1.010637  p :     3.140350
      px      :     1.050725
      py      :     1.078987
      dz2     :     0.012264  d :     0.106845
      dxz     :     0.013494
      dyz     :     0.018160
      dx2y2   :     0.030681
      dxy     :     0.032246

  8 C s       :     2.910851  s :     2.910851
      pz      :     0.955841  p :     3.071611
      px      :     1.042833
      py      :     1.072936
      dz2     :     0.006454  d :     0.089989
      dxz     :     0.013732
      dyz     :     0.015675
      dx2y2   :     0.023057
      dxy     :     0.031071

  9 C s       :     2.893988  s :     2.893988
      pz      :     1.093008  p :     3.228106
      px      :     1.063289
      py      :     1.071808
      dz2     :     0.011389  d :     0.090397
      dxz     :     0.016265
      dyz     :     0.023361
      dx2y2   :     0.019697
      dxy     :     0.019684

 10 C s       :     2.921139  s :     2.921139
      pz      :     0.865681  p :     2.880623
      px      :     1.009211
      py      :     1.005731
      dz2     :     0.019134  d :     0.200157
      dxz     :     0.037250
      dyz     :     0.029288
      dx2y2   :     0.076959
      dxy     :     0.037526

 11 O s       :     3.559459  s :     3.559459
      pz      :     1.341127  p :     4.547504
      px      :     1.582241
      py      :     1.624136
      dz2     :     0.004147  d :     0.030150
      dxz     :     0.007776
      dyz     :     0.005303
      dx2y2   :     0.005180
      dxy     :     0.007744

 12 H s       :     0.874969  s :     0.874969

 13 H s       :     0.873901  s :     0.873901

 14 H s       :     0.869547  s :     0.869547

 15 H s       :     0.875649  s :     0.875649

 16 H s       :     0.880496  s :     0.880496

 17 H s       :     0.878105  s :     0.878105

 18 H s       :     0.882121  s :     0.882121

 19 H s       :     0.873550  s :     0.873550

 20 H s       :     0.865824  s :     0.865824

 21 H s       :     0.868879  s :     0.868879

 22 H s       :     0.859035  s :     0.859035

 23 H s       :     0.864068  s :     0.864068

 24 H s       :     0.923924  s :     0.923924


---------------------------------
LOEWDIN BOND ORDERS (THRESH 0.050000)
---------------------------------
B(  0-C ,  1-C ) :   1.1025 B(  0-C ,  2-C ) :   0.0876 B(  0-C ,  3-C ) :   0.0603 
B(  0-C , 12-H ) :   0.9309 B(  0-C , 13-H ) :   0.9212 B(  0-C , 14-H ) :   0.9205 
B(  1-C ,  2-C ) :   1.9704 B(  1-C ,  3-C ) :   1.0238 B(  1-C ,  5-C ) :   0.0536 
B(  1-C ,  9-C ) :   0.0524 B(  2-C ,  3-C ) :   0.0796 B(  2-C , 15-H ) :   0.9077 
B(  2-C , 16-H ) :   0.9145 B(  3-C ,  4-H ) :   0.8613 B(  3-C ,  5-C ) :   1.0382 
B(  3-C ,  8-C ) :   0.0541 B(  3-C ,  9-C ) :   1.0421 B(  5-C ,  6-C ) :   1.0843 
B(  5-C ,  7-C ) :   0.0559 B(  5-C ,  9-C ) :   0.0502 B(  5-C , 17-H ) :   0.8988 
B(  5-C , 18-H ) :   0.8995 B(  6-C ,  7-C ) :   1.0559 B(  6-C ,  8-C ) :   0.0783 
B(  6-C , 10-C ) :   0.0692 B(  6-C , 19-H ) :   0.8891 B(  6-C , 20-H ) :   0.8792 
B(  7-C ,  8-C ) :   1.7645 B(  7-C ,  9-C ) :   0.0832 B(  7-C , 10-C ) :   1.1576 
B(  7-C , 11-O ) :   0.1170 B(  8-C ,  9-C ) :   1.1262 B(  8-C , 10-C ) :   0.1199 
B(  8-C , 11-O ) :   0.1087 B(  8-C , 21-H ) :   0.8740 B(  9-C , 22-H ) :   0.8710 
B(  9-C , 23-H ) :   0.8784 B( 10-C , 11-O ) :   2.2697 B( 10-C , 24-H ) :   0.8750 
B( 11-O , 24-H ) :   0.0676 

------------------------------------------
LOEWDIN REDUCED ORBITAL POPULATIONS PER MO
-------------------------------------------
THRESHOLD FOR PRINTING IS 0.1%%
                      0         1         2         3         4         5   
                 -18.73406  -9.95916  -9.90961  -9.90835  -9.90600  -9.90241
                   2.00000   2.00000   2.00000   2.00000   2.00000   2.00000
                  --------  --------  --------  --------  --------  --------
 1 C  s               0.0       0.0       0.0       0.0      99.5       0.0
 2 C  pz              0.0       0.0       0.0       0.0       0.1       0.0
 3 C  s               0.0       0.0      99.6       0.0       0.0       0.0
 7 C  s               0.0       0.0       0.0       0.1       0.0       0.0
 7 C  px              0.0       0.1       0.0       0.0       0.0       0.0
 7 C  py              0.0       0.0       0.0       0.1       0.0       0.0
 8 C  s               0.0       0.0       0.0      99.5       0.0       0.0
 8 C  px              0.0       0.0       0.0       0.0       0.0       0.1
 9 C  s               0.0       0.0       0.0       0.0       0.0      99.6
10 C  s               0.0      99.5       0.0       0.0       0.0       0.0
11 O  s              99.9       0.0       0.0       0.0       0.0       0.0
11 O  px              0.0       0.1       0.0       0.0       0.0       0.0

                      6         7         8         9        10        11   
                  -9.90084  -9.89991  -9.89753  -9.88719  -9.87576  -0.92598
                   2.00000   2.00000   2.00000   2.00000   2.00000   2.00000
                  --------  --------  --------  --------  --------  --------
 0 C  s               0.0       0.0       0.0      99.7       0.0       0.0
 1 C  pz              0.0       0.0       0.0       0.0       0.1       0.0
 2 C  s               0.0       0.0       0.0       0.0      99.6       0.0
 5 C  s               0.0      99.6       0.0       0.0       0.0       0.0
 6 C  s               0.0       0.0      99.6       0.0       0.0       0.1
 7 C  s              99.3       0.0       0.0       0.0       0.0       1.5
 7 C  pz              0.0       0.0       0.0       0.0       0.0       0.2
 7 C  px              0.0       0.0       0.0       0.0       0.0       1.8
 8 C  s               0.1       0.0       0.0       0.0       0.0       0.3
 8 C  px              0.0       0.0       0.0       0.0       0.0       0.2
 8 C  py              0.1       0.0       0.0       0.0       0.0       0.2
10 C  s               0.0       0.0       0.0       0.0       0.0      19.5
10 C  pz              0.0       0.0       0.0       0.0       0.0       3.7
10 C  px              0.1       0.0       0.0       0.0       0.0       5.6
10 C  py              0.0       0.0       0.0       0.0       0.0       4.0
10 C  dxz             0.0       0.0       0.0       0.0       0.0       0.7
10 C  dyz             0.0       0.0       0.0       0.0       0.0       0.4
10 C  dxy             0.0       0.0       0.0       0.0       0.0       0.6
11 O  s               0.0       0.0       0.0       0.0       0.0      52.2
11 O  pz              0.0       0.0       0.0       0.0       0.0       1.8
11 O  px              0.0       0.0       0.0       0.0       0.0       3.1
11 O  py              0.0       0.0       0.0       0.0       0.0       1.7
11 O  dxy             0.0       0.0       0.0       0.0       0.0       0.1
21 H  s               0.0       0.0       0.0       0.0       0.0       0.2
24 H  s               0.0       0.0       0.0       0.0       0.0       1.7

                     12        13        14        15        16        17   
                  -0.78386  -0.72888  -0.68575  -0.67783  -0.61945  -0.58637
                   2.00000   2.00000   2.00000   2.00000   2.00000   2.00000
                  --------  --------  --------  --------  --------  --------
 0 C  s               1.5       9.6       1.6       6.4      21.5       2.5
 0 C  pz              0.0       0.1       0.0       0.2       0.6       0.1
 0 C  px              0.6       1.7       0.1       0.2       0.8       0.4
 0 C  py              0.1       0.3       0.0       0.0       0.0       0.3
 1 C  s               6.8      18.2       0.7       4.1       1.1       0.4
 1 C  pz              0.5       0.0       0.0       3.0       9.9       3.4
 1 C  px              0.4       0.1       0.4       1.2      11.5       0.9
 1 C  py              0.3       0.0       0.6       1.4       0.0       2.6
 1 C  dz2             0.0       0.0       0.0       0.0       0.2       0.0
 1 C  dxz             0.0       0.0       0.0       0.1       0.0       0.1
 2 C  s               2.1       8.0       0.3       5.8      20.5       1.3
 2 C  pz              0.9       2.1       0.1       0.4       0.3       0.2
 2 C  px              0.1       0.7       0.1       0.3       0.2       0.0
 2 C  py              0.1       0.1       0.0       0.0       0.1       0.1
 3 C  s              14.2       4.8       0.9       6.3       0.1       9.9
 3 C  pz              0.1       1.0       1.1       3.0       1.0       0.0
 3 C  px              0.9       1.6       0.7       1.1       0.3       2.2
 3 C  py              0.2       0.7       4.9       0.0       0.0       0.0
 4 H  s               2.3       1.1       0.2       1.4       0.3       4.2
 5 C  s               9.4       0.0       5.9      13.4       0.1       0.9
 5 C  pz              1.8       0.0       0.0       0.1       0.0       0.3
 5 C  px              0.0       1.8       1.0       0.2       0.2       3.5
 5 C  py              0.2       0.4       1.8       0.2       0.1       2.4
 6 C  s               7.9       4.9      13.9       0.5       0.3       4.4
 6 C  pz              0.1       0.3       0.1       1.8       0.0       0.9
 6 C  px              0.1       0.9       0.1       3.7       0.0       1.5
 6 C  py              1.5       0.5       0.0       0.0       0.0       0.1
 6 C  dxy             0.0       0.0       0.0       0.1       0.0       0.0
 7 C  s               8.5      12.1       1.2       8.8       0.1       2.9
 7 C  pz              0.0       0.0       1.5       0.7       0.0       0.5
 7 C  px              1.3       0.1       0.0       0.7       0.1       8.1
 7 C  py              0.2       0.1       6.2       0.6       0.3       1.1
 8 C  s               8.9       6.3       8.1       5.2       0.4       2.3
 8 C  pz              0.4       0.2       0.0       0.0       0.0       0.0
 8 C  px              0.8       0.3       2.8       1.4       0.0       1.7
 8 C  py              0.5       1.5       2.3       1.4       0.0       1.9
 9 C  s              10.2       0.0      19.5       0.6       0.1       1.2
 9 C  pz              0.1       0.0       0.1       0.8       0.1       0.6
 9 C  px              0.0       2.4       0.5       1.9       0.1       5.0
 9 C  py              1.8       0.0       0.0       0.1       0.1       0.6
 9 C  dxy             0.0       0.1       0.0       0.1       0.0       0.1
10 C  s               0.4       1.2       0.6       1.8       0.0       7.8
10 C  pz              0.2       0.5       0.3       0.5       0.0       1.7
10 C  px              1.8       3.5       0.5       3.9       0.0       4.9
10 C  py              0.0       0.0       0.2       0.0       0.0       0.8
10 C  dxy             0.0       0.1       0.0       0.1       0.0       0.2
11 O  s               0.5       0.9       0.1       1.2       0.0       2.8
11 O  pz              0.0       0.0       0.0       0.0       0.0       0.3
11 O  px              0.0       0.1       0.0       0.1       0.0       0.7
11 O  py              0.0       0.0       0.0       0.0       0.0       0.2
12 H  s               0.2       1.8       0.4       1.6       4.9       1.3
13 H  s               0.3       1.8       0.4       1.1       6.8       0.6
14 H  s               0.3       1.8       0.3       1.3       6.5       0.6
15 H  s               0.5       1.0       0.0       1.1       5.7       0.4
16 H  s               0.2       1.3       0.1       1.3       4.3       0.7
17 H  s               1.6       0.0       1.0       3.0       0.0       0.3
18 H  s               1.5       0.0       1.5       2.9       0.1       0.3
19 H  s               1.1       1.0       3.3       0.1       0.1       1.2
20 H  s               1.4       0.7       3.1       0.1       0.2       1.2
21 H  s               1.1       1.0       1.8       1.2       0.1       0.7
22 H  s               1.6       0.0       4.4       0.2       0.1       0.5
23 H  s               1.6       0.0       4.4       0.1       0.0       0.4
24 H  s               0.1       0.3       0.3       0.4       0.0       3.0

                     18        19        20        21        22        23   
                  -0.56869  -0.52711  -0.48318  -0.45389  -0.44612  -0.42634
                   2.00000   2.00000   2.00000   2.00000   2.00000   2.00000
                  --------  --------  --------  --------  --------  --------
 0 C  s               0.5       0.6       1.0       0.0       0.6       0.3
 0 C  pz              0.0       0.1       0.0       0.4       4.5       0.6
 0 C  px              0.1       0.7       4.0       0.5       4.7       1.8
 0 C  py              0.0       0.6       0.6       0.2       0.4       0.7
 1 C  s               0.1       1.6       4.2       1.3       4.0       0.0
 1 C  pz              0.0       3.6       1.4       0.2       2.7       0.0
 1 C  px              0.1       0.3       0.0       0.2       2.6       3.1
 1 C  py              0.1       1.7       0.1       0.6       0.6       0.4
 2 C  s               0.2       3.1       2.2       1.5       1.2       0.3
 2 C  pz              0.0       1.8       4.4       5.5       5.9       2.1
 2 C  px              0.0       0.0       0.4       0.6      11.0       2.7
 2 C  py              0.0       0.4       0.4       0.2       0.0       2.6
 3 C  s               0.0       1.5       0.7       0.7       0.6       1.0
 3 C  pz              2.6       4.1       1.9       1.6       0.0       6.5
 3 C  px              0.0       1.9       2.9       6.6       0.0       2.8
 3 C  py              4.5       0.3       4.6       3.8       1.7       0.7
 3 C  dyz             0.0       0.1       0.0       0.0       0.0       0.1
 4 H  s               0.0       0.3       0.6       6.3       0.0       5.7
 5 C  s               5.7       7.1       0.3       0.1       0.1       0.9
 5 C  pz              0.5       5.6       0.4       1.3       3.4       0.2
 5 C  px              1.7       0.3       0.7       0.9       2.2       0.0
 5 C  py              0.5       0.3       6.6       0.7       0.6       2.8
 6 C  s               6.7       3.1       0.2       1.1       0.0       0.5
 6 C  pz              0.3       2.2       1.3       0.5       2.4       0.0
 6 C  px              2.7       0.2       1.0       0.4       1.6       2.3
 6 C  py              2.5       0.2       4.6       5.9       1.4       0.6
 7 C  s               0.3       0.2       2.0       0.1       1.0       0.8
 7 C  pz              2.3       0.1       0.5       0.6       1.2       1.5
 7 C  px              0.1       8.5       2.8       2.8       0.6       1.8
 7 C  py             13.8       0.5       0.0       0.0       0.1       0.1
 7 C  dx2y2           0.1       0.1       0.0       0.0       0.0       0.2
 7 C  dxy             0.0       0.1       0.0       0.1       0.0       0.0
 8 C  s               6.3       0.3       2.6       0.0       0.8       2.8
 8 C  pz              0.1       0.1       3.6       2.1       1.9       0.3
 8 C  px              4.8       0.1       0.5       6.8       0.6       0.3
 8 C  py              1.8       2.1       8.7       0.6       0.3       3.3
 8 C  dxy             0.0       0.0       0.0       0.0       0.1       0.1
 9 C  s               8.4       1.6       0.0       0.0       0.4       1.0
 9 C  pz              0.0       0.1       5.1       0.0       2.1       6.3
 9 C  px              2.0       0.2       2.6       2.8       0.6       4.8
 9 C  py              1.9       2.3       1.7       4.1       3.2       0.0
 9 C  dxz             0.0       0.0       0.0       0.0       0.0       0.1
10 C  s               1.5       7.4       1.0       1.4       0.6       0.0
10 C  pz              0.6       1.5       0.2       0.5       0.0       0.5
10 C  px              0.0       0.9       0.0       3.4       1.2       4.8
10 C  py              2.7       2.6       1.0       8.1       4.5       6.0
11 O  s               0.1       2.6       0.7       0.4       0.4       0.0
11 O  pz              0.1       0.6       0.1       0.5       0.1       0.1
11 O  px              0.0       0.6       0.2       0.4       0.0       1.9
11 O  py              0.3       0.7       0.2       3.5       1.7       1.4
12 H  s               0.2       0.9       1.8       0.0       0.1       0.2
13 H  s               0.1       0.2       0.4       0.1       3.1       1.0
14 H  s               0.2       0.2       0.9       0.3       1.2       0.2
15 H  s               0.1       0.9       1.7       2.0       8.7       0.5
16 H  s               0.1       2.6       2.9       2.5       0.6       3.5
17 H  s               2.0       5.5       0.1       0.0       2.7       0.0
18 H  s               2.4       3.8       2.5       0.5       0.0       1.8
19 H  s               3.7       0.4       1.0       2.8       0.3       1.7
20 H  s               2.7       2.0       0.8       1.4       2.0       0.1
21 H  s               2.6       0.0       6.3       2.9       0.7       2.9
22 H  s               3.4       1.9       0.0       0.7       2.9       0.2
23 H  s               4.0       0.7       0.9       0.8       0.1       6.3
24 H  s               2.1       5.2       1.6       6.1       3.1       4.0

                     24        25        26        27        28        29   
                  -0.41272  -0.39539  -0.38435  -0.37876  -0.37081  -0.36764
                   2.00000   2.00000   2.00000   2.00000   2.00000   2.00000
                  --------  --------  --------  --------  --------  --------
 0 C  s               0.1       0.1       0.1       0.0       0.0       0.0
 0 C  pz              0.4       8.5       2.1       9.0       0.4       1.0
 0 C  px              2.1       7.1       0.0       0.9       5.0       1.5
 0 C  py              4.7       1.7       6.9       0.2      27.4       1.1
 0 C  dz2             0.0       0.0       0.1       0.0       0.2       0.0
 0 C  dyz             0.0       0.1       0.0       0.1       0.0       0.0
 0 C  dxy             0.0       0.0       0.0       0.0       0.2       0.0
 1 C  s               0.0       0.2       0.0       0.1       0.1       0.1
 1 C  pz              0.1       5.0       0.1       1.5       0.3       4.0
 1 C  px              0.1       1.4       4.4       0.7       0.1       3.2
 1 C  py              7.2       0.1       0.7       0.1       1.9       0.0
 1 C  dxz             0.0       0.0       0.0       0.0       0.0       0.3
 1 C  dx2y2           0.0       0.0       0.0       0.0       0.2       0.0
 1 C  dxy             0.0       0.0       0.0       0.0       0.1       0.0
 2 C  s               0.0       0.2       0.0       0.2       0.1       0.1
 2 C  pz              0.0       2.9       2.0       0.0       0.3      11.0
 2 C  px              2.3       1.1       1.7       1.8       0.9       2.2
 2 C  py              3.7       0.2       0.4       0.0       1.6       4.4
 2 C  dxz             0.0       0.0       0.0       0.0       0.0       0.1
 3 C  s               0.0       1.5       0.3       0.0       0.3       0.5
 3 C  pz              3.0       0.2       0.3       0.9       0.3       0.6
 3 C  px              1.8       4.5       2.2       0.1       0.3       1.0
 3 C  py              1.2       3.0       2.4       0.1       1.5       2.6
 3 C  dxz             0.0       0.0       0.0       0.0       0.1       0.0
 4 H  s               0.2       0.0       0.8       0.4       0.4       1.2
 5 C  s               0.0       0.0       0.0       0.4       0.1       0.1
 5 C  pz              7.1       1.2       0.5       1.0       1.1       5.8
 5 C  px              6.2       1.8       0.0       2.1       0.2       2.3
 5 C  py              0.6       0.3       6.5       1.3       0.6       0.3
 5 C  dxz             0.0       0.0       0.1       0.0       0.0       0.0
 5 C  dxy             0.0       0.1       0.0       0.0       0.0       0.1
 6 C  s               0.0       0.4       0.0       0.1       0.0       0.1
 6 C  pz             11.9       1.5       0.2       7.0       2.8       1.2
 6 C  px              4.9       2.0       5.8       0.6       1.2       0.1
 6 C  py              1.8       4.4       0.1       0.1       0.2       3.0
 6 C  dxz             0.0       0.1       0.0       0.1       0.0       0.0
 6 C  dxy             0.0       0.1       0.0       0.1       0.0       0.1
 7 C  s               0.0       1.9       0.1       0.3       0.1       0.2
 7 C  pz              2.2       1.4       2.3       0.9       0.1       0.8
 7 C  px              0.2       1.6       3.1       1.1       0.4       1.7
 7 C  py              0.6       1.3       5.0       5.5       1.7       1.2
 7 C  dx2y2           0.0       0.0       0.0       0.0       0.1       0.3
 8 C  s               0.3       0.3       0.1       0.1       0.2       0.1
 8 C  pz              0.1       1.5       0.5       5.1       0.1       0.9
 8 C  px              0.0       3.1       0.1       0.5       0.1       1.0
 8 C  py              0.0       0.3      10.0       0.2       2.8       2.4
 8 C  dx2y2           0.0       0.1       0.1       0.0       0.0       0.1
 9 C  s               0.3       0.2       0.1       0.0       0.0       0.1
 9 C  pz              3.7       0.8       0.7      10.2       4.2       6.2
 9 C  px              0.4       2.4       2.9       0.3       3.9       0.1
 9 C  py              1.9       5.7       0.4       0.5       1.3       2.2
 9 C  dyz             0.0       0.1       0.0       0.1       0.1       0.1
 9 C  dxy             0.0       0.1       0.0       0.0       0.0       0.0
10 C  s               0.0       0.4       0.2       0.6       0.1       0.3
10 C  pz              0.7       0.1       1.3       0.9       0.2       0.1
10 C  px              1.5       0.1       3.1       1.4       1.0       0.6
10 C  py              0.7       0.2       0.9       3.5       0.5       3.8
11 O  s               0.0       1.9       3.0       4.4       0.0       0.7
11 O  pz              0.1       0.9       1.4       9.2       0.0       1.5
11 O  px              0.8       2.9       1.9       5.9       0.9       3.8
11 O  py              0.1       0.5       7.5       1.1       0.2       0.3
12 H  s               0.5       7.2       0.3       2.2       2.3       0.0
13 H  s               0.1       1.4       3.4       4.1       5.1       1.3
14 H  s               3.4       0.3       1.2       0.2      15.1       0.0
15 H  s               2.0       1.3       0.3       0.8       0.6       0.5
16 H  s               0.8       0.6       1.5       0.0       1.1       8.9
17 H  s               4.2       0.0       0.4       0.7       0.0       0.4
18 H  s               0.4       2.1       2.1       0.4       0.7       2.8
19 H  s               3.8       1.5       0.9       1.8       2.1       0.0
20 H  s               6.0       1.3       0.9       0.3       0.7       1.6
21 H  s               0.2       3.1       3.2       0.8       0.2       0.2
22 H  s               3.3       1.5       0.0       4.4       3.0       4.2
23 H  s               0.4       1.2       1.8       2.9       2.1       1.2
24 H  s               0.7       0.0       0.6       0.3       0.5       1.5

                     30        31        32        33        34        35   
                  -0.35458  -0.35172  -0.34185  -0.32986  -0.32212  -0.29768
                   2.00000   2.00000   2.00000   2.00000   2.00000   2.00000
                  --------  --------  --------  --------  --------  --------
 0 C  s               0.0       0.0       0.0       0.0       0.4       0.0
 0 C  pz              1.9       0.1       4.5      16.5       4.2       0.1
 0 C  px              3.1       0.0       1.6       0.1       9.5       0.0
 0 C  py              0.4       0.8       1.4       2.4       0.0       2.1
 0 C  dxz             0.0       0.0       0.0       0.1       0.0       0.0
 0 C  dyz             0.0       0.0       0.1       0.3       0.0       0.0
 0 C  dxy             0.0       0.0       0.0       0.2       0.1       0.1
 1 C  s               0.1       0.0       0.1       0.1       0.2       0.0
 1 C  pz              0.0       0.0       0.4       3.9       3.0       0.3
 1 C  px              0.3       0.2       0.6       0.1       6.1       0.1
 1 C  py              0.6       0.0       0.0       0.4       0.3       2.1
 1 C  dz2             0.0       0.0       0.0       0.1       0.4       0.0
 1 C  dxz             0.1       0.0       0.0       0.1       0.0       0.0
 1 C  dyz             0.0       0.0       0.0       0.0       0.1       0.0
 1 C  dx2y2           0.0       0.0       0.0       0.0       0.1       0.1
 2 C  s               0.0       0.0       0.0       0.1       0.4       0.0
 2 C  pz              0.6       0.0       1.0       1.2       1.2       0.1
 2 C  px              0.6       0.2       0.6       6.8       8.8       0.1
 2 C  py              0.2       0.0       0.9       0.7       0.5       0.3
 2 C  dz2             0.0       0.0       0.0       0.0       0.1       0.0
 2 C  dyz             0.0       0.0       0.0       0.0       0.1       0.0
 2 C  dx2y2           0.0       0.0       0.0       0.0       0.1       0.0
 3 C  s               0.2       0.0       0.0       0.1       0.2       0.0
 3 C  pz              1.2       0.0       2.9       0.3       0.1       3.0
 3 C  px              0.2       0.3       3.4       1.5       0.5       5.6
 3 C  py              0.4       0.1       0.7       1.9       0.4       9.7
 3 C  dxz             0.0       0.1       0.0       0.0       0.0       0.1
 3 C  dyz             0.0       0.0       0.0       0.0       0.0       0.2
 3 C  dx2y2           0.0       0.1       0.0       0.0       0.0       0.1
 3 C  dxy             0.0       0.1       0.1       0.0       0.1       0.0
 4 H  s               0.5       0.0       2.1       0.0       0.6       4.8
 5 C  s               0.0       0.2       0.0       0.0       0.0       0.0
 5 C  pz              2.3       4.8       0.1       0.6       1.7       2.2
 5 C  px              2.2       6.8       4.7       0.0       1.8       5.9
 5 C  py              9.4       0.1       0.2       1.8       2.6       9.3
 5 C  dxz             0.0       0.0       0.0       0.0       0.0       0.3
 5 C  dyz             0.2       0.1       0.0       0.0       0.1       0.1
 6 C  s               0.1       0.3       0.1       0.0       0.1       0.1
 6 C  pz              2.1       0.7       2.5       4.0       1.5       1.1
 6 C  px              0.6       4.2       2.8       0.3       2.2       6.1
 6 C  py              0.0      11.4       0.7       1.3       4.5       5.2
 6 C  dxz             0.0       0.1       0.0       0.0       0.0       0.4
 6 C  dyz             0.0       0.1       0.0       0.1       0.2       0.1
 6 C  dxy             0.0       0.0       0.1       0.0       0.0       0.1
 7 C  s               0.1       0.0       0.3       0.0       0.2       0.0
 7 C  pz              2.1       0.6       4.7       0.0       1.2       0.3
 7 C  px              2.0       0.7       1.1       0.0       0.6       0.1
 7 C  py              2.2       0.2       0.4       0.0       0.6       3.3
 7 C  dx2y2           0.0       0.0       0.0       0.0       0.0       0.3
 7 C  dxy             0.1       0.3       0.2       0.0       0.0       0.0
 8 C  s               0.0       0.2       0.0       0.0       0.0       0.1
 8 C  pz              2.8       1.6       0.2       0.3       0.0       0.1
 8 C  px              0.2      15.0       0.8       0.0       0.0       2.5
 8 C  py              0.2       0.5       0.7       0.0       0.7       4.3
 8 C  dyz             0.0       0.1       0.0       0.0       0.0       0.0
 8 C  dx2y2           0.0       0.2       0.0       0.0       0.0       0.1
 8 C  dxy             0.0       0.1       0.0       0.0       0.0       0.0
 9 C  s               0.1       0.5       0.1       0.0       0.0       0.0
 9 C  pz              0.6       0.1       2.9       1.3       0.2       1.3
 9 C  px              0.1       6.9       1.6       1.1       0.2       2.0
 9 C  py              0.1      13.3       1.4       1.8       0.6       4.0
 9 C  dz2             0.0       0.1       0.0       0.0       0.0       0.1
 9 C  dxz             0.0       0.0       0.0       0.0       0.0       0.1
 9 C  dyz             0.0       0.0       0.0       0.1       0.0       0.1
 9 C  dx2y2           0.0       0.0       0.0       0.0       0.0       0.3
10 C  s               0.3       0.0       0.3       0.0       0.1       0.3
10 C  pz             13.3       0.7       4.8       5.3       5.1       0.1
10 C  px              1.1       1.8       4.5       0.9       0.3       0.8
10 C  py              0.6       1.2       5.9       1.1       0.5       0.2
10 C  dz2             0.1       0.0       0.1       0.1       0.1       0.0
10 C  dxz             0.0       0.0       0.0       0.0       0.1       0.0
10 C  dxy             0.0       0.0       0.3       0.0       0.0       0.0
11 O  s               3.6       0.0       2.1       0.0       0.2       0.0
11 O  pz              0.5       0.2      24.0       8.5       4.2       0.0
11 O  px             15.8       1.9       1.1       1.3       3.2       0.2
11 O  py              9.3       0.1       0.1       2.0       4.3       1.1
11 O  dxy             0.1       0.0       0.0       0.0       0.0       0.0
12 H  s               0.8       0.1       4.0       9.6       0.2       0.3
13 H  s               1.3       0.2       1.0       5.0       1.8       0.6
14 H  s               1.1       0.2       0.1       1.9       2.0       1.2
15 H  s               0.4       0.0       0.3       4.7       6.6       0.0
16 H  s               0.9       0.0       1.3       0.7       1.5       0.0
17 H  s               6.4       0.0       0.1       1.1       4.6       0.0
18 H  s               3.0       3.8       0.6       0.1       1.3       1.0
19 H  s               0.2       5.1       0.2       0.8       0.3       8.5
20 H  s               0.7       0.2       0.0       3.3       5.3       0.0
21 H  s               0.3       6.0       0.1       0.2       0.2       0.2
22 H  s               0.2       1.9       0.1       2.4       0.0       0.4
23 H  s               0.1       3.5       0.9       0.5       0.0       5.2
24 H  s               1.2       1.2       1.6       0.0       0.3       0.1

                     36        37        38        39        40        41   
                  -0.28988  -0.28058  -0.23009  -0.22206  -0.19610  -0.08920
                   2.00000   2.00000   2.00000   2.00000   2.00000   0.00000
                  --------  --------  --------  --------  --------  --------
 0 C  s               0.1       0.3       0.0       0.0       0.0       0.0
 0 C  pz              0.1       0.1       0.0       0.3       0.0       0.0
 0 C  px              2.7       3.9       0.5       0.0       0.0       0.0
 0 C  py              0.8       1.2       0.4       1.1       0.0       0.0
 0 C  dxy             0.0       0.0       0.1       0.2       0.0       0.0
 1 C  s               0.3       0.0       0.0       0.0       0.0       0.0
 1 C  pz              5.5       0.2       2.1       2.4       0.0       0.0
 1 C  px              3.6       4.0       3.0       2.5       0.0       0.0
 1 C  py              5.1       0.4       6.5      14.8       0.0       0.0
 1 C  dz2             0.0       0.2       0.0       0.3       0.0       0.0
 1 C  dxz             0.4       0.0       0.0       0.1       0.0       0.0
[...]
 5 C  dxy             0.1       0.9       0.0       0.5       1.2       0.0
 6 C  s               0.4       0.1       0.2       0.0       0.1       0.0
 6 C  pz              0.0       0.1       0.4       0.0       0.0       0.0
 6 C  px              0.1       0.1       0.7       0.0       0.0       0.0
 6 C  py              0.2       0.1       0.2       0.0       0.1       0.0
 6 C  dz2             0.2       0.0       0.0       0.0       0.0       0.0
 6 C  dxz             0.4       0.0       0.2       0.0       2.7       0.0
 6 C  dyz             0.0       0.4       2.2       0.0       0.5       0.0
 6 C  dx2y2           0.2       0.3       0.4       0.1       5.1       0.0
 6 C  dxy             0.0       0.8       4.4       0.0       0.1       0.0
 7 C  s               1.6       0.1       0.0       0.1       0.9       0.0
 7 C  pz              0.2       0.0       0.2       0.0       0.2       0.0
 7 C  px              0.3       0.0       0.2       0.0       0.4       0.0
 7 C  py              0.3       0.1       1.3       0.0       1.6       0.0
 7 C  dz2             0.3       0.1       0.5       0.0       0.1       0.0
 7 C  dxz             0.9       1.2       4.8       0.1       1.9       0.5
 7 C  dyz             0.5       0.2       1.0       0.0       8.1       0.5
 7 C  dx2y2           0.3       0.4       1.1       0.2      22.8       0.5
 7 C  dxy             0.0       2.2      14.3       0.0       0.0       0.0
 8 C  s               0.0       0.0       0.2       0.1       3.0       0.0
 8 C  pz              0.0       0.0       0.1       0.0       0.2       0.0
 8 C  px              0.6       0.0       0.9       0.0       0.2       0.0
 8 C  py              0.2       0.1       1.6       0.0       1.6       0.0
 8 C  dz2             0.1       0.1       0.9       0.0       3.4       0.1
 8 C  dxz             0.5       0.0       0.6       0.0       1.5       0.0
 8 C  dyz             0.7       0.2       3.1       0.1       0.0       0.1
 8 C  dx2y2           3.8       0.3       9.6       0.0       0.8       0.1
 8 C  dxy             0.5       0.7       3.6       0.0      18.2       0.0
 9 C  s               0.1       0.5       0.3       0.0       0.5       0.0
 9 C  pz              0.1       0.1       0.2       0.0       0.0       0.0
 9 C  px              0.6       0.0       1.6       0.0       0.2       0.0
 9 C  py              0.0       0.3       0.0       0.0       0.0       0.0
 9 C  dz2             0.0       0.2       0.4       0.7       0.3       0.0
 9 C  dxz             0.8       1.4       0.0       0.2       2.4       0.0
 9 C  dyz             0.3       1.3       1.1       0.5       0.0       0.0
 9 C  dx2y2           0.0       0.1       2.6       0.0       3.7       0.0
 9 C  dxy             5.7       0.5       3.8       0.3       0.9       0.0
10 C  s               0.1       0.0       0.1       0.0       0.7       0.0
10 C  pz              0.1       0.0       0.1       0.0       0.0       0.7
10 C  px              0.1       0.0       0.1       0.0       0.9       0.1
10 C  py              0.1       0.0       0.0       0.0       0.4       0.2
10 C  dz2             1.7       0.2       0.6       0.0       0.4      10.6
10 C  dxz             0.0       0.1       0.4       0.0       0.3       3.6
10 C  dyz             0.4       0.1       0.8       0.0       0.0       0.6
10 C  dx2y2           0.0       0.0       0.3       0.0       0.1       0.1
10 C  dxy             2.8       1.4       5.7       0.1       2.4       3.9
11 O  s               0.0       0.1       0.3       0.0       0.3       0.0
11 O  pz              0.0       0.0       0.2       0.0       0.1       0.9
11 O  px              0.1       0.0       0.1       0.0       0.3       0.1
11 O  py              0.0       0.1       0.5       0.0       0.0       0.2
11 O  dz2            21.1       0.2       0.1       0.0       0.8      45.6
11 O  dxz             2.7       0.0       0.0       0.0       1.7      11.3
11 O  dyz            10.2       1.3       6.2       0.0       0.0       4.5
11 O  dx2y2           0.0       0.9       7.5       0.0       3.5       0.0
11 O  dxy            22.6       0.0       0.6       0.0       0.4      15.7
12 H  s               0.0       0.1       0.0       0.1       0.0       0.0
15 H  s               0.0       0.2       0.0       0.9       0.0       0.0
16 H  s               0.0       0.0       0.0       0.9       0.0       0.0
21 H  s               0.0       0.0       0.1       0.0       0.7       0.0
24 H  s               0.3       0.0       0.0       0.0       0.0       0.0

                    180       181   
                   3.24053   3.51652
                   0.00000   0.00000
                  --------  --------
 6 C  s               0.2       0.1
 6 C  pz              0.1       0.0
 6 C  px              0.2       0.0
 6 C  dxz             0.3       0.0
 6 C  dyz             0.2       0.0
 6 C  dxy             0.8       0.0
 7 C  s               0.2       0.1
 7 C  px              0.6       0.1
 7 C  py              0.1       0.1
 7 C  dz2             0.9       0.2
 7 C  dxz             0.4       0.2
 7 C  dyz             1.5       0.0
 7 C  dx2y2           1.0       0.1
 7 C  dxy             8.6       1.2
 8 C  dz2             0.2       0.0
 8 C  dyz             0.7       0.1
 8 C  dx2y2           0.6       0.2
 8 C  dxy             2.1       0.1
 9 C  dxz             0.1       0.0
 9 C  dx2y2           0.4       0.0
10 C  s               0.0       7.2
10 C  pz              0.3       1.7
10 C  px              0.3       3.0
10 C  py              0.5       1.6
10 C  dz2             0.3       0.1
10 C  dxz             3.0       3.2
10 C  dyz             3.1       0.6
10 C  dx2y2          16.7       1.3
10 C  dxy             0.2       2.3
11 O  s               0.4       6.1
11 O  pz              0.0       1.1
11 O  px              0.8       1.6
11 O  py              0.3       1.3
11 O  dz2             0.6       0.4
11 O  dxz             8.7      21.8
11 O  dyz             5.8      17.2
11 O  dx2y2          38.5       0.3
11 O  dxy             0.0      26.4
24 H  s               0.5       0.1


                      *****************************
                      * MAYER POPULATION ANALYSIS *
                      *****************************

  NA   - Mulliken gross atomic population
  ZA   - Total nuclear charge
  QA   - Mulliken gross atomic charge
  VA   - Mayer's total valence
  BVA  - Mayer's bonded valence
  FA   - Mayer's free valence

  ATOM       NA         ZA         QA         VA         BVA        FA
  0 C      6.2130     6.0000    -0.2130     3.9190     3.9190    -0.0000
  1 C      6.0744     6.0000    -0.0744     4.3143     4.3143    -0.0000
  2 C      6.2345     6.0000    -0.2345     3.9600     3.9600     0.0000
  3 C      6.1275     6.0000    -0.1275     4.0949     4.0949    -0.0000
  4 H      0.9374     1.0000     0.0626     0.9509     0.9509    -0.0000
  5 C      6.1240     6.0000    -0.1240     4.0820     4.0820    -0.0000
  6 C      6.0916     6.0000    -0.0916     3.9890     3.9890    -0.0000
  7 C      6.0463     6.0000    -0.0463     3.9285     3.9285     0.0000
  8 C      6.1934     6.0000    -0.1934     4.0292     4.0292    -0.0000
  9 C      6.0439     6.0000    -0.0439     3.9595     3.9595    -0.0000
 10 C      5.9587     6.0000     0.0413     4.0968     4.0968     0.0000
 11 O      8.1718     8.0000    -0.1718     2.3049     2.3049     0.0000
 12 H      0.8992     1.0000     0.1008     0.9690     0.9690    -0.0000
 13 H      0.8922     1.0000     0.1078     0.9614     0.9614    -0.0000
 14 H      0.8888     1.0000     0.1112     0.9533     0.9533    -0.0000
 15 H      0.8924     1.0000     0.1076     0.9474     0.9474    -0.0000
 16 H      0.9160     1.0000     0.0840     0.9496     0.9496     0.0000
 17 H      0.9069     1.0000     0.0931     0.9477     0.9477     0.0000
 18 H      0.9132     1.0000     0.0868     0.9553     0.9553     0.0000
 19 H      0.9082     1.0000     0.0918     0.9547     0.9547     0.0000
 20 H      0.8893     1.0000     0.1107     0.9631     0.9631     0.0000
 21 H      0.9225     1.0000     0.0775     0.9823     0.9823    -0.0000
 22 H      0.8924     1.0000     0.1076     0.9479     0.9479    -0.0000
 23 H      0.8913     1.0000     0.1087     0.9558     0.9558    -0.0000
 24 H      0.9713     1.0000     0.0287     0.9607     0.9607    -0.0000

  Mayer bond orders larger than 0.100000
B(  0-C ,  1-C ) :   1.1219 B(  0-C , 12-H ) :   0.9403 B(  0-C , 13-H ) :   0.9297 
B(  0-C , 14-H ) :   0.9268 B(  1-C ,  2-C ) :   2.0468 B(  1-C ,  3-C ) :   1.0090 
B(  2-C , 15-H ) :   0.8940 B(  2-C , 16-H ) :   0.9006 B(  3-C ,  4-H ) :   0.8779 
B(  3-C ,  5-C ) :   1.0537 B(  3-C ,  9-C ) :   1.0851 B(  5-C ,  6-C ) :   1.1324 
B(  5-C , 17-H ) :   0.9205 B(  5-C , 18-H ) :   0.9105 B(  6-C ,  7-C ) :   1.0570 
B(  6-C , 19-H ) :   0.8960 B(  6-C , 20-H ) :   0.8716 B(  7-C ,  8-C ) :   1.7954 
B(  7-C , 10-C ) :   1.0154 B(  8-C ,  9-C ) :   1.0604 B(  8-C , 11-O ) :   0.1082 
B(  8-C , 21-H ) :   0.9179 B(  9-C , 22-H ) :   0.8755 B(  9-C , 23-H ) :   0.8951 
B( 10-C , 11-O ) :   2.1347 B( 10-C , 24-H ) :   0.9166 

-------
TIMINGS
-------

Total SCF time: 0 days 0 hours 0 min 13 sec 

Total time                  ....      13.486 sec
Sum of individual times     ....      12.513 sec  ( 92.8%)

SCF preparation             ....       0.204 sec  (  1.5%)
Fock matrix formation       ....      11.385 sec  ( 84.4%)
  Startup                   ....       0.069 sec  (  0.6% of F)
  Split-RI-J                ....       4.902 sec  ( 43.1% of F)
  XC integration            ....       5.854 sec  ( 51.4% of F)
    XC Preparation          ....       0.000 sec  (  0.0% of XC)
    Basis function eval.    ....       1.919 sec  ( 32.8% of XC)
    Density eval.           ....       0.869 sec  ( 14.8% of XC)
    XC-Functional eval.     ....       0.388 sec  (  6.6% of XC)
    XC-Potential eval.      ....       1.363 sec  ( 23.3% of XC)
Diagonalization             ....       0.000 sec  (  0.0%)
Density matrix formation    ....       0.243 sec  (  1.8%)
Total Energy calculation    ....       0.045 sec  (  0.3%)
Population analysis         ....       0.123 sec  (  0.9%)
Orbital Transformation      ....       0.060 sec  (  0.4%)
Orbital Orthonormalization  ....       0.000 sec  (  0.0%)
DIIS solution               ....       0.346 sec  (  2.6%)
  MO trafo                  ....       0.000 sec  (  0.0 % of DIIS)
  Orb grad                  ....       0.000 sec  (  0.0 % of DIIS)
  Energy W gradient         ....       0.000 sec  (  0.0 % of DIIS)
  DIIS error                ....       0.008 sec  (  2.3 % of DIIS)
  DIIS work                 ....       0.289 sec  ( 83.6 % of DIIS)
  Form Q                    ....       0.000 sec  (  0.0 % of DIIS)
  Form QpQm                 ....       0.000 sec  (  0.0 % of DIIS)
  Exp/Cayley                ....       0.000 sec  (  0.0 % of DIIS)
  Orb update                ....       0.000 sec  (  0.0 % of DIIS)
  Wake-sleep                ....       0.017 sec  (  4.9 % of DIIS)
SOSCF solution              ....       0.107 sec  (  0.8%)
  MO trafo                  ....       0.057 sec  ( 53.3 % of SOSCF)
  Orb grad                  ....       0.002 sec  (  1.4 % of SOSCF)
  Rot update                ....       0.017 sec  ( 15.8 % of SOSCF)
  Step                      ....       0.031 sec  ( 29.4 % of SOSCF)
Finished LeanSCF after  13.6 sec

Maximum memory used throughout the entire LEANSCF-calculation: 17.8 MB


-------------------------------------------------------------------------------
                          DFT DISPERSION CORRECTION                            
                                                                               
                                DFTD4 V3.4.0                                   
-------------------------------------------------------------------------------
The PBE functional is recognized
Active option DFTDOPT                   ...         5   

-------------------------   ----------------
Dispersion correction           -0.027885501
-------------------------   ----------------

------------------   -----------------
gCP correction             0.102841225
------------------   -----------------

-------------------------   --------------------
FINAL SINGLE POINT ENERGY      -463.625169157131
-------------------------   --------------------


------------------------------------------------------------------------------
                              ORCA PROPERTY CALCULATIONS
------------------------------------------------------------------------------

GBWName                                 ... sp.gbw
Number of atoms                         ...     25
Number of basis functions               ...    182
Max core memory                         ...   1024 MB

Electric properties:
Dipole moment                           ... YES
Quadrupole moment                       ...  NO
Static polarizability (Dipole/Dipole)   ...  NO
Static polarizability (Dipole/Quad.)    ...  NO
Static polarizability (Quad./Quad.)     ...  NO
Static polarizability (Velocity)        ...  NO

Atomic electric properties:
Dipole moment                           ...  NO
Quadrupole moment                       ...  NO
Static polarizability                   ...  NO

Choice of electric origin               ... Center of mass
Position of electric origin             ...     0.000034    -0.000003    -0.000007

General magnetic properties:
Magnetizability                         ...  NO

EPR properties:
g-Tensor (aka g-matrix)                 ...  NO
Zero-Field splitting spin-orbit         ...  NO
Zero-field splitting spin-spin          ...  NO
Hyperfine couplings                     ...  NO (   0 nuclei)
Quadrupole couplings                    ...  NO (   0 nuclei)
Contact density                         ...  NO (   0 nuclei)

NMR properties:
Chemical shifts                         ...  NO (   0 nuclei)
Spin-rotation constants                 ...  NO (   0 nuclei)
Spin-spin couplings                     ...  NO (   0 nuclei,    0 pairs)

Choice of magnetic origin               ... GIAO
Position of magnetic origin             ...     0.000000     0.000000     0.000000

Properties with geometric perturbations:
SCF Hessian                             ...  NO
IR spectrum                             ...  NO
VCD spectrum                            ...  NO
X-ray spectroscopy properties:
SCF XES/XAS/RIXS spectra                ...  NO


-------------
DIPOLE MOMENT
-------------

Method             : SCF
Type of density    : Electron Density
Multiplicity       :   1
Irrep              :   0
Energy             :  -463.7001248812414360 Eh
Relativity type    : 
Basis              : AO
                                X                 Y                 Z
Electronic contribution:    -10.490270911       1.646888519       1.818741902
Nuclear contribution   :     11.798992914      -1.696729845      -2.454042453
                        -----------------------------------------
Total Dipole Moment    :      1.308722003      -0.049841326      -0.635300551
                        -----------------------------------------
Magnitude (a.u.)       :      1.455625030
Magnitude (Debye)      :      3.699904791



--------------------
Rotational spectrum 
--------------------
 
Rotational constants in cm-1:             0.074316             0.022511             0.022083 
Rotational constants in MHz :          2227.938912           674.862888           662.025831 

Dipole components along the rotational axes: 
x,y,z [a.u.] :     1.330807     0.558240     0.190172 
x,y,z [Debye]:     3.382642     1.418935     0.483378 

 

Dipole moment calculation done in   0.0 sec 

Maximum memory used throughout the entire PROP-calculation: 11.4 MB

--------------------------------
SUGGESTED CITATIONS FOR THIS RUN
--------------------------------

Below you find a list of papers that are relevant to this ORCA run
We neither can nor want to force you to cite these papers, but we appreciate if you do
You receive ORCA, which is the product of decades of hard work by many enthusiastic individuals, for free
The only thing we kindly ask in return is that you cite our papers,
We deeply appreciate it, if you show your appreciation for ORCA by not just citing the generic ORCA reference.

Please note that relegating all ORCA citations to the supporting information does *not* help us.
SI sections are not indexed - citations you put there will not count into any citation statistics
But we need these citations in order to attract the funding resources that allow us to do what we are doing

Therefore, if you are a happy ORCA user, please consider citing a few of the papers listed below in the main body of your paper

In addition to the list printed below, the program has created the file sp.bibtex that contains the list in bibtex format
You can import this file easily into all common literature databanks and citation aid programs


List of essential papers. We consider these as the minimum necessary citations

  1. Neese,F.
     Software update: the ORCA program system, version 5.0
     WIRES Comput. Molec. Sci., 2022 12(1)e1606
     doi.org/10.1002/wcms.1606

List of papers to cite with high priority. The work reported in these papers was absolutely
necessary for this run to complete.
Our perspective: the developers of density functionals and basis sets usually get cited in chemistry papers
Good! But without the algorithms to do something with them, the functionals or basis sets would not do anything.
Hence, in our opinion, the algorithm design and method developments papers are equally worthy of getting cited

  1. Neese,F.
     An improvement of the resolution of the identity approximation for the formation of the Coulomb matrix
     J. Comp. Chem., 2003 24(14)1740-1747
     doi.org/10.1002/jcc.10318
  2. Neese,F.
     The SHARK Integral Generation and Digestion System
     J. Comp. Chem., 2022  1-16
     doi.org/10.1002/jcc.26942
  3. Caldeweyher,E.; Bannwarth,C.; Grimme,S.
     Extension of the D3 dispersion coefficient model
     J. Chem. Phys., 2017 147 034112-XXXX
     doi.org/10.1063/1.4993215
  4. Caldeweyher,E.; Ehlert,S.; Hansen,A.; Neugebauer,H.; Spicher,S.; Bannwarth,C.; Grimme,S.
     A generally applicable atomic-charge dependent London dispersion correction
     J. Chem. Phys., 2019 150 154122-XXXX
     doi.org/10.1063/1.5090222
  5. Caldeweyher,E.; Mewes,J.; Ehlert,S.; Grimme,S.
     Extension and evaluation of the D4 London-dispersion model for periodic systems
     Phys. Chem. Chem. Phys., 2020 22(16)8499-8512
     doi.org/10.1039/D0CP00502A

List of suggested additional citations. These are papers that are important in the 'surrounding' of 
of this run, or papers that preceded the highly important papers. If you like your results we are grateful for a citation.

  1. Neese,F.
     The ORCA program system
     WIRES Comput. Molec. Sci., 2012 2(1)73-78
     doi.org/10.1002/wcms.81
  2. Neese,F.
     Software update: the ORCA program system, version 4.0
     WIRES Comput. Molec. Sci., 2018 8(1)1-6
     doi.org/10.1002/wcms.1327
  3. Neese,F.; Wennmohs,F.; Becker,U.; Riplinger,C.
     The ORCA quantum chemistry program package
     J. Chem. Phys., 2020 152 Art. No. L224108
     doi.org/10.1063/5.0004608

List of optional additional citations

  1. Neese,F.
     Approximate second-order SCF convergence for spin unrestricted wavefunctions
     Chem. Phys. Lett., 2000 325(1-3)93-98
     doi.org/10.1016/s0009-2614(00)00662-x

Timings for individual modules:

Sum of individual times          ...       16.462 sec (=   0.274 min)
Startup calculation              ...        1.395 sec (=   0.023 min)   8.5 %
SCF iterations                   ...       14.948 sec (=   0.249 min)  90.8 %
Property calculations            ...        0.120 sec (=   0.002 min)   0.7 %
                             ****ORCA TERMINATED NORMALLY****
TOTAL RUN TIME: 0 days 0 hours 0 minutes 17 seconds 439 msec
