
                                 *****************
                                 * O   R   C   A *
                                 *****************

                                            #,                                       
                                            ###                                      
                                            ####                                     
                                            #####                                    
                                            ######                                   
                                           ########,                                 
                                     ,,################,,,,,                         
                               ,,#################################,,                 
                          ,,##########################################,,             
                       ,#########################################, ''#####,          
                    ,#############################################,,   '####,        
                  ,##################################################,,,,####,       
                ,###########''''           ''''###############################       
              ,#####''   ,,,,##########,,,,          '''####'''          '####       
            ,##' ,,,,###########################,,,                        '##       
           ' ,,###''''                  '''############,,,                           
         ,,##''                                '''############,,,,        ,,,,,,###''
      ,#''                                            '''#######################'''  
     '                                                          ''''####''''         
             ,#######,   #######,   ,#######,      ##                                
            ,#'     '#,  ##    ##  ,#'     '#,    #''#        ,####,   ,####,        
            ##       ##  ##   ,#'  ##            #'  '#       #'       #'  '#        
            ##       ##  #######   ##           ,######,      #####,   #    #        
            '#,     ,#'  ##    ##  '#,     ,#' ,#      #,     #,   #   #,  ,#        
             '#######'   ##     ##  '#######'  #'      '#     '####' # '####'        



                #########################################################
                #                        -***-                          #
                #          Department of theory and spectroscopy        #
                #                                                       #
                #                      Frank Neese                      #
                #                                                       #
                #     Directorship, Architecture, Infrastructure        #
                #                    SHARK, DRIVERS                     #
                #        Core code/Algorithms in most modules           #
                #                                                       #
                #        Max Planck Institute fuer Kohlenforschung      #
                #                Kaiser Wilhelm Platz 1                 #
                #                 D-45470 Muelheim/Ruhr                 #
                #                      Germany                          #
                #                                                       #
                #                  All rights reserved                  #
                #                        -***-                          #
                #########################################################


                         Program Version 6.0.0  -   RELEASE  -


 With contributions from (in alphabetic order):
   Daniel Aravena         : Magnetic Suceptibility
   Michael Atanasov       : Ab Initio Ligand Field Theory (pilot matlab implementation)
   Alexander A. Auer      : GIAO ZORA, VPT2 properties, NMR spectrum
   Ute Becker             : All parallelization in ORCA, NUMFREQ, NUMCALC
   Giovanni Bistoni       : ED, misc. LED, open-shell LED, HFLD
   Martin Brehm           : Molecular dynamics
   Dmytro Bykov           : pre 5.0 version of the SCF Hessian
   Marcos Casanova-Páez   : Triplet and SCS-CIS(D). UHF-(DLPNO)-IP/EA/STEOM-CCSD. UHF-CVS-IP/STEOM-CCSD
   Vijay G. Chilkuri      : MRCI spin determinant printing, contributions to CSF-ICE
   Pauline Colinet        : FMM embedding
   Dipayan Datta          : RHF DLPNO-CCSD density
   Achintya Kumar Dutta   : EOM-CC, STEOM-CC
   Nicolas Foglia         : Exact transition moments, OPA infrastructure, MCD improvements
   Dmitry Ganyushin       : Spin-Orbit,Spin-Spin,Magnetic field MRCI
   Miquel Garcia          : C-PCM and meta-GGA Hessian, CCSD/C-PCM, Gaussian charge scheme
   Tiago L. C. Gouveia    : GS-ROHF, GS-ROCIS
   Yang Guo               : DLPNO-NEVPT2, F12-NEVPT2, CIM, IAO-localization
   Andreas Hansen         : Spin unrestricted coupled pair/coupled cluster methods
   Ingolf Harden          : AUTO-CI MPn and infrastructure 
   Benjamin Helmich-Paris : MC-RPA, TRAH-(SCF,CASSCF), AVAS, COSX integrals, SCF dyn. polar.
   Lee Huntington         : MR-EOM, pCC
   Robert Izsak           : Overlap fitted RIJCOSX, COSX-SCS-MP3, EOM
   Riya Kayal             : Wick's Theorem for AUTO-CI, AUTO-CI UHF-CCSDT
   Emily Kempfer          : AUTO-CI, RHF CISDT and CCSDT
   Christian Kollmar      : KDIIS, OOCD, Brueckner-CCSD(T), CCSD density, CASPT2, CASPT2-K, improved NEVPT2
   Axel Koslowski         : Symmetry handling
   Simone Kossmann        : Meta GGA functionals, TD-DFT gradient, OOMP2, (MP2 Hessian; deprecated post 5.0)
   Lucas Lang             : DCDCAS
   Marvin Lechner         : AUTO-CI (C++ implementation), FIC-MRCC
   Spencer Leger          : CASSCF response
   Dagmar Lenk            : GEPOL surface, SMD, ORCA-2-JSON
   Dimitrios Liakos       : Extrapolation schemes; Compound Job, initial MDCI parallelization
   Dimitrios Manganas     : Further ROCIS development; embedding schemes. LFT, Crystal Embedding
   Dimitrios Pantazis     : SARC Basis sets
   Anastasios Papadopoulos: AUTO-CI, single reference methods and gradients
   Taras Petrenko         : pre 6.0 DFT Hessian and TD-DFT gradient, (ASA, deprecated), ECA, 1-Electron XAS/XES, NRVS
   Peter Pinski           : DLPNO-MP2, DLPNO-MP2 Gradient
   Christoph Reimann      : Effective Core Potentials
   Marius Retegan         : Local ZFS, SOC
   Christoph Riplinger    : Optimizer, TS searches, QM/MM, DLPNO-CCSD(T), (RO)-DLPNO pert. Triples
   Michael Roemelt        : Original ROCIS implementation
   Masaaki Saitow         : Open-shell DLPNO-CCSD energy and density
   Barbara Sandhoefer     : DKH picture change effects
   Kantharuban Sivalingam : CASSCF convergence/infrastructure, NEVPT2 and variants, FIC-MRCI
   Bernardo de Souza      : ESD, SOC TD-DFT
   Georgi Stoychev        : AutoAux, RI-MP2 NMR, DLPNO-MP2 response, X2C
   Van Anh Tran           : RI-MP2 g-tensors
   Willem Van den Heuvel  : Paramagnetic NMR
   Zikuan Wang            : NOTCH, Electric field optimization 
   Frank Wennmohs         : Technical directorship and infrastructure
   Hang Xu                : AUTO-CI-Response properties 


 We gratefully acknowledge several colleagues who have allowed us to
 interface, adapt or use parts of their codes:
   Stefan Grimme, W. Hujo, H. Kruse, P. Pracht,  : VdW corrections, initial TS optimization,
                  C. Bannwarth, S. Ehlert,         DFT functionals, gCP, sTDA/sTD-DF
                  L. Wittmann, M. Mueller
   Ed Valeev, F. Pavosevic, A. Kumar             : LibInt (2-el integral package), F12 methods
   Garnet Chan, S. Sharma, J. Yang, R. Olivares  : DMRG
   Ulf Ekstrom                                   : XCFun DFT Library
   Mihaly Kallay                                 : mrcc  (arbitrary order and MRCC methods)
   Frank Weinhold                                : gennbo (NPA and NBO analysis)
   Simon Mueller                                 : openCOSMO-RS
   Christopher J. Cramer and Donald G. Truhlar   : smd solvation model
   Lars Goerigk                                  : TD-DFT with DH, B97 family of functionals
   V. Asgeirsson, H. Jonsson                     : NEB implementation
   FAccTs GmbH                                   : IRC, NEB, NEB-TS, DLPNO-Multilevel, CI-OPT
                                                   MM, QMMM, 2- and 3-layer-ONIOM, Crystal-QMMM,
                                                   LR-CPCM, SF, NACMEs, symmetry and pop. for TD-DFT,
                                                   nearIR, NL-DFT gradient (VV10), updates on ESD,
                                                   ML-optimized integration grids, MBIS, APM,
                                                   GOAT, DOCKER, SOLVATOR, interface openCOSMO-RS
   S Lehtola, MJT Oliveira, MAL Marques          : LibXC Library
   Liviu Ungur et al                             : ANISO software


 Your calculation uses the libint2 library for the computation of 2-el integrals
 For citations please refer to: http://libint.valeyev.net

 Your ORCA version has been built with support for libXC version: 6.2.2
 For citations please refer to: https://libxc.gitlab.io

 This ORCA versions uses:
   CBLAS   interface :  Fast vector & matrix operations
   LAPACKE interface :  Fast linear algebra routines
   SCALAPACK package :  Parallel linear algebra routines
   Shared memory     :  Shared parallel matrices
   BLAS/LAPACK       :  OpenBLAS 0.3.27  USE64BITINT DYNAMIC_ARCH NO_AFFINITY SkylakeX SINGLE_THREADED
        Core in use  :  SkylakeX
   Copyright (c) 2011-2014, The OpenBLAS Project


Your calculation utilizes the geometrical counterpoise correction gCP
Please cite in your paper:
H.Kruse, S. Grimme J.Chem.Phys., 136, (2012), 154101 
   

Your calculation utilizes the atom-pairwise dispersion correction
based on EEQ partial charges (D4)


================================================================================

----- Orbital basis set information -----
Your calculation utilizes the basis: def2-mTZVPP
   Stefan Grimme, Andreas Hansen, Sebastian Ehlert, and Jan-Michael Mewes 
   J. Chem. Phys. 154, 064103 (2021). DOI: 10.1063/5.0040021

----- AuxJ basis set information -----
Your calculation utilizes the auxiliary basis: def2/J
   F. Weigend, Phys. Chem. Chem. Phys. 8, 1057 (2006).

================================================================================
                                        WARNINGS
                       Please study these warnings very carefully!
================================================================================

Using LibXC functional ID 497 : Re-regularized SCAN exchange by Furness et al
[ 1]  J. W. Furness, A. D. Kaplan, J. Ning, J. P. Perdew, and J. Sun.,  J. Phys. Chem. Lett. 11, 8208-8215 (2020)
[ 2]  J. W. Furness, A. D. Kaplan, J. Ning, J. P. Perdew, and J. Sun.,  J. Phys. Chem. Lett. 11, 9248-9248 (2020)
Using LibXC functional ID 498 : Re-regularized SCAN correlation by Furness et al
[ 1]  J. W. Furness, A. D. Kaplan, J. Ning, J. P. Perdew, and J. Sun.,  J. Phys. Chem. Lett. 11, 8208-8215 (2020)
[ 2]  J. W. Furness, A. D. Kaplan, J. Ning, J. P. Perdew, and J. Sun.,  J. Phys. Chem. Lett. 11, 9248-9248 (2020)
Using LibXC functional ID 497 : Re-regularized SCAN exchange by Furness et al
[ 1]  J. W. Furness, A. D. Kaplan, J. Ning, J. P. Perdew, and J. Sun.,  J. Phys. Chem. Lett. 11, 8208-8215 (2020)
[ 2]  J. W. Furness, A. D. Kaplan, J. Ning, J. P. Perdew, and J. Sun.,  J. Phys. Chem. Lett. 11, 9248-9248 (2020)
Using LibXC functional ID 498 : Re-regularized SCAN correlation by Furness et al
[ 1]  J. W. Furness, A. D. Kaplan, J. Ning, J. P. Perdew, and J. Sun.,  J. Phys. Chem. Lett. 11, 8208-8215 (2020)
[ 2]  J. W. Furness, A. D. Kaplan, J. Ning, J. P. Perdew, and J. Sun.,  J. Phys. Chem. Lett. 11, 9248-9248 (2020)

================================================================================
                                       INPUT FILE
================================================================================
NAME = sp_gas.inp
|  1> ! r2scan-3c def2/J RI DEFGRID2 scfconv6 printgap
|  2> %output
|  3>     printlevel normal
|  4> end
|  5> * xyz 0 1
|  6> C -3.1511334331 -0.2093615884 0.14013575
|  7> C -1.7208111809 0.0988177396 0.5632705988
|  8> C -0.8434724513 0.3974742965 -0.6495101574
|  9> O 0.4762508711 0.7941531993 -0.2529428477
| 10> C 1.3840603035 -0.15075127 -0.029881125
| 11> O 1.1661586734 -1.3363484553 -0.1733752168
| 12> C 2.6901884338 0.434808671 0.4147380624
| 13> H -3.7595097884 -0.4260524457 1.0132368692
| 14> H -3.5842965986 0.6387332608 -0.383477728
| 15> H -3.1740533763 -1.0726131402 -0.5200890803
| 16> H -1.2977359851 -0.7538735415 1.0992539656
| 17> H -1.7033773049 0.963155332 1.2295436956
| 18> H -0.7691956043 -0.4852049549 -1.2926761521
| 19> H -1.2326776239 1.2446864472 -1.215737823
| 20> H 2.7201883223 1.4932743967 0.1806952371
| 21> H 3.5073551543 -0.0978121554 -0.0622901647
| 22> H 2.7792691922 0.2981313749 1.4903539704
| 23> *
| 24> 
| 25>                          ****END OF INPUT****
================================================================================

                       ****************************
                       * Single Point Calculation *
                       ****************************

---------------------------------
CARTESIAN COORDINATES (ANGSTROEM)
---------------------------------
  C     -3.151133   -0.209362    0.140136
  C     -1.720811    0.098818    0.563271
  C     -0.843472    0.397474   -0.649510
  O      0.476251    0.794153   -0.252943
  C      1.384060   -0.150751   -0.029881
  O      1.166159   -1.336348   -0.173375
  C      2.690188    0.434809    0.414738
  H     -3.759510   -0.426052    1.013237
  H     -3.584297    0.638733   -0.383478
  H     -3.174053   -1.072613   -0.520089
  H     -1.297736   -0.753874    1.099254
  H     -1.703377    0.963155    1.229544
  H     -0.769196   -0.485205   -1.292676
  H     -1.232678    1.244686   -1.215738
  H      2.720188    1.493274    0.180695
  H      3.507355   -0.097812   -0.062290
  H      2.779269    0.298131    1.490354

----------------------------
CARTESIAN COORDINATES (A.U.)
----------------------------
  NO LB      ZA    FRAG     MASS         X           Y           Z
   0 C     6.0000    0    12.011   -5.954779   -0.395636    0.264818
   1 C     6.0000    0    12.011   -3.251862    0.186738    1.064427
   2 C     6.0000    0    12.011   -1.593932    0.751118   -1.227396
   3 O     8.0000    0    15.999    0.899984    1.500732   -0.477993
   4 C     6.0000    0    12.011    2.615495   -0.284879   -0.056467
   5 O     8.0000    0    15.999    2.203721   -2.525333   -0.327632
   6 C     6.0000    0    12.011    5.083719    0.821669    0.783741
   7 H     1.0000    0     1.008   -7.104444   -0.805122    1.914740
   8 H     1.0000    0     1.008   -6.773339    1.207031   -0.724668
   9 H     1.0000    0     1.008   -5.998092   -2.026945   -0.982826
  10 H     1.0000    0     1.008   -2.452366   -1.424615    2.077289
  11 H     1.0000    0     1.008   -3.218917    1.820100    2.323501
  12 H     1.0000    0     1.008   -1.453569   -0.916904   -2.442804
  13 H     1.0000    0     1.008   -2.329423    2.352117   -2.297412
  14 H     1.0000    0     1.008    5.140411    2.821880    0.341465
  15 H     1.0000    0     1.008    6.627941   -0.184838   -0.117711
  16 H     1.0000    0     1.008    5.252058    0.563387    2.816361

--------------------------------
INTERNAL COORDINATES (ANGSTROEM)
--------------------------------
 C      0   0   0     0.000000000000     0.00000000     0.00000000
 C      1   0   0     1.523101882217     0.00000000     0.00000000
 C      2   1   0     1.526353873794   111.01626202     0.00000000
 O      3   2   1     1.433976788772   111.30836225   175.30073585
 C      4   3   2     1.329179804914   118.57602576    86.23788687
 O      5   4   3     1.213965551642   123.49409129     1.75415610
 C      5   4   3     1.498845341945   111.54446199   181.74666495
 H      1   2   3     1.085993683994   110.06585055   179.60750706
 H      1   2   3     1.086768731391   110.50268399   299.61159794
 H      1   2   3     1.087025938985   110.43949574    59.77500309
 H      2   1   3     1.092407072318   110.00278513   239.69340089
 H      2   1   3     1.091468393124   110.17064603   120.48806481
 H      3   2   1     1.094669908050   110.36906864   296.28185948
 H      3   2   1     1.090808353453   111.05908392    58.82113461
 H      7   5   4     1.084447200128   109.96222911   343.11417341
 H      7   5   4     1.085818734070   109.50317519   220.53150849
 H      7   5   4     1.087918032909   108.39458240   102.78236267

---------------------------
INTERNAL COORDINATES (A.U.)
---------------------------
 C      0   0   0     0.000000000000     0.00000000     0.00000000
 C      1   0   0     2.878245431451     0.00000000     0.00000000
 C      2   1   0     2.884390804920   111.01626202     0.00000000
 O      3   2   1     2.709823413178   111.30836225   175.30073585
 C      4   3   2     2.511785814026   118.57602576    86.23788687
 O      5   4   3     2.294062428618   123.49409129     1.75415610
 C      5   4   3     2.832407213379   111.54446199   181.74666495
 H      1   2   3     2.052230645916   110.06585055   179.60750706
 H      1   2   3     2.053695273238   110.50268399   299.61159794
 H      1   2   3     2.054181325150   110.43949574    59.77500309
 H      2   1   3     2.064350193441   110.00278513   239.69340089
 H      2   1   3     2.062576346835   110.17064603   120.48806481
 H      3   2   1     2.068626333260   110.36906864   296.28185948
 H      3   2   1     2.061329052620   111.05908392    58.82113461
 H      7   5   4     2.049308214940   109.96222911   343.11417341
 H      7   5   4     2.051900038474   109.50317519   220.53150849
 H      7   5   4     2.055867138353   108.39458240   102.78236267

---------------------
BASIS SET INFORMATION
---------------------
There are 3 groups of distinct atoms

 Group   1 Type C   : 11s6p1d contracted to 5s3p1d pattern {62111/411/1}
 Group   2 Type O   : 11s6p2d contracted to 5s3p2d pattern {62111/411/11}
 Group   3 Type H   : 4s1p contracted to 2s1p pattern {31/1}

Atom   0C    basis set group =>   1
Atom   1C    basis set group =>   1
Atom   2C    basis set group =>   1
Atom   3O    basis set group =>   2
Atom   4C    basis set group =>   1
Atom   5O    basis set group =>   2
Atom   6C    basis set group =>   1
Atom   7H    basis set group =>   3
Atom   8H    basis set group =>   3
Atom   9H    basis set group =>   3
Atom  10H    basis set group =>   3
Atom  11H    basis set group =>   3
Atom  12H    basis set group =>   3
Atom  13H    basis set group =>   3
Atom  14H    basis set group =>   3
Atom  15H    basis set group =>   3
Atom  16H    basis set group =>   3
---------------------------------
AUXILIARY/J BASIS SET INFORMATION
---------------------------------
There are 3 groups of distinct atoms

 Group   1 Type C   : 12s5p4d2f1g contracted to 6s4p3d1f1g pattern {711111/2111/211/2/1}
 Group   2 Type O   : 12s5p4d2f1g contracted to 6s4p3d1f1g pattern {711111/2111/211/2/1}
 Group   3 Type H   : 5s2p1d contracted to 3s1p1d pattern {311/2/1}

Atom   0C    basis set group =>   1
Atom   1C    basis set group =>   1
Atom   2C    basis set group =>   1
Atom   3O    basis set group =>   2
Atom   4C    basis set group =>   1
Atom   5O    basis set group =>   2
Atom   6C    basis set group =>   1
Atom   7H    basis set group =>   3
Atom   8H    basis set group =>   3
Atom   9H    basis set group =>   3
Atom  10H    basis set group =>   3
Atom  11H    basis set group =>   3
Atom  12H    basis set group =>   3
Atom  13H    basis set group =>   3
Atom  14H    basis set group =>   3
Atom  15H    basis set group =>   3
Atom  16H    basis set group =>   3

Checking for AutoStart:
The File: sp_gas.gbw exists
Trying to determine its content:
     ... Fine, the file contains calculation information
     ... Fine, the calculation information was read
     ... Fine, the file contains a basis set
     ... Fine, the basis set was read
     ... Fine, the file contains a geometry
     ... Fine, the geometry was read
     ... Fine, the file contains a set of orbitals
     ... Fine, the orbitals can be read
     => possible old guess file was deleted
     => GBW file was renamed to GES file
     => GES file is set as startup file
     => Guess is set to MORead
     ... now leaving AutoStart

------------------------------------------------------------------------------
                             ORCA STARTUP CALCULATIONS
                           -- RI-GTO INTEGRALS CHOSEN --
------------------------------------------------------------------------------
------------------------------------------------------------------------------
                   ___                                                        
                  /   \      - P O W E R E D   B Y -                         
                 /     \                                                     
                 |  |  |   _    _      __       _____    __    __             
                 |  |  |  | |  | |    /  \     |  _  \  |  |  /  |          
                  \  \/   | |  | |   /    \    | | | |  |  | /  /          
                 / \  \   | |__| |  /  /\  \   | |_| |  |  |/  /          
                |  |  |   |  __  | /  /__\  \  |    /   |      \           
                |  |  |   | |  | | |   __   |  |    \   |  |\   \          
                \     /   | |  | | |  |  |  |  | |\  \  |  | \   \       
                 \___/    |_|  |_| |__|  |__|  |_| \__\ |__|  \__/        
                                                                              
                      - O R C A' S   B I G   F R I E N D -                    
                                      &                                       
                       - I N T E G R A L  F E E D E R -                       
                                                                              
 v1 FN, 2020, v2 2021, v3 2022-2024                                           
------------------------------------------------------------------------------


----------------------
SHARK INTEGRAL PACKAGE
----------------------

Number of atoms                             ...     17
Number of basis functions                   ...    193
Number of shells                            ...     95
Maximum angular momentum                    ...      2
Integral batch strategy                     ... SHARK/LIBINT Hybrid
RI-J (if used) integral strategy            ... SPLIT-RIJ (Revised 2003 algorithm where possible)
Printlevel                                  ...      1
Contraction scheme used                     ... SEGMENTED contraction
Prescreening option                         ... SCHWARTZ
   Thresh                                   ... 1.000e-10
   Tcut                                     ... 1.000e-11
   Tpresel                                  ... 1.000e-11 
Coulomb Range Separation                    ... NOT USED
Exchange Range Separation                   ... NOT USED
Multipole approximations                    ... NOT USED
Finite Nucleus Model                        ... NOT USED
CABS basis                                  ... NOT available
Auxiliary Coulomb fitting basis             ... AVAILABLE
   # of basis functions in Aux-J            ...    453
   # of shells in Aux-J                     ...    155
   Maximum angular momentum in Aux-J        ...      4
Auxiliary J/K fitting basis                 ... NOT available
Auxiliary Correlation fitting basis         ... NOT available
Auxiliary 'external' fitting basis          ... NOT available

Checking pre-screening integrals            ... done (  0.0 sec) Dimension = 95
Check shell pair data                       ... done (  0.0 sec)
Shell pair information
Shell pair cut-off parameter TPreSel        ...   1.0e-11
Total number of shell pairs                 ...      4560
Shell pairs after pre-screening             ...      4041
Total number of primitive shell pairs       ...     16115
Primitive shell pairs kept                  ...     10288
          la=0 lb=0:   1344 shell pairs
          la=1 lb=0:   1507 shell pairs
          la=1 lb=1:    441 shell pairs
          la=2 lb=0:    451 shell pairs
          la=2 lb=1:    255 shell pairs
          la=2 lb=2:     43 shell pairs

Calculating one electron integrals          ... done (  0.0 sec)
Calculating RI/J V-Matrix + Cholesky decomp.... done (  0.1 sec)
Calculating Nuclear repulsion               ... done (  0.0 sec) ENN=    314.006047010028 Eh

Diagonalization of the overlap matrix:
Smallest eigenvalue                        ... 2.528e-04
Time for diagonalization                   ...    0.004 sec
Threshold for overlap eigenvalues          ... 1.000e-07
Number of eigenvalues below threshold      ... 0
Time for construction of square roots      ...    0.021 sec
Total time needed                          ...    0.034 sec

-------------------
DFT GRID GENERATION
-------------------

General Integration Accuracy     IntAcc      ... 4.388
Radial Grid Type                 RadialGrid  ... OptM3 with GC (2021)
Angular Grid (max. ang.)         AngularGrid ... 4 (Lebedev-302)
Angular grid pruning method      GridPruning ... 4 (adaptive)
Weight generation scheme         WeightScheme... mBecke (2022)
Basis function cutoff            BFCut       ... 1.0000e-10
Integration weight cutoff        WCut        ... 1.0000e-14
Partially contracted basis set               ... off
Rotationally invariant grid construction     ... off
Angular grids for H and He will be reduced by one unit
Diffuse basis detected: some atoms will have their outermost
                        angular grid increased by 1.

Total number of grid points                  ...    75097
Total number of batches                      ...     1182
Average number of points per batch           ...       63
Average number of grid points per atom       ...     4417
Initializing property integral containers    ... done (  0.1 sec)

SHARK setup successfully completed in   1.2 seconds

Maximum memory used throughout the entire STARTUP-calculation: 33.5 MB
-------------------------------------------------------------------------------
                                 ORCA GUESS
                   Start orbitals & Density for SCF / CASSCF
-------------------------------------------------------------------------------

------------
SCF SETTINGS
------------
Hamiltonian:
 Density Functional     Method          .... DFT(GTOs)
  Functional kind                       .... Exchange
  Functional name                       .... Re-regularized SCAN exchange by Furness et al
  Functional family                     .... MGGA
  Functional refs                              
    [ 0] J. W. Furness, A. D. Kaplan, J. Ning, J. P. Perdew, and J. Sun.,  J. Phys. Chem. Lett. 11, 8208-8215 (2020), doi: 10.1021/acs.jpclett.0c02405
    [ 1] J. W. Furness, A. D. Kaplan, J. Ning, J. P. Perdew, and J. Sun.,  J. Phys. Chem. Lett. 11, 9248-9248 (2020), doi: 10.1021/acs.jpclett.0c03077
  Functional external parameters        .... 6
    Parameter  0 _c1        =  6.670000e-01 : c1 parameter        
    Parameter  1 _c2        =  8.000000e-01 : c2 parameter        
    Parameter  2 _d         =  1.240000e+00 : d parameter         
    Parameter  3 _k1        =  6.500000e-02 : k1 parameter        
    Parameter  4 _eta       =  1.000000e-03 : eta parameter       
    Parameter  5 _dp2       =  3.610000e-01 : dp2 parameter       
  Functional kind                       .... Correlation
  Functional name                       .... Re-regularized SCAN correlation by Furness et al
  Functional family                     .... MGGA
  Functional refs                              
    [ 0] J. W. Furness, A. D. Kaplan, J. Ning, J. P. Perdew, and J. Sun.,  J. Phys. Chem. Lett. 11, 8208-8215 (2020), doi: 10.1021/acs.jpclett.0c02405
    [ 1] J. W. Furness, A. D. Kaplan, J. Ning, J. P. Perdew, and J. Sun.,  J. Phys. Chem. Lett. 11, 9248-9248 (2020), doi: 10.1021/acs.jpclett.0c03077
  Functional external parameters        .... 1
    Parameter  0 _eta       =  1.000000e-03 : Regularization parameter
 Gradients option       PostSCFGGA      .... off
 RI-approximation to the Coulomb term is turned on
   Number of AuxJ basis functions       .... 453


General Settings:
 Integral files         IntName         .... sp_gas
 Hartree-Fock type      HFTyp           .... RHF
 Total Charge           Charge          ....    0
 Multiplicity           Mult            ....    1
 Number of Electrons    NEL             ....   56
 Basis Dimension        Dim             ....  193
 Nuclear Repulsion      ENuc            ....    314.0060470100 Eh

Convergence Acceleration:
 AO-DIIS                CNVDIIS         .... on
   Start iteration      DIISMaxIt       ....    12
   Startup error        DIISStart       ....  0.200000
   # of expansion vecs  DIISMaxEq       ....     5
   Bias factor          DIISBfac        ....   1.050
   Max. coefficient     DIISMaxC        ....  10.000
 MO-DIIS                CNVKDIIS        .... off
 Trust-Rad. Augm. Hess. CNVTRAH         .... auto
   Auto Start mean grad. ratio tolernc. ....  1.125000
   Auto Start start iteration           ....     1
   Auto Start num. interpolation iter.  ....    10
   Max. Number of Micro iterations      ....    24
   Max. Number of Macro iterations      .... Maxiter - #DIIS iter
   Number of Davidson start vectors     ....     2
   Converg. threshold    (grad. norm)   ....   3.330e-04
   Grad. Scal. Fac. for Micro threshold ....   0.100
   Minimum threshold for Micro iter.    ....   1.000e-02
   NR start threshold (gradient norm)   ....   1.000e-04
   Initial trust radius                 ....   0.400
   Minimum AH scaling param. (alpha)    ....   1.000
   Maximum AH scaling param. (alpha)    .... 1000.000
   Quad. conv. algorithm                .... NR
   White noise on init. David. guess    .... on
   Maximum white noise                  ....   0.010
   Pseudo random numbers                .... off
   Inactive MOs                         .... canonical
   Orbital update algorithm             .... Taylor
   Preconditioner                       .... Diag
   Full preconditioner red. dimension   ....   250
   COSX micro iterations for RIJONX calc.... off
 SOSCF                  CNVSOSCF        .... on
   Start iteration      SOSCFMaxIt      ....   150
   Startup grad/error   SOSCFStart      ....  0.003300
   Hessian update       SOSCFHessUp     .... L-BFGS
 Level Shifting         CNVShift        .... on
   Level shift para.    LevelShift      ....    0.2500
   Turn off err/grad.   ShiftErr        ....    0.0010
 Zerner damping         CNVZerner       .... off
 Static damping         CNVDamp         .... on
   Fraction old density DampFac         ....    0.7000
   Max. Damping (<1)    DampMax         ....    0.9800
   Min. Damping (>=0)   DampMin         ....    0.0000
   Turn off err/grad.   DampErr         ....    0.1000

SCF Procedure:
 Maximum # iterations   MaxIter         ....   125
 SCF integral mode      SCFMode         .... Direct
   Integral package                     .... SHARK and LIBINT hybrid scheme
 Reset frequency        DirectResetFreq ....    20
 Integral Threshold     Thresh          ....  1.000e-10 Eh
 Primitive CutOff       TCut            ....  1.000e-11 Eh

Convergence Tolerance:
 Convergence Check Mode ConvCheckMode   .... Total+1el-Energy
 Convergence forced     ConvForced      .... 0
 Energy Change          TolE            ....  1.000e-06 Eh
 1-El. energy change                    ....  1.000e-03 Eh
 Orbital Gradient       TolG            ....  3.330e-04
 Orbital Rotation angle TolX            ....  3.330e-04
 DIIS Error             TolErr          ....  1.000e-06

---------------------
INITIAL GUESS: MOREAD
---------------------
Guess MOs are being read from file: sp_gas.ges
Input Geometry matches current geometry (good)
Atom 0: N(Shells)= 9 and 6 - projection required
Input basis set needs projection
NBasis(read)= 118
NBasis(calc)= 193
Basis set overlap was calculated
Using GuessMode=FMatrix for the initial guess
C*T matrix was formed
Effective Fockian was calculated
Effective Fockian was diagonalized
Initial density was built
                      ------------------
                      INITIAL GUESS DONE (   0.0 sec)
                      ------------------
             **** ENERGY FILE WAS UPDATED (sp_gas.en.tmp) ****
Finished Guess after   0.3 sec
Maximum memory used throughout the entire GUESS-calculation: 12.9 MB

-------------------------------------------------------------------------------------------
                                      ORCA LEAN-SCF
                              memory conserving SCF solver
-------------------------------------------------------------------------------------------

----------------------------------------D-I-I-S--------------------------------------------
Iteration    Energy (Eh)           Delta-E    RMSDP     MaxDP     DIISErr   Damp  Time(sec)
-------------------------------------------------------------------------------------------
               ***  Starting incremental Fock matrix formation  ***
    1    -346.7682023898630632     0.00e+00  3.43e-03  1.23e-01  6.26e-01  0.700   2.4
    2    -346.8202670329708326    -5.21e-02  2.83e-03  9.22e-02  4.40e-01  0.700   2.2
    3    -346.8570723684216546    -3.68e-02  2.09e-03  6.56e-02  3.09e-01  0.700   2.1
    4    -346.8829133004207961    -2.58e-02  1.50e-03  4.64e-02  2.16e-01  0.700   2.1
                               ***Turning on AO-DIIS***
    5    -346.9010387778206450    -1.81e-02  1.09e-03  3.34e-02  1.51e-01  0.700   2.1
    6    -346.9137437860333648    -1.27e-02  7.71e-04  2.36e-02  1.06e-01  0.700   2.1
    7    -346.9226499851248491    -8.91e-03  5.44e-04  1.66e-02  7.41e-02  0.700   2.0
    8    -346.9288897419995692    -6.24e-03  1.28e-03  3.88e-02  5.19e-02  0.000   2.0
                              *** Initializing SOSCF ***
---------------------------------------S-O-S-C-F--------------------------------------
Iteration    Energy (Eh)           Delta-E    RMSDP     MaxDP     MaxGrad    Time(sec)
--------------------------------------------------------------------------------------
    9    -346.9434677850557591    -1.46e-02  7.94e-06  2.36e-04  8.52e-05     2.1
               *** Restarting incremental Fock matrix formation ***
   10    -346.9434678363481908    -5.13e-08  4.82e-06  9.46e-05  3.85e-05     2.3
                  *** Gradient check signals convergence ***

               *****************************************************
               *                     SUCCESS                       *
               *           SCF CONVERGED AFTER  10 CYCLES          *
               *****************************************************

             **** ENERGY FILE WAS UPDATED (sp_gas.en.tmp) ****

----------------
TOTAL SCF ENERGY
----------------

Total Energy       :       -346.94346783634819 Eh           -9440.81172 eV

Components:
Nuclear Repulsion  :        314.00604701002783 Eh            8544.53894 eV
Electronic Energy  :       -660.94951484637602 Eh          -17985.35066 eV
One Electron Energy:      -1093.30643301269242 Eh          -29750.38052 eV
Two Electron Energy:        432.35691816631640 Eh           11765.02987 eV

Virial components:
Potential Energy   :       -692.47383781688723 Eh          -18843.17110 eV
Kinetic Energy     :        345.53036998053909 Eh            9402.35937 eV
Virial Ratio       :          2.00408964877932

DFT components:
N(Alpha)           :       28.000013677309 electrons
N(Beta)            :       28.000013677309 electrons
N(Total)           :       56.000027354619 electrons
E(X)               :      -46.156521112597 Eh       
E(C)               :       -1.787930796948 Eh       
E(XC)              :      -47.944451909544 Eh       

---------------
SCF CONVERGENCE
---------------

  Last Energy change         ...    5.1292e-08  Tolerance :   1.0000e-06
  Last MAX-Density change    ...    9.4609e-05  Tolerance :   1.0000e-05
  Last RMS-Density change    ...    4.8241e-06  Tolerance :   1.0000e-06
  Last DIIS Error            ...    8.5173e-05  Tolerance :   1.0000e-06
  Last Orbital Gradient      ...    3.8533e-05  Tolerance :   3.3300e-04
  Last Orbital Rotation      ...    1.5160e-04  Tolerance :   3.3300e-04


----------------
ORBITAL ENERGIES
----------------

  NO   OCC          E(Eh)            E(eV) 
   0   2.0000     -18.996831      -516.9301 
   1   2.0000     -18.927095      -515.0324 
   2   2.0000     -10.155117      -276.3348 
   3   2.0000     -10.087967      -274.5075 
   4   2.0000     -10.038690      -273.1666 
   5   2.0000     -10.034741      -273.0592 
   6   2.0000     -10.026627      -272.8384 
   7   2.0000      -1.071369       -29.1534 
   8   2.0000      -0.975016       -26.5315 
   9   2.0000      -0.767503       -20.8848 
  10   2.0000      -0.722942       -19.6722 
  11   2.0000      -0.661444       -17.9988 
  12   2.0000      -0.581762       -15.8305 
  13   2.0000      -0.526818       -14.3354 
  14   2.0000      -0.471963       -12.8428 
  15   2.0000      -0.448229       -12.1969 
  16   2.0000      -0.441730       -12.0201 
  17   2.0000      -0.421730       -11.4758 
  18   2.0000      -0.400677       -10.9030 
  19   2.0000      -0.380324       -10.3491 
  20   2.0000      -0.376746       -10.2518 
  21   2.0000      -0.361046        -9.8246 
  22   2.0000      -0.340309        -9.2603 
  23   2.0000      -0.325839        -8.8665 
  24   2.0000      -0.318678        -8.6717 
  25   2.0000      -0.303059        -8.2466 
  26   2.0000      -0.267996        -7.2925 
  27   2.0000      -0.236254        -6.4288 
  28   0.0000      -0.013752        -0.3742 
  29   0.0000       0.071681         1.9505 
  30   0.0000       0.087829         2.3900 
  31   0.0000       0.121040         3.2937 
  32   0.0000       0.127267         3.4631 
  33   0.0000       0.132760         3.6126 
  34   0.0000       0.138422         3.7666 
  35   0.0000       0.152464         4.1488 
  36   0.0000       0.158133         4.3030 
  37   0.0000       0.167146         4.5483 
  38   0.0000       0.184856         5.0302 
*Only the first 10 virtual orbitals were printed.

                    ********************************
                    * MULLIKEN POPULATION ANALYSIS *
                    ********************************

-----------------------
MULLIKEN ATOMIC CHARGES
-----------------------
   0 C :   -0.470825
   1 C :   -0.223981
   2 C :   -0.186575
   3 O :   -0.172796
   4 C :    0.423785
   5 O :   -0.427874
   6 C :   -0.521866
   7 H :    0.151971
   8 H :    0.140924
   9 H :    0.148496
  10 H :    0.160183
  11 H :    0.142647
  12 H :    0.170420
  13 H :    0.147616
  14 H :    0.170761
  15 H :    0.173436
  16 H :    0.173679
Sum of atomic charges:    0.0000000

--------------------------------
MULLIKEN REDUCED ORBITAL CHARGES
--------------------------------
  0 C s       :     3.319455  s :     3.319455
      pz      :     1.087909  p :     3.124458
      px      :     0.963175
      py      :     1.073373
      dz2     :     0.002426  d :     0.026913
      dxz     :     0.006850
      dyz     :     0.006587
      dx2y2   :     0.006358
      dxy     :     0.004692

  1 C s       :     3.183912  s :     3.183912
      pz      :     0.974207  p :     3.004090
      px      :     0.932474
      py      :     1.097410
      dz2     :     0.003805  d :     0.035979
      dxz     :     0.009436
      dyz     :     0.009575
      dx2y2   :     0.007477
      dxy     :     0.005685

  2 C s       :     3.299643  s :     3.299643
      pz      :     0.996885  p :     2.833317
      px      :     0.744478
      py      :     1.091955
      dz2     :     0.006708  d :     0.053615
      dxz     :     0.013682
      dyz     :     0.011008
      dx2y2   :     0.012964
      dxy     :     0.009252

  3 O s       :     3.702511  s :     3.702511
      pz      :     1.690868  p :     4.443181
      px      :     1.158759
      py      :     1.593554
      dz2     :     0.003274  d :     0.027105
      dxz     :     0.004209
      dyz     :     0.007961
      dx2y2   :     0.007189
      dxy     :     0.004473

  4 C s       :     3.111991  s :     3.111991
      pz      :     0.774827  p :     2.338936
      px      :     0.807975
      py      :     0.756133
      dz2     :     0.007812  d :     0.125288
      dxz     :     0.009109
      dyz     :     0.027919
      dx2y2   :     0.030449
      dxy     :     0.050000

  5 O s       :     3.838505  s :     3.838505
      pz      :     1.474127  p :     4.568671
      px      :     1.767288
      py      :     1.327256
      dz2     :     0.003759  d :     0.020698
      dxz     :     0.000565
      dyz     :     0.007643
      dx2y2   :     0.008428
      dxy     :     0.000302

  6 C s       :     3.335455  s :     3.335455
      pz      :     1.097927  p :     3.161844
      px      :     0.985870
      py      :     1.078047
      dz2     :     0.006381  d :     0.024566
      dxz     :     0.003876
      dyz     :     0.002245
      dx2y2   :     0.006430
      dxy     :     0.005633

  7 H s       :     0.829640  s :     0.829640
      pz      :     0.008297  p :     0.018389
      px      :     0.006055
      py      :     0.004036

  8 H s       :     0.840794  s :     0.840794
      pz      :     0.005437  p :     0.018282
      px      :     0.004876
      py      :     0.007969

  9 H s       :     0.833244  s :     0.833244
      pz      :     0.006391  p :     0.018260
      px      :     0.003576
      py      :     0.008293

 10 H s       :     0.821931  s :     0.821931
      pz      :     0.005171  p :     0.017886
      px      :     0.004577
      py      :     0.008139

 11 H s       :     0.839525  s :     0.839525
      pz      :     0.006370  p :     0.017827
      px      :     0.003371
      py      :     0.008086

 12 H s       :     0.811708  s :     0.811708
      pz      :     0.006091  p :     0.017872
      px      :     0.002418
      py      :     0.009363

 13 H s       :     0.834975  s :     0.834975
      pz      :     0.005888  p :     0.017409
      px      :     0.003489
      py      :     0.008032

 14 H s       :     0.811051  s :     0.811051
      pz      :     0.003914  p :     0.018188
      px      :     0.003300
      py      :     0.010974

 15 H s       :     0.808268  s :     0.808268
      pz      :     0.005110  p :     0.018296
      px      :     0.007920
      py      :     0.005266

 16 H s       :     0.807704  s :     0.807704
      pz      :     0.010979  p :     0.018617
      px      :     0.003802
      py      :     0.003836


------------------------
MULLIKEN OVERLAP CHARGES
------------------------
B(  0-C ,  1-C ) :   0.4497 B(  0-C ,  2-C ) :  -0.1378 B(  0-C ,  7-H ) :   0.7976 
B(  0-C ,  8-H ) :   0.8374 B(  0-C ,  9-H ) :   0.8513 B(  0-C , 10-H ) :  -0.0521 
B(  1-C ,  2-C ) :   0.4992 B(  1-C ,  3-O ) :  -0.1010 B(  1-C ,  7-H ) :  -0.0701 
B(  1-C ,  8-H ) :  -0.0778 B(  1-C ,  9-H ) :  -0.0976 B(  1-C , 10-H ) :   0.8528 
B(  1-C , 11-H ) :   0.8108 B(  1-C , 12-H ) :  -0.1148 B(  1-C , 13-H ) :  -0.0556 
B(  2-C ,  3-O ) :   0.3435 B(  2-C ,  4-C ) :  -0.2072 B(  2-C , 10-H ) :  -0.0976 
B(  2-C , 11-H ) :  -0.0602 B(  2-C , 12-H ) :   0.8879 B(  2-C , 13-H ) :   0.7925 
B(  3-O ,  4-C ) :   0.3669 B(  3-O ,  5-O ) :  -0.2306 B(  3-O ,  6-C ) :  -0.0824 
B(  3-O , 12-H ) :  -0.0647 B(  3-O , 13-H ) :  -0.0898 B(  4-C ,  5-O ) :   0.9979 
B(  4-C ,  6-C ) :   0.5288 B(  4-C , 14-H ) :  -0.1195 B(  4-C , 15-H ) :  -0.0705 
B(  5-O ,  6-C ) :  -0.1161 B(  6-C , 14-H ) :   0.8497 B(  6-C , 15-H ) :   0.8308 
B(  6-C , 16-H ) :   0.7667 B(  8-H ,  9-H ) :  -0.0533 B( 12-H , 13-H ) :  -0.0517 



                     *******************************
                     * LOEWDIN POPULATION ANALYSIS *
                     *******************************

----------------------
LOEWDIN ATOMIC CHARGES
----------------------
   0 C :   -0.417023
   1 C :   -0.285571
   2 C :    0.033099
   3 O :   -0.598453
   4 C :    0.354258
   5 O :   -0.436471
   6 C :   -0.335632
   7 H :    0.155229
   8 H :    0.150496
   9 H :    0.153668
  10 H :    0.165477
  11 H :    0.157186
  12 H :    0.190454
  13 H :    0.180029
  14 H :    0.174513
  15 H :    0.177711
  16 H :    0.181030

-------------------------------
LOEWDIN REDUCED ORBITAL CHARGES
-------------------------------
  0 C s       :     2.970319  s :     2.970319
      pz      :     1.152842  p :     3.383483
      px      :     1.078043
      py      :     1.152598
      dz2     :     0.005557  d :     0.063221
      dxz     :     0.015846
      dyz     :     0.016599
      dx2y2   :     0.015079
      dxy     :     0.010139

  1 C s       :     2.938454  s :     2.938454
      pz      :     1.086634  p :     3.269497
      px      :     1.042536
      py      :     1.140327
      dz2     :     0.008127  d :     0.077620
      dxz     :     0.019564
      dyz     :     0.022103
      dx2y2   :     0.016906
      dxy     :     0.010920

  2 C s       :     2.868708  s :     2.868708
      pz      :     1.048645  p :     2.977623
      px      :     0.840692
      py      :     1.088286
      dz2     :     0.012494  d :     0.120571
      dxz     :     0.031375
      dyz     :     0.025740
      dx2y2   :     0.029612
      dxy     :     0.021349

  3 O s       :     3.464262  s :     3.464262
      pz      :     1.677473  p :     4.659882
      px      :     1.359077
      py      :     1.623333
      dz2     :     0.055301  d :     0.474309
      dxz     :     0.104675
      dyz     :     0.053324
      dx2y2   :     0.135050
      dxy     :     0.125959

  4 C s       :     2.737603  s :     2.737603
      pz      :     0.736469  p :     2.636018
      px      :     0.926032
      py      :     0.973518
      dz2     :     0.019540  d :     0.272121
      dxz     :     0.016472
      dyz     :     0.053800
      dx2y2   :     0.070674
      dxy     :     0.111634

  5 O s       :     3.550846  s :     3.550846
      pz      :     1.460934  p :     4.670784
      px      :     1.725314
      py      :     1.484537
      dz2     :     0.026391  d :     0.214841
      dxz     :     0.013366
      dyz     :     0.045065
      dx2y2   :     0.060618
      dxy     :     0.069401

  6 C s       :     2.957068  s :     2.957068
      pz      :     1.140607  p :     3.321704
      px      :     1.054632
      py      :     1.126465
      dz2     :     0.015654  d :     0.056860
      dxz     :     0.008329
      dyz     :     0.004830
      dx2y2   :     0.015479
      dxy     :     0.012569

  7 H s       :     0.801096  s :     0.801096
      pz      :     0.020579  p :     0.043675
      px      :     0.014210
      py      :     0.008886

  8 H s       :     0.806027  s :     0.806027
      pz      :     0.012640  p :     0.043477
      px      :     0.011131
      py      :     0.019706

  9 H s       :     0.802805  s :     0.802805
      pz      :     0.015246  p :     0.043527
      px      :     0.007916
      py      :     0.020366

 10 H s       :     0.790829  s :     0.790829
      pz      :     0.012558  p :     0.043695
      px      :     0.010902
      py      :     0.020235

 11 H s       :     0.799746  s :     0.799746
      pz      :     0.015320  p :     0.043068
      px      :     0.007671
      py      :     0.020077

 12 H s       :     0.766432  s :     0.766432
      pz      :     0.014435  p :     0.043114
      px      :     0.006133
      py      :     0.022546

 13 H s       :     0.780033  s :     0.780033
      pz      :     0.013124  p :     0.039938
      px      :     0.006842
      py      :     0.019972

 14 H s       :     0.781156  s :     0.781156
      pz      :     0.009067  p :     0.044331
      px      :     0.007242
      py      :     0.028022

 15 H s       :     0.778326  s :     0.778326
      pz      :     0.012182  p :     0.043963
      px      :     0.019025
      py      :     0.012756

 16 H s       :     0.774415  s :     0.774415
      pz      :     0.027506  p :     0.044555
      px      :     0.008561
      py      :     0.008488


---------------------------------
LOEWDIN BOND ORDERS (THRESH 0.050000)
---------------------------------
B(  0-C ,  1-C ) :   1.1388 B(  0-C ,  2-C ) :   0.0812 B(  0-C ,  7-H ) :   0.9270 
B(  0-C ,  8-H ) :   0.9284 B(  0-C ,  9-H ) :   0.9277 B(  1-C ,  2-C ) :   1.0330 
B(  1-C ,  3-O ) :   0.1575 B(  1-C , 10-H ) :   0.8862 B(  1-C , 11-H ) :   0.8910 
B(  2-C ,  3-O ) :   1.3146 B(  2-C ,  4-C ) :   0.0827 B(  2-C ,  5-O ) :   0.0655 
B(  2-C , 12-H ) :   0.8137 B(  2-C , 13-H ) :   0.8285 B(  3-O ,  4-C ) :   1.4476 
B(  3-O ,  5-O ) :   0.4616 B(  3-O ,  6-C ) :   0.1859 B(  3-O , 12-H ) :   0.0911 
B(  3-O , 13-H ) :   0.0959 B(  4-C ,  5-O ) :   2.1768 B(  4-C ,  6-C ) :   0.9740 
B(  5-O ,  6-C ) :   0.1857 B(  6-C , 14-H ) :   0.9023 B(  6-C , 15-H ) :   0.9044 
B(  6-C , 16-H ) :   0.8976 

------------------------------------------
LOEWDIN REDUCED ORBITAL POPULATIONS PER MO
-------------------------------------------
THRESHOLD FOR PRINTING IS 0.1%%
                      0         1         2         3         4         5   
                 -18.99683 -18.92710 -10.15512 -10.08797 -10.03869 -10.03474
                   2.00000   2.00000   2.00000   2.00000   2.00000   2.00000
                  --------  --------  --------  --------  --------  --------
 1 C  s               0.0       0.0       0.0       0.0       0.0      99.7
 2 C  s               0.0       0.0       0.0      99.4       0.0       0.0
 3 O  s              99.9       0.0       0.0       0.0       0.0       0.0
 3 O  dx2y2           0.0       0.0       0.0       0.1       0.0       0.0
 3 O  dxy             0.0       0.0       0.2       0.1       0.0       0.0
 4 C  s               0.0       0.0      98.9       0.0       0.0       0.0
 5 O  s               0.0      99.9       0.0       0.0       0.0       0.0
 5 O  py              0.0       0.0       0.2       0.0       0.0       0.0
 5 O  dx2y2           0.0       0.0       0.2       0.0       0.0       0.0
 6 C  s               0.0       0.0       0.0       0.0      99.7       0.0

                      6         7         8         9        10        11   
                 -10.02663  -1.07137  -0.97502  -0.76750  -0.72294  -0.66144
                   2.00000   2.00000   2.00000   2.00000   2.00000   2.00000
                  --------  --------  --------  --------  --------  --------
 0 C  s              99.7       0.0       0.0      12.1       9.2      15.0
 0 C  px              0.0       0.0       0.0       2.6       0.5       0.4
 0 C  py              0.0       0.0       0.0       0.1       0.0       0.0
 1 C  s               0.0       0.3       0.1      22.5       6.1       0.1
 1 C  pz              0.0       0.2       0.1       1.5       0.0       0.9
 1 C  px              0.1       0.6       0.1       0.1       1.7       7.3
 1 C  py              0.0       0.0       0.0       0.0       0.1       0.7
 1 C  dxz             0.0       0.0       0.0       0.0       0.0       0.2
 2 C  s               0.0       4.5       1.8      14.8       0.3      12.8
 2 C  pz              0.0       0.5       0.2       1.2       0.5       0.3
 2 C  px              0.0       5.0       1.2       2.2       2.2       0.1
 2 C  py              0.0       0.1       0.4       0.1       0.4       0.2
 2 C  dx2y2           0.0       0.2       0.1       0.0       0.0       0.0
 3 O  s               0.0      42.3      15.7       0.5       0.8       0.8
 3 O  pz              0.0       0.0       0.0       0.4       0.6       0.9
 3 O  px              0.0       0.1       0.6       9.1       4.6      10.6
 3 O  py              0.0       2.8       0.5       0.1       0.1       0.6
 3 O  dz2             0.0       0.4       0.2       0.1       0.1       0.2
 3 O  dxz             0.0       0.1       0.0       0.0       0.0       0.5
 3 O  dx2y2           0.0       0.0       0.7       0.2       0.7       1.2
 3 O  dxy             0.0       0.3       0.6       0.7       0.2       0.3
 4 C  s               0.0      16.2       4.3       2.0       4.5       0.5
 4 C  pz              0.0       0.4       0.0       0.1       1.1       0.4
 4 C  px              0.0       4.4       0.7       1.2       7.5       4.5
 4 C  py              0.0       0.2      22.4       3.2       3.9       0.9
 4 C  dz2             0.0       0.5       0.1       0.0       0.0       0.0
 4 C  dyz             0.0       0.0       0.1       0.0       0.0       0.0
 4 C  dx2y2           0.0       0.2       0.9       0.0       0.1       0.1
 4 C  dxy             0.0       0.3       0.7       0.0       0.0       0.3
 5 O  s               0.0      11.6      42.8       0.8       1.6       0.0
 5 O  px              0.0       0.0       0.2       0.1       0.4       0.2
 5 O  py              0.0       3.0       3.5       0.2       0.5       0.0
 5 O  dz2             0.0       0.4       0.0       0.0       0.1       0.0
 5 O  dyz             0.0       0.0       0.0       0.0       0.1       0.0
 5 O  dx2y2           0.0       0.9       0.1       0.2       0.1       0.2
 5 O  dxy             0.0       0.1       0.2       0.2       0.6       0.1
 6 C  s               0.0       1.1       0.3       3.7      26.7      10.9
 6 C  pz              0.0       0.2       0.0       0.0       0.0       0.1
 6 C  px              0.0       1.6       0.1       0.4       0.5       0.7
 6 C  py              0.0       0.2       0.4       0.0       0.0       0.0
 7 H  s               0.0       0.0       0.0       1.6       1.6       3.8
 7 H  pz              0.0       0.0       0.0       0.1       0.1       0.2
 8 H  s               0.0       0.0       0.0       1.7       1.6       3.3
 8 H  py              0.0       0.0       0.0       0.1       0.1       0.2
 9 H  s               0.0       0.0       0.0       1.7       1.5       3.3
 9 H  pz              0.0       0.0       0.0       0.1       0.1       0.1
 9 H  py              0.0       0.0       0.0       0.1       0.1       0.2
10 H  s               0.0       0.0       0.0       3.0       1.0       0.0
10 H  py              0.0       0.0       0.0       0.2       0.0       0.0
11 H  s               0.0       0.0       0.0       3.1       1.0       0.0
11 H  pz              0.0       0.0       0.0       0.1       0.0       0.0
11 H  py              0.0       0.0       0.0       0.2       0.1       0.0
12 H  s               0.0       0.3       0.1       2.1       0.0       2.7
12 H  py              0.0       0.0       0.0       0.1       0.0       0.2
13 H  s               0.0       0.3       0.2       2.5       0.1       3.8
13 H  py              0.0       0.0       0.0       0.1       0.0       0.2
14 H  s               0.0       0.1       0.0       0.7       5.1       2.1
14 H  py              0.0       0.0       0.0       0.1       0.4       0.2
15 H  s               0.0       0.1       0.0       0.5       4.8       3.1
15 H  px              0.0       0.0       0.0       0.0       0.3       0.1
16 H  s               0.0       0.1       0.0       0.5       5.1       3.0
16 H  pz              0.0       0.0       0.0       0.0       0.4       0.2

                     12        13        14        15        16        17   
                  -0.58176  -0.52682  -0.47196  -0.44823  -0.44173  -0.42173
                   2.00000   2.00000   2.00000   2.00000   2.00000   2.00000
                  --------  --------  --------  --------  --------  --------
 0 C  s              11.3       0.0       0.0       0.1       0.0       0.0
 0 C  pz              1.0       2.1       0.0       0.0       4.0       0.1
 0 C  px              6.8       0.0       0.0       1.2       0.1       1.3
 0 C  py              0.2       0.0       2.8       0.7       0.3      16.9
 0 C  dx2y2           0.1       0.0       0.0       0.0       0.0       0.0
 1 C  s              13.7       1.7       0.0       0.3       0.5       0.0
 1 C  pz              2.1       8.5       0.1       0.0       5.1       0.2
 1 C  px              4.1       0.0       0.6       1.4       0.7       0.9
 1 C  py              0.0       0.3       8.3       0.4       1.0      19.2
 2 C  s               0.4       6.5       0.1       0.2       0.1       0.0
 2 C  pz              4.9       9.8       0.1       3.1       1.7       0.0
 2 C  px              3.5       5.7       3.3       2.1       3.8       0.2
 2 C  py              1.9       4.8      15.8       0.5       0.1       1.4
 2 C  dz2             0.2       0.0       0.0       0.0       0.0       0.0
 2 C  dxz             0.2       0.0       0.0       0.1       0.0       0.0
 2 C  dx2y2           0.0       0.2       0.0       0.0       0.0       0.0
 2 C  dxy             0.0       0.3       0.0       0.0       0.0       0.2
 3 O  s               0.7       4.3       0.7       0.6       0.1       1.1
 3 O  pz              2.9       0.4       0.1       3.7      18.8       0.1
 3 O  px              6.7       9.7       0.5       9.5       0.3       0.1
 3 O  py              1.8       7.5      12.0       4.3       0.4       9.7
 3 O  dz2             0.0       0.1       0.0       0.0       0.0       0.0
 3 O  dxz             0.4       0.9       0.1       0.0       0.2       0.1
 3 O  dyz             0.1       0.1       0.1       0.3       0.3       0.0
 3 O  dx2y2           0.0       0.2       1.1       0.1       0.0       0.1
 3 O  dxy             0.1       0.1       1.5       0.1       0.2       0.1
 4 C  s               1.1       3.2       1.6       2.5       0.7       0.2
 4 C  pz              0.1       0.5       0.5       7.5      12.1       1.1
 4 C  px              0.8       0.3       7.7       0.3       3.7       6.5
 4 C  py              1.1       1.7       0.2       2.6       0.7       0.7
 4 C  dx2y2           0.0       0.0       0.1       0.3       0.1       0.0
 5 O  s               0.4       1.9       0.1       9.2       3.3       1.6
 5 O  pz              0.0       0.1       0.4       5.4       3.8       0.3
 5 O  px              0.1       0.1       5.9       1.2       3.2       1.7
 5 O  py              0.3       2.4       0.2      16.7       7.1       6.9
 5 O  dz2             0.0       0.1       0.0       0.1       0.2       0.0
 5 O  dyz             0.0       0.0       0.1       0.6       0.7       0.0
 5 O  dx2y2           0.1       0.2       0.1       0.1       0.0       0.2
 5 O  dxy             0.0       0.0       1.0       0.1       0.3       0.3
 6 C  s               1.3       1.0       1.7       0.3       0.0       0.2
 6 C  pz              0.1       0.6       1.6       2.5      11.3       0.5
 6 C  px              1.1       2.6       9.3       1.9       0.6       6.0
 6 C  py              0.0       0.0       2.3       9.8       3.0       0.5
 6 C  dxy             0.0       0.0       0.1       0.1       0.0       0.1
 7 H  s               4.4       0.1       0.1       0.3       0.6       0.0
 7 H  pz              0.3       0.0       0.0       0.0       0.0       0.0
 8 H  s               4.8       0.1       0.4       0.0       1.0       4.5
 8 H  py              0.3       0.0       0.0       0.0       0.0       0.0
 9 H  s               4.6       0.3       0.5       0.5       0.2       4.2
 9 H  pz              0.1       0.0       0.0       0.0       0.0       0.1
 9 H  py              0.2       0.0       0.0       0.0       0.0       0.0
10 H  s               5.8       1.3       1.9       0.0       1.5       4.4
10 H  pz              0.1       0.0       0.0       0.0       0.0       0.1
10 H  py              0.3       0.1       0.0       0.0       0.0       0.0
11 H  s               5.3       3.0       1.2       0.4       0.5       4.5
11 H  pz              0.1       0.0       0.1       0.0       0.0       0.1
11 H  py              0.3       0.1       0.0       0.0       0.1       0.0
12 H  s               0.2       9.7       2.6       0.1       0.2       0.4
12 H  pz              0.0       0.1       0.1       0.0       0.0       0.0
12 H  py              0.0       0.4       0.0       0.0       0.0       0.0
13 H  s               0.9       3.6       5.5       1.3       0.2       0.3
13 H  pz              0.0       0.0       0.1       0.0       0.0       0.0
13 H  py              0.0       0.3       0.1       0.0       0.0       0.0
14 H  s               0.3       0.4       2.0       5.8       0.5       0.4
14 H  py              0.0       0.0       0.1       0.2       0.0       0.0
15 H  s               0.8       1.0       1.7       0.2       2.5       1.0
15 H  px              0.0       0.0       0.0       0.0       0.1       0.0
16 H  s               0.6       1.0       2.3       0.6       3.6       0.6

                     18        19        20        21        22        23   
                  -0.40068  -0.38032  -0.37675  -0.36105  -0.34031  -0.32584
                   2.00000   2.00000   2.00000   2.00000   2.00000   2.00000
                  --------  --------  --------  --------  --------  --------
 0 C  s               0.0       0.1       0.0       0.0       0.3       0.2
 0 C  pz             19.0       1.0       1.7       7.1       8.2      10.0
 0 C  px              0.5       7.4       9.2       1.8       9.4       2.9
 0 C  py              0.0       0.5       5.8       9.9       8.9       3.8
 0 C  dxz             0.0       0.1       0.0       0.2       0.0       0.2
 0 C  dyz             0.0       0.0       0.1       0.0       0.1       0.0
 0 C  dx2y2           0.0       0.0       0.0       0.0       0.3       0.1
 0 C  dxy             0.0       0.0       0.0       0.0       0.0       0.2
 1 C  s               0.1       0.3       0.2       0.3       0.1       0.4
 1 C  pz              9.6       0.7       0.6       0.1       4.4      11.9
 1 C  px              1.9       4.2       2.0       0.7      12.7       2.7
 1 C  py              0.1       0.2       1.7       0.0       3.2       3.3
 1 C  dxz             0.0       0.1       0.1       0.1       0.0       0.2
 1 C  dx2y2           0.0       0.0       0.0       0.0       0.3       0.2
 1 C  dxy             0.0       0.0       0.1       0.1       0.0       0.3
 2 C  s               0.2       0.3       0.3       0.4       0.0       0.6
 2 C  pz             11.6       1.4       0.3       0.2       0.3       8.0
 2 C  px              0.8       0.5       1.2       4.3       0.0       0.2
 2 C  py              0.2       0.0       6.7       5.5       2.3       0.0
 2 C  dyz             0.0       0.0       0.1       0.1       0.1       0.0
 2 C  dx2y2           0.1       0.0       0.0       0.1       0.0       0.2
 2 C  dxy             0.1       0.0       0.0       0.2       0.1       0.0
 3 O  s               0.2       1.3       0.1       0.0       0.7       0.2
 3 O  pz              2.0       1.6       1.3       9.4       2.7       0.1
 3 O  px              0.3       2.7       0.2       1.5       0.9       1.2
 3 O  py              0.0       0.2       1.9       0.2       1.6       3.5
 3 O  dz2             0.2       0.4       0.0       0.0       0.0       0.3
 3 O  dxz             1.3       0.0       0.0       0.0       0.3       0.2
 3 O  dyz             0.0       0.0       0.1       0.3       0.0       0.2
 3 O  dx2y2           0.0       0.6       0.2       0.0       0.3       0.4
 3 O  dxy             0.0       0.1       0.4       0.2       0.2       0.0
 4 C  s               0.0       0.3       0.3       0.0       0.0       0.0
 4 C  pz              2.1       0.1       0.6       0.5       3.5       2.4
 4 C  px              0.3       0.4       2.9       3.3       0.1       0.7
 4 C  py              0.1       0.6       5.1       0.1       0.8       0.5
 4 C  dxz             0.1       0.1       0.0       0.1       0.1       0.0
 4 C  dyz             0.0       0.1       0.0       0.0       0.1       0.2
 4 C  dx2y2           0.0       0.0       0.3       0.0       0.0       0.1
 4 C  dxy             0.0       0.4       0.0       0.1       0.0       0.0
 5 O  s               0.0       0.2       3.0       0.0       0.2       0.2
 5 O  pz              1.1       0.0       0.1       1.3       8.2      10.8
 5 O  px              0.6       0.1       0.0       1.4       0.0       1.1
 5 O  py              0.1       1.9      19.6       0.0       0.6       0.8
 5 O  dz2             0.1       0.0       0.1       0.0       0.0       0.0
 5 O  dyz             0.1       0.0       0.0       0.1       0.2       0.1
 5 O  dx2y2           0.0       0.0       0.2       0.0       0.0       0.1
 6 C  pz             13.5       8.2       3.5       4.7       4.5       1.4
 6 C  px              4.0       5.6       0.8      10.0       0.4       1.5
 6 C  py              0.4      26.3       7.9       2.3       0.5       0.0
 6 C  dz2             0.1       0.2       0.0       0.0       0.1       0.0
 6 C  dxz             0.0       0.0       0.0       0.1       0.0       0.0
 6 C  dx2y2           0.0       0.2       0.2       0.0       0.0       0.0
 6 C  dxy             0.0       0.1       0.0       0.1       0.0       0.0
 7 H  s               6.3       3.2       2.6       6.7       0.0       3.2
 7 H  px              0.1       0.0       0.0       0.0       0.1       0.1
 8 H  s               1.6       0.0       2.9       5.3       0.0       8.9
 8 H  pz              0.0       0.0       0.1       0.0       0.1       0.0
 8 H  px              0.0       0.1       0.0       0.1       0.1       0.0
 9 H  s               2.7       0.0       2.9       0.4       9.5       0.0
 9 H  pz              0.0       0.0       0.0       0.1       0.0       0.1
 9 H  px              0.0       0.1       0.1       0.0       0.1       0.0
 9 H  py              0.1       0.0       0.0       0.0       0.1       0.0
10 H  s               0.7       0.1       0.1       0.0       0.6      10.3
10 H  py              0.0       0.0       0.0       0.0       0.1       0.1
11 H  s               1.1       0.1       0.6       0.0       4.8       0.4
11 H  px              0.0       0.0       0.0       0.0       0.1       0.0
12 H  s               1.9       0.0       2.9       0.6       0.9       1.0
12 H  py              0.1       0.0       0.0       0.0       0.0       0.0
13 H  s               2.3       0.0       2.3       6.9       0.9       1.3
14 H  s               0.0      15.5       3.0       0.5       1.0       0.1
14 H  py              0.0       0.3       0.0       0.0       0.0       0.0
15 H  s               5.6       4.5       1.3       9.5       0.7       1.3
15 H  pz              0.0       0.3       0.0       0.0       0.0       0.0
16 H  s               5.2       6.8       1.3       1.7       3.1       0.9
16 H  pz              0.1       0.2       0.0       0.0       0.0       0.0
16 H  py              0.0       0.1       0.1       0.0       0.0       0.0

                     24        25        26        27        28        29   
                  -0.31868  -0.30306  -0.26800  -0.23625  -0.01375   0.07168
                   2.00000   2.00000   2.00000   2.00000   0.00000   0.00000
                  --------  --------  --------  --------  --------  --------
 0 C  s               0.1       0.0       0.0       0.0       0.0       9.8
 0 C  pz              2.6       0.1       0.4       0.0       0.0       0.7
 0 C  px              7.9       0.0       1.6       0.1       0.1       0.6
 0 C  py              3.0       4.2       0.3       0.0       0.0       0.0
 0 C  dxz             0.1       0.0       0.1       0.0       0.0       0.1
 0 C  dyz             0.3       0.2       0.0       0.0       0.0       0.0
 1 C  s               0.0       0.0       0.4       0.0       0.4       0.4
 1 C  pz              2.3       0.7       5.1       0.2       0.3       0.8
 1 C  px              7.0       0.3       2.8       0.1       0.2       5.2
 1 C  py              3.1      14.0       1.2       0.1       0.1       0.4
 1 C  dz2             0.0       0.0       0.0       0.0       0.0       0.8
 1 C  dxz             0.1       0.0       0.1       0.0       0.0       0.1
 1 C  dyz             0.2       0.8       0.0       0.0       0.0       0.0
 1 C  dx2y2           0.0       0.0       0.0       0.0       0.0       0.5
 1 C  dxy             0.1       0.0       0.0       0.0       0.0       0.1
 2 C  s               0.2       0.1       0.2       0.1       0.0       0.3
 2 C  pz              1.7       1.3       4.9       0.5       0.0       0.5
 2 C  px              4.4       0.1       0.8       0.5       0.1      23.8
 2 C  py              1.4      12.0       0.3       0.1       0.0       2.7
 2 C  dz2             0.1       0.0       0.0       0.0       0.0       0.6
 2 C  dxz             0.1       0.0       0.7       0.0       0.3       0.7
 2 C  dyz             0.0       0.9       0.1       0.0       0.0       0.0
 2 C  dx2y2           0.1       0.1       0.1       0.0       0.0       1.1
 2 C  dxy             0.1       0.0       0.0       0.0       0.0       0.3
 3 O  s               1.4       1.5       0.0       0.3       0.0       8.0
 3 O  pz              0.7       1.8      35.9       0.3       9.2       0.5
 3 O  px              3.4       0.9       4.3       0.5       0.8       2.0
 3 O  py             14.2      12.0       0.1       7.7       0.0       1.1
 3 O  dz2             0.1       0.1       0.1       0.3       0.8       1.2
 3 O  dxz             0.6       0.1       0.4       0.0       3.5       0.1
 3 O  dyz             0.1       0.5       0.4       0.0       1.7       0.0
 3 O  dx2y2           0.1       0.5       0.1       0.3       0.4       0.1
 3 O  dxy             0.2       0.5       0.2       0.1       0.2       0.0
 4 C  s               0.1       0.2       0.0       0.2       0.0       6.3
 4 C  pz              3.3       0.2       0.3       0.1      36.8       0.3
 4 C  px              0.0       0.0       0.1       0.9       3.5       0.3
 4 C  py              1.6       1.7       0.0       0.6       0.1       0.5
 4 C  dz2             0.0       0.0       0.0       0.0       0.2       0.7
 4 C  dxz             0.0       0.1       0.1       0.1       0.4       0.5
 4 C  dyz             0.2       0.0       1.8       0.2       0.5       0.0
 4 C  dx2y2           0.5       0.3       0.1       0.3       0.0       0.1
 4 C  dxy             0.1       0.0       0.0       3.5       0.1       0.0
 5 O  s               0.5       0.3       0.0       0.0       0.0       0.7
 5 O  pz              6.9       0.4      30.3       3.7      21.5       0.1
 5 O  px              1.8       0.7       0.8      66.6       1.8       0.3
 5 O  py              5.1       2.3       0.2       2.5       0.1       0.1
 5 O  dz2             0.0       0.0       0.0       0.0       0.3       0.9
 5 O  dxz             0.0       0.2       0.0       0.0       0.3       0.1
 5 O  dyz             0.1       0.0       0.1       0.0       5.3       0.1
 5 O  dx2y2           0.1       0.1       0.0       0.0       0.0       0.0
 5 O  dxy             0.0       0.0       0.0       0.6       0.6       0.3
 6 C  s               0.2       0.1       0.0       0.6       0.0      11.7
 6 C  pz              3.7       0.0       0.0       0.7       0.1       0.0
 6 C  px              1.3       0.8       0.1       3.4       0.0       0.1
 6 C  py              0.0       0.1       0.0       2.5       0.0       0.2
 6 C  dz2             0.1       0.0       0.0       0.0       1.1       0.0
 6 C  dxz             0.0       0.0       0.0       0.0       0.9       0.0
 7 H  s               4.1       0.0       1.4       0.0       0.0       2.1
 7 H  pz              0.0       0.0       0.0       0.0       0.0       0.6
 7 H  px              0.0       0.0       0.0       0.0       0.0       0.3
 8 H  s               1.7       2.3       0.2       0.0       0.0       0.4
 8 H  pz              0.1       0.0       0.0       0.0       0.0       0.2
 8 H  py              0.0       0.0       0.0       0.0       0.0       0.2
 9 H  s               4.5       3.3       0.0       0.0       0.0       0.5
 9 H  pz              0.0       0.0       0.0       0.0       0.0       0.4
 9 H  py              0.0       0.0       0.0       0.0       0.0       0.1
10 H  s               1.6       6.6       0.6       0.1       0.0       0.1
10 H  px              0.0       0.0       0.1       0.0       0.0       0.1
11 H  s               3.6      10.4       0.0       0.0       0.0       0.4
11 H  pz              0.0       0.1       0.1       0.0       0.0       0.2
11 H  px              0.1       0.0       0.0       0.0       0.0       0.2
12 H  s               0.1      11.1       1.2       0.1       0.2       0.2
12 H  px              0.1       0.0       0.0       0.0       0.0       1.1
13 H  s               0.2       4.9       1.4       0.2       0.1       0.1
13 H  px              0.0       0.0       0.0       0.0       0.0       0.7
13 H  py              0.0       0.0       0.0       0.0       0.0       0.3
14 H  s               0.2       0.0       0.0       1.2       0.4       0.5
14 H  py              0.0       0.0       0.0       0.0       0.0       0.3
15 H  s               0.0       0.2       0.0       0.1       2.2       1.6
15 H  pz              0.0       0.0       0.0       0.0       0.0       0.2
15 H  px              0.0       0.0       0.0       0.1       0.1       0.4
16 H  s               2.2       0.0       0.0       0.0       4.3       1.7
16 H  pz              0.0       0.0       0.0       0.0       0.2       0.6
16 H  px              0.0       0.0       0.0       0.1       0.1       0.0

                     30        31        32        33        34        35   
                   0.08783   0.12104   0.12727   0.13276   0.13842   0.15246
                   0.00000   0.00000   0.00000   0.00000   0.00000   0.00000
                  --------  --------  --------  --------  --------  --------
 0 C  s               8.6       4.1       4.0       8.3       1.5       0.1
 0 C  pz              0.0       3.2       4.3       2.9       0.7       0.8
 0 C  px              2.2       0.6       0.4      14.5       7.5       2.2
 0 C  py              0.1       1.4       0.5       3.5       4.3       3.0
 0 C  dz2             0.1       0.1       0.0       0.2       0.0       0.3
 0 C  dxz             0.6       0.1       0.2       0.5       0.3       0.3
 0 C  dyz             0.0       0.0       0.1       0.1       0.0       0.1
 0 C  dx2y2           0.1       0.4       0.3       0.1       0.4       0.0
 0 C  dxy             0.0       0.4       0.1       0.2       0.0       0.1
 1 C  s              10.7       1.6       5.8       9.0       2.4       0.2
 1 C  pz              3.1       5.7       2.4       7.4       0.3       1.4
 1 C  px              0.5       1.8       5.2       3.7       1.4       2.2
 1 C  py              0.2       1.8       0.3       2.0       5.0       3.0
 1 C  dz2             0.0       0.7       0.0       0.0       0.2       0.0
 1 C  dxz             0.1       0.2       0.5       0.1       0.4       0.0
 1 C  dyz             0.0       0.2       0.1       0.4       0.6       0.6
 1 C  dx2y2           0.1       0.1       0.2       0.1       0.0       0.2
 1 C  dxy             0.0       0.0       0.0       0.1       0.0       0.2
 2 C  s               6.5       4.3       9.4       0.9       1.1       0.9
 2 C  pz              1.6       4.4      21.6       5.4       0.3       4.2
 2 C  px              2.9       7.3       0.2       0.8       0.1       1.4
 2 C  py              0.1       8.6       1.1       4.0       9.4       0.8
 2 C  dz2             0.2       0.0       0.4       0.1       0.0       0.1
 2 C  dxz             0.1       0.0       0.0       0.2       0.1       0.1
 2 C  dyz             0.1       0.1       0.1       0.2       0.9       0.2
 2 C  dx2y2           0.1       1.4       0.3       0.0       0.1       0.0
 2 C  dxy             0.0       0.5       0.0       0.0       0.0       0.2
 3 O  s               0.0       0.9       0.8       0.0       0.0       0.2
 3 O  pz              1.2       0.2       0.1       1.0       0.1       0.5
 3 O  px              2.0       2.2       0.6       0.4       0.0       0.4
 3 O  py              0.2       0.6       0.6       0.1       0.7       0.3
 3 O  dz2             1.3       1.4       2.6       0.0       0.1       0.4
 3 O  dxz             2.1       0.1       1.9       0.0       0.1       0.1
 3 O  dyz             0.0       0.0       0.4       0.1       0.0       0.6
 3 O  dx2y2           2.3       0.6       1.1       0.1       0.3       0.1
 3 O  dxy             0.3       0.2       0.3       0.3       3.6       1.5
 4 C  s               8.0       2.0       1.0       1.0       1.1       3.5
 4 C  pz              0.4       1.5       0.9       5.6       0.1       0.6
 4 C  px              0.2       0.7       0.1       0.2       3.9       3.0
 4 C  py              1.3       0.0       0.9       0.7       2.3       3.0
 4 C  dz2             0.6       0.2       0.1       0.1       0.1       0.1
 4 C  dxz             0.0       0.1       0.1       0.0       0.0       0.1
 4 C  dx2y2           0.4       0.1       0.3       0.0       0.0       0.1
 5 O  s               1.9       0.0       0.0       0.2       0.4       0.7
 5 O  pz              0.2       0.2       0.0       0.2       0.0       0.0
 5 O  px              0.1       1.1       0.1       0.1       1.2       0.1
 5 O  py              0.7       0.0       0.0       0.1       0.1       1.5
 5 O  dz2             1.1       0.8       0.2       0.3       0.3       0.1
 5 O  dxz             0.3       0.6       0.0       0.2       0.1       0.1
 5 O  dyz             0.0       0.0       0.0       0.0       0.0       0.2
 5 O  dx2y2           0.3       0.6       0.0       0.0       0.1       1.9
 5 O  dxy             0.0       0.1       0.0       0.1       0.3       0.2
 6 C  s              10.4       6.3       3.6       2.1       9.3       0.7
 6 C  pz              0.4       0.9       1.4       0.4       0.4       2.4
 6 C  px              1.3       0.4       5.5       5.1       3.9      24.0
 6 C  py              0.1       0.0       1.1       0.1       1.8       8.6
 6 C  dz2             0.1       0.2       0.0       0.0       0.1       0.1
 6 C  dxz             0.1       0.0       0.0       0.0       0.2       0.4
 6 C  dyz             0.0       0.0       0.1       0.0       0.1       0.2
 6 C  dx2y2           0.1       0.0       0.4       0.0       0.5       2.0
 6 C  dxy             0.0       0.0       0.0       0.1       0.3       0.6
 7 H  s               3.0       0.9       1.6       0.4       0.2       2.3
 7 H  pz              0.9       0.0       0.1       0.0       0.0       0.3
 7 H  px              0.1       0.1       0.0       0.4       0.1       0.0
 8 H  s               1.2       4.4       1.1       0.4       1.0       0.1
 8 H  pz              0.1       0.0       0.0       0.0       0.4       0.2
 8 H  px              0.1       0.2       0.1       0.5       0.6       0.0
 8 H  py              0.6       1.5       0.3       0.1       0.1       0.0
 9 H  s               0.9       1.0       1.8       2.2       0.4       0.3
 9 H  pz              0.2       0.0       0.0       0.5       0.0       0.0
 9 H  px              0.2       0.1       0.0       0.4       0.1       0.2
 9 H  py              0.3       0.6       0.6       1.0       0.1       0.2
10 H  s               2.9       0.1       0.8       0.2       4.3       4.3
10 H  pz              0.2       0.5       0.2       0.1       0.4       0.1
10 H  px              0.3       0.1       0.1       0.3       0.7       0.0
10 H  py              0.9       0.2       0.9       0.0       0.8       0.8
11 H  s               1.3       1.9       0.5       2.3       0.9       0.7
11 H  pz              0.1       0.0       0.2       1.3       0.3       0.6
[...]
 2 C  px              0.1       0.6       0.2       5.9       2.1       0.4
 2 C  py              6.7       6.5       0.8       0.4       0.3       0.0
 2 C  dz2             0.4       0.1       0.0       1.5       0.3       0.1
 2 C  dxz             1.4       0.4       0.0       1.6       0.4       0.1
 2 C  dyz            10.5       7.1       2.9       0.2       0.0       0.0
 2 C  dx2y2           0.0       0.0       0.4       5.7       2.1       0.3
 2 C  dxy             0.2       0.2       1.5       2.6       0.7       0.3
 3 O  s               1.4       0.1       4.0      28.0       4.1       1.0
 3 O  pz              0.0       0.0       0.0       0.5       1.7       0.1
 3 O  px              0.1       0.0       0.1       7.0      24.5       0.7
 3 O  py              1.1       0.9       6.0       6.0       5.5       0.1
 3 O  dz2             0.2       0.2       0.9       9.1       2.2       0.4
 3 O  dxz             1.1       0.1       0.1       6.0       0.0       0.6
 3 O  dyz             0.8       0.4       0.1       0.0       1.6       0.0
 3 O  dx2y2           1.8       0.0       9.4       9.0       1.6       0.8
 3 O  dxy             0.0       0.6       0.1       0.0      24.9       0.3
 4 C  s               0.2       0.1       0.8       0.4       2.8       5.2
 4 C  pz              0.0       0.0       0.0       0.0       0.2       0.1
 4 C  px              0.0       0.0       0.2       0.6       3.4       0.2
 4 C  py              0.1       0.0       0.6       1.4       2.7       7.7
 4 C  dz2             0.0       0.0       0.1       0.2       1.5       1.5
 4 C  dxz             0.5       0.0       1.5       0.0       0.2       0.0
 4 C  dyz             0.0       0.0       0.3       0.2       0.6       0.3
 4 C  dx2y2           1.5       0.0       8.9       0.0       0.1       4.1
 4 C  dxy             1.5       0.0       4.5       2.2       9.7       0.8
 5 O  s               0.1       1.4       2.6       0.9       0.6      18.3
 5 O  pz              0.0       0.0       0.6       0.0       0.0       0.3
 5 O  px              0.8       1.1       6.7       0.1       0.3       0.6
 5 O  py              0.4       0.0       1.4       0.8       0.4      20.9
 5 O  dz2             0.0       0.1       0.5       0.3       0.3       7.5
 5 O  dxz             0.0       0.1       0.0       0.1       0.3       0.0
 5 O  dyz             0.0       0.0       1.4       0.0       0.2       1.3
 5 O  dx2y2           0.3       0.2       0.6       1.9       0.1      22.2
 5 O  dxy             4.2       0.1      19.8       0.0       1.4       2.8
 6 C  px              0.7       0.0       1.4       0.0       0.1       0.0
 6 C  py              0.1       0.0       0.2       0.0       0.1       0.0
 6 C  dz2             0.0       0.0       0.0       0.0       0.1       0.2
 6 C  dxz             0.6       0.0       0.9       0.0       0.0       0.0
 6 C  dx2y2           0.0       0.0       1.6       0.0       0.2       0.0
 6 C  dxy             0.9       0.0       1.7       0.1       0.1       0.0
 7 H  py              0.0       0.2       0.0       0.0       0.0       0.0
 8 H  s               0.4       0.5       0.0       0.0       0.0       0.0
 8 H  pz              0.2       0.1       0.0       0.0       0.0       0.0
 8 H  px              0.4       0.3       0.1       0.1       0.0       0.0
 8 H  py              0.5       0.9       0.1       0.0       0.0       0.0
 9 H  s               0.2       0.1       0.1       0.0       0.0       0.0
 9 H  pz              0.2       0.0       0.1       0.0       0.0       0.0
 9 H  px              0.0       0.1       0.0       0.0       0.0       0.0
 9 H  py              0.3       0.1       0.1       0.0       0.0       0.0
10 H  s               2.9       5.6       0.4       0.1       0.0       0.0
10 H  pz              2.4       4.1       0.2       0.1       0.0       0.0
10 H  px              1.0       3.1       0.0       0.1       0.0       0.0
10 H  py              4.5       7.2       0.4       0.0       0.0       0.0
11 H  s               1.8       3.0       0.8       0.0       0.0       0.0
11 H  pz              2.1       3.2       0.8       0.0       0.0       0.0
11 H  px              0.0       0.4       0.0       0.0       0.0       0.0
11 H  py              2.0       2.9       1.2       0.0       0.0       0.0
12 H  s               3.6       2.9       0.8       0.4       0.1       0.0
12 H  pz              4.0       3.3       0.6       0.1       0.1       0.0
12 H  px              0.0       0.0       0.8       0.3       0.2       0.0
12 H  py              4.5       3.1       1.2       0.4       0.1       0.0
13 H  s               4.1       3.7       0.6       0.4       0.1       0.0
13 H  pz              3.2       2.6       0.6       0.0       0.0       0.0
13 H  px              1.3       1.6       0.0       0.1       0.0       0.0
13 H  py              4.5       3.8       1.1       1.0       0.2       0.0
14 H  s               0.0       0.0       0.2       0.0       0.1       0.0
14 H  py              0.0       0.0       0.7       0.0       0.0       0.0
15 H  s               0.5       0.0       0.4       0.0       0.0       0.0
15 H  pz              0.4       0.0       0.3       0.0       0.0       0.0
15 H  px              0.6       0.0       0.4       0.0       0.0       0.0
15 H  py              0.3       0.0       0.2       0.0       0.0       0.0

                    186       187       188       189       190       191   
                  21.89590  21.92322  21.99049  22.09312  22.22337  43.67061
                   0.00000   0.00000   0.00000   0.00000   0.00000   0.00000
                  --------  --------  --------  --------  --------  --------
 0 C  s              81.2       3.2      11.4       3.8       0.0       0.0
 1 C  s              11.5       1.6      86.0       0.6       0.1       0.0
 2 C  s               3.8       3.3       1.5      90.4       0.5       0.0
 3 O  s               0.0       0.0       0.0       0.1       0.1       0.9
 4 C  s               0.0       0.0       0.1       0.5      98.4       0.0
 5 O  s               0.0       0.0       0.0       0.0       0.2      99.1
 5 O  py              0.0       0.0       0.0       0.0       0.1       0.0
 6 C  s               3.1      91.5       0.7       4.2       0.1       0.0

                    192   
                  43.75250
                   0.00000
                  --------
 3 O  s              99.1
 5 O  s               0.8


                      *****************************
                      * MAYER POPULATION ANALYSIS *
                      *****************************

  NA   - Mulliken gross atomic population
  ZA   - Total nuclear charge
  QA   - Mulliken gross atomic charge
  VA   - Mayer's total valence
  BVA  - Mayer's bonded valence
  FA   - Mayer's free valence

  ATOM       NA         ZA         QA         VA         BVA        FA
  0 C      6.4708     6.0000    -0.4708     3.8190     3.8190     0.0000
  1 C      6.2240     6.0000    -0.2240     3.6838     3.6838     0.0000
  2 C      6.1866     6.0000    -0.1866     3.7108     3.7108     0.0000
  3 O      8.1728     8.0000    -0.1728     1.9241     1.9241    -0.0000
  4 C      5.5762     6.0000     0.4238     3.7783     3.7783    -0.0000
  5 O      8.4279     8.0000    -0.4279     1.9425     1.9425    -0.0000
  6 C      6.5219     6.0000    -0.5219     3.8681     3.8681     0.0000
  7 H      0.8480     1.0000     0.1520     0.9615     0.9615     0.0000
  8 H      0.8591     1.0000     0.1409     0.9647     0.9647    -0.0000
  9 H      0.8515     1.0000     0.1485     0.9633     0.9633     0.0000
 10 H      0.8398     1.0000     0.1602     0.9599     0.9599     0.0000
 11 H      0.8574     1.0000     0.1426     0.9607     0.9607     0.0000
 12 H      0.8296     1.0000     0.1704     0.9589     0.9589     0.0000
 13 H      0.8524     1.0000     0.1476     0.9526     0.9526     0.0000
 14 H      0.8292     1.0000     0.1708     0.9595     0.9595     0.0000
 15 H      0.8266     1.0000     0.1734     0.9581     0.9581    -0.0000
 16 H      0.8263     1.0000     0.1737     0.9565     0.9565     0.0000

  Mayer bond orders larger than 0.100000
B(  0-C ,  1-C ) :   0.9069 B(  0-C ,  7-H ) :   0.9685 B(  0-C ,  8-H ) :   0.9771 
B(  0-C ,  9-H ) :   0.9802 B(  1-C ,  2-C ) :   0.9416 B(  1-C , 10-H ) :   0.9629 
B(  1-C , 11-H ) :   0.9601 B(  2-C ,  3-O ) :   0.8372 B(  2-C , 12-H ) :   0.9739 
B(  2-C , 13-H ) :   0.9622 B(  3-O ,  4-C ) :   1.0507 B(  4-C ,  5-O ) :   1.8382 
B(  4-C ,  6-C ) :   0.9490 B(  6-C , 14-H ) :   0.9820 B(  6-C , 15-H ) :   0.9681 
B(  6-C , 16-H ) :   0.9385 

-------
TIMINGS
-------

Total SCF time: 0 days 0 hours 0 min 21 sec 

Total time                  ....      21.604 sec
Sum of individual times     ....      21.053 sec  ( 97.4%)

SCF preparation             ....       0.183 sec  (  0.8%)
Fock matrix formation       ....      19.861 sec  ( 91.9%)
  Startup                   ....       0.071 sec  (  0.4% of F)
  Split-RI-J                ....       3.432 sec  ( 17.3% of F)
  XC integration            ....      15.755 sec  ( 79.3% of F)
    XC Preparation          ....       0.000 sec  (  0.0% of XC)
    Basis function eval.    ....       2.944 sec  ( 18.7% of XC)
    Density eval.           ....       4.554 sec  ( 28.9% of XC)
    XC-Functional eval.     ....       2.165 sec  ( 13.7% of XC)
    XC-Potential eval.      ....       5.057 sec  ( 32.1% of XC)
Diagonalization             ....       0.000 sec  (  0.0%)
Density matrix formation    ....       0.282 sec  (  1.3%)
Total Energy calculation    ....       0.040 sec  (  0.2%)
Population analysis         ....       0.113 sec  (  0.5%)
Orbital Transformation      ....       0.065 sec  (  0.3%)
Orbital Orthonormalization  ....       0.000 sec  (  0.0%)
DIIS solution               ....       0.451 sec  (  2.1%)
  MO trafo                  ....       0.000 sec  (  0.0 % of DIIS)
  Orb grad                  ....       0.000 sec  (  0.0 % of DIIS)
  Energy W gradient         ....       0.000 sec  (  0.0 % of DIIS)
  DIIS error                ....       0.011 sec  (  2.5 % of DIIS)
  DIIS work                 ....       0.373 sec  ( 82.7 % of DIIS)
  Form Q                    ....       0.000 sec  (  0.0 % of DIIS)
  Form QpQm                 ....       0.000 sec  (  0.0 % of DIIS)
  Exp/Cayley                ....       0.000 sec  (  0.0 % of DIIS)
  Orb update                ....       0.000 sec  (  0.0 % of DIIS)
  Wake-sleep                ....       0.030 sec  (  6.6 % of DIIS)
SOSCF solution              ....       0.057 sec  (  0.3%)
  MO trafo                  ....       0.040 sec  ( 71.0 % of SOSCF)
  Orb grad                  ....       0.001 sec  (  1.3 % of SOSCF)
  Rot update                ....       0.000 sec  (  0.1 % of SOSCF)
  Step                      ....       0.016 sec  ( 27.5 % of SOSCF)
Finished LeanSCF after  21.7 sec

Maximum memory used throughout the entire LEANSCF-calculation: 20.1 MB


-------------------------------------------------------------------------------
                          DFT DISPERSION CORRECTION                            
                                                                               
                                DFTD4 V3.4.0                                   
-------------------------------------------------------------------------------
The R2SCAN3C composite method is recognized
Using three-body term ABC
Active option DFTDOPT                   ...         5   

-------------------------   ----------------
Dispersion correction           -0.003930771
-------------------------   ----------------

------------------   -----------------
gCP correction             0.010437496
------------------   -----------------

-------------------------   --------------------
FINAL SINGLE POINT ENERGY      -346.936961111847
-------------------------   --------------------


------------------------------------------------------------------------------
                              ORCA PROPERTY CALCULATIONS
------------------------------------------------------------------------------

GBWName                                 ... sp_gas.gbw
Number of atoms                         ...     17
Number of basis functions               ...    193
Max core memory                         ...   1024 MB

Electric properties:
Dipole moment                           ... YES
Quadrupole moment                       ...  NO
Static polarizability (Dipole/Dipole)   ...  NO
Static polarizability (Dipole/Quad.)    ...  NO
Static polarizability (Quad./Quad.)     ...  NO
Static polarizability (Velocity)        ...  NO

Atomic electric properties:
Dipole moment                           ...  NO
Quadrupole moment                       ...  NO
Static polarizability                   ...  NO

Choice of electric origin               ... Center of mass
Position of electric origin             ...    -0.000024     0.000007     0.000006

General magnetic properties:
Magnetizability                         ...  NO

EPR properties:
g-Tensor (aka g-matrix)                 ...  NO
Zero-Field splitting spin-orbit         ...  NO
Zero-field splitting spin-spin          ...  NO
Hyperfine couplings                     ...  NO (   0 nuclei)
Quadrupole couplings                    ...  NO (   0 nuclei)
Contact density                         ...  NO (   0 nuclei)

NMR properties:
Chemical shifts                         ...  NO (   0 nuclei)
Spin-rotation constants                 ...  NO (   0 nuclei)
Spin-spin couplings                     ...  NO (   0 nuclei,    0 pairs)

Choice of magnetic origin               ... GIAO
Position of magnetic origin             ...     0.000000     0.000000     0.000000

Properties with geometric perturbations:
SCF Hessian                             ...  NO
IR spectrum                             ...  NO
VCD spectrum                            ...  NO
X-ray spectroscopy properties:
SCF XES/XAS/RIXS spectra                ...  NO


-------------
DIPOLE MOMENT
-------------

Method             : SCF
Type of density    : Electron Density
Multiplicity       :   1
Irrep              :   0
Energy             :  -346.9434678363481908 Eh
Relativity type    : 
Basis              : AO
                                X                 Y                 Z
Electronic contribution:      5.852235295      -0.942469783      -1.318635172
Nuclear contribution   :     -6.086902063       1.682936946       1.437343030
                        -----------------------------------------
Total Dipole Moment    :     -0.234666768       0.740467163       0.118707858
                        -----------------------------------------
Magnitude (a.u.)       :      0.785780928
Magnitude (Debye)      :      1.997296392



--------------------
Rotational spectrum 
--------------------
 
Rotational constants in cm-1:             0.229365             0.042918             0.039985 
Rotational constants in MHz :          6876.188845          1286.651954          1198.722223 

Dipole components along the rotational axes: 
x,y,z [a.u.] :     0.234664     0.740468     0.118708 
x,y,z [Debye]:     0.596469     1.882120     0.301732 

 

Dipole moment calculation done in   0.0 sec 

Maximum memory used throughout the entire PROP-calculation: 11.4 MB

--------------------------------
SUGGESTED CITATIONS FOR THIS RUN
--------------------------------

Below you find a list of papers that are relevant to this ORCA run
We neither can nor want to force you to cite these papers, but we appreciate if you do
You receive ORCA, which is the product of decades of hard work by many enthusiastic individuals, for free
The only thing we kindly ask in return is that you cite our papers,
We deeply appreciate it, if you show your appreciation for ORCA by not just citing the generic ORCA reference.

Please note that relegating all ORCA citations to the supporting information does *not* help us.
SI sections are not indexed - citations you put there will not count into any citation statistics
But we need these citations in order to attract the funding resources that allow us to do what we are doing

Therefore, if you are a happy ORCA user, please consider citing a few of the papers listed below in the main body of your paper

In addition to the list printed below, the program has created the file sp_gas.bibtex that contains the list in bibtex format
You can import this file easily into all common literature databanks and citation aid programs


List of essential papers. We consider these as the minimum necessary citations

  1. Neese,F.
     Software update: the ORCA program system, version 5.0
     WIRES Comput. Molec. Sci., 2022 12(1)e1606
     doi.org/10.1002/wcms.1606
  2. Grimme,S.; Hansen,A.; Ehlert,S.; Mewes,J.
     r2SCAN-3c: A 'Swiss army knife' composite electronic-structure method
     J. Chem. Phys., 2021 154 064103
     doi.org/10.1063/5.0040021

List of papers to cite with high priority. The work reported in these papers was absolutely
necessary for this run to complete.
Our perspective: the developers of density functionals and basis sets usually get cited in chemistry papers
Good! But without the algorithms to do something with them, the functionals or basis sets would not do anything.
Hence, in our opinion, the algorithm design and method developments papers are equally worthy of getting cited

  1. Neese,F.
     An improvement of the resolution of the identity approximation for the formation of the Coulomb matrix
     J. Comp. Chem., 2003 24(14)1740-1747
     doi.org/10.1002/jcc.10318
  2. Neese,F.
     The SHARK Integral Generation and Digestion System
     J. Comp. Chem., 2022  1-16
     doi.org/10.1002/jcc.26942
  3. Lehtola,S.; Steigemann,C.; Oliveira,M.; Marques,M.
     Recent developments in Libxc - A comprehensive library of functionals for density functional theory
     Software X, 2018 7 
     doi.org/10.1016/j.softx.2017.11.002
  4. Caldeweyher,E.; Bannwarth,C.; Grimme,S.
     Extension of the D3 dispersion coefficient model
     J. Chem. Phys., 2017 147 034112-XXXX
     doi.org/10.1063/1.4993215
  5. Caldeweyher,E.; Ehlert,S.; Hansen,A.; Neugebauer,H.; Spicher,S.; Bannwarth,C.; Grimme,S.
     A generally applicable atomic-charge dependent London dispersion correction
     J. Chem. Phys., 2019 150 154122-XXXX
     doi.org/10.1063/1.5090222
  6. Caldeweyher,E.; Mewes,J.; Ehlert,S.; Grimme,S.
     Extension and evaluation of the D4 London-dispersion model for periodic systems
     Phys. Chem. Chem. Phys., 2020 22(16)8499-8512
     doi.org/10.1039/D0CP00502A

List of suggested additional citations. These are papers that are important in the 'surrounding' of 
of this run, or papers that preceded the highly important papers. If you like your results we are grateful for a citation.

  1. Neese,F.
     The ORCA program system
     WIRES Comput. Molec. Sci., 2012 2(1)73-78
     doi.org/10.1002/wcms.81
  2. Neese,F.
     Software update: the ORCA program system, version 4.0
     WIRES Comput. Molec. Sci., 2018 8(1)1-6
     doi.org/10.1002/wcms.1327
  3. Neese,F.; Wennmohs,F.; Becker,U.; Riplinger,C.
     The ORCA quantum chemistry program package
     J. Chem. Phys., 2020 152 Art. No. L224108
     doi.org/10.1063/5.0004608

List of optional additional citations

  1. Neese,F.
     Approximate second-order SCF convergence for spin unrestricted wavefunctions
     Chem. Phys. Lett., 2000 325(1-3)93-98
     doi.org/10.1016/s0009-2614(00)00662-x

Timings for individual modules:

Sum of individual times          ...       23.320 sec (=   0.389 min)
Startup calculation              ...        1.200 sec (=   0.020 min)   5.1 %
SCF iterations                   ...       22.005 sec (=   0.367 min)  94.4 %
Property calculations            ...        0.115 sec (=   0.002 min)   0.5 %
                             ****ORCA TERMINATED NORMALLY****
TOTAL RUN TIME: 0 days 0 hours 0 minutes 24 seconds 168 msec
