
                                 *****************
                                 * O   R   C   A *
                                 *****************

                                            #,                                       
                                            ###                                      
                                            ####                                     
                                            #####                                    
                                            ######                                   
                                           ########,                                 
                                     ,,################,,,,,                         
                               ,,#################################,,                 
                          ,,##########################################,,             
                       ,#########################################, ''#####,          
                    ,#############################################,,   '####,        
                  ,##################################################,,,,####,       
                ,###########''''           ''''###############################       
              ,#####''   ,,,,##########,,,,          '''####'''          '####       
            ,##' ,,,,###########################,,,                        '##       
           ' ,,###''''                  '''############,,,                           
         ,,##''                                '''############,,,,        ,,,,,,###''
      ,#''                                            '''#######################'''  
     '                                                          ''''####''''         
             ,#######,   #######,   ,#######,      ##                                
            ,#'     '#,  ##    ##  ,#'     '#,    #''#        ,####,   ,####,        
            ##       ##  ##   ,#'  ##            #'  '#       #'       #'  '#        
            ##       ##  #######   ##           ,######,      #####,   #    #        
            '#,     ,#'  ##    ##  '#,     ,#' ,#      #,     #,   #   #,  ,#        
             '#######'   ##     ##  '#######'  #'      '#     '####' # '####'        



                #########################################################
                #                        -***-                          #
                #          Department of theory and spectroscopy        #
                #                                                       #
                #                      Frank Neese                      #
                #                                                       #
                #     Directorship, Architecture, Infrastructure        #
                #                    SHARK, DRIVERS                     #
                #        Core code/Algorithms in most modules           #
                #                                                       #
                #        Max Planck Institute fuer Kohlenforschung      #
                #                Kaiser Wilhelm Platz 1                 #
                #                 D-45470 Muelheim/Ruhr                 #
                #                      Germany                          #
                #                                                       #
                #                  All rights reserved                  #
                #                        -***-                          #
                #########################################################


                         Program Version 6.0.0  -   RELEASE  -


 With contributions from (in alphabetic order):
   Daniel Aravena         : Magnetic Suceptibility
   Michael Atanasov       : Ab Initio Ligand Field Theory (pilot matlab implementation)
   Alexander A. Auer      : GIAO ZORA, VPT2 properties, NMR spectrum
   Ute Becker             : All parallelization in ORCA, NUMFREQ, NUMCALC
   Giovanni Bistoni       : ED, misc. LED, open-shell LED, HFLD
   Martin Brehm           : Molecular dynamics
   Dmytro Bykov           : pre 5.0 version of the SCF Hessian
   Marcos Casanova-Páez   : Triplet and SCS-CIS(D). UHF-(DLPNO)-IP/EA/STEOM-CCSD. UHF-CVS-IP/STEOM-CCSD
   Vijay G. Chilkuri      : MRCI spin determinant printing, contributions to CSF-ICE
   Pauline Colinet        : FMM embedding
   Dipayan Datta          : RHF DLPNO-CCSD density
   Achintya Kumar Dutta   : EOM-CC, STEOM-CC
   Nicolas Foglia         : Exact transition moments, OPA infrastructure, MCD improvements
   Dmitry Ganyushin       : Spin-Orbit,Spin-Spin,Magnetic field MRCI
   Miquel Garcia          : C-PCM and meta-GGA Hessian, CCSD/C-PCM, Gaussian charge scheme
   Tiago L. C. Gouveia    : GS-ROHF, GS-ROCIS
   Yang Guo               : DLPNO-NEVPT2, F12-NEVPT2, CIM, IAO-localization
   Andreas Hansen         : Spin unrestricted coupled pair/coupled cluster methods
   Ingolf Harden          : AUTO-CI MPn and infrastructure 
   Benjamin Helmich-Paris : MC-RPA, TRAH-(SCF,CASSCF), AVAS, COSX integrals, SCF dyn. polar.
   Lee Huntington         : MR-EOM, pCC
   Robert Izsak           : Overlap fitted RIJCOSX, COSX-SCS-MP3, EOM
   Riya Kayal             : Wick's Theorem for AUTO-CI, AUTO-CI UHF-CCSDT
   Emily Kempfer          : AUTO-CI, RHF CISDT and CCSDT
   Christian Kollmar      : KDIIS, OOCD, Brueckner-CCSD(T), CCSD density, CASPT2, CASPT2-K, improved NEVPT2
   Axel Koslowski         : Symmetry handling
   Simone Kossmann        : Meta GGA functionals, TD-DFT gradient, OOMP2, (MP2 Hessian; deprecated post 5.0)
   Lucas Lang             : DCDCAS
   Marvin Lechner         : AUTO-CI (C++ implementation), FIC-MRCC
   Spencer Leger          : CASSCF response
   Dagmar Lenk            : GEPOL surface, SMD, ORCA-2-JSON
   Dimitrios Liakos       : Extrapolation schemes; Compound Job, initial MDCI parallelization
   Dimitrios Manganas     : Further ROCIS development; embedding schemes. LFT, Crystal Embedding
   Dimitrios Pantazis     : SARC Basis sets
   Anastasios Papadopoulos: AUTO-CI, single reference methods and gradients
   Taras Petrenko         : pre 6.0 DFT Hessian and TD-DFT gradient, (ASA, deprecated), ECA, 1-Electron XAS/XES, NRVS
   Peter Pinski           : DLPNO-MP2, DLPNO-MP2 Gradient
   Christoph Reimann      : Effective Core Potentials
   Marius Retegan         : Local ZFS, SOC
   Christoph Riplinger    : Optimizer, TS searches, QM/MM, DLPNO-CCSD(T), (RO)-DLPNO pert. Triples
   Michael Roemelt        : Original ROCIS implementation
   Masaaki Saitow         : Open-shell DLPNO-CCSD energy and density
   Barbara Sandhoefer     : DKH picture change effects
   Kantharuban Sivalingam : CASSCF convergence/infrastructure, NEVPT2 and variants, FIC-MRCI
   Bernardo de Souza      : ESD, SOC TD-DFT
   Georgi Stoychev        : AutoAux, RI-MP2 NMR, DLPNO-MP2 response, X2C
   Van Anh Tran           : RI-MP2 g-tensors
   Willem Van den Heuvel  : Paramagnetic NMR
   Zikuan Wang            : NOTCH, Electric field optimization 
   Frank Wennmohs         : Technical directorship and infrastructure
   Hang Xu                : AUTO-CI-Response properties 


 We gratefully acknowledge several colleagues who have allowed us to
 interface, adapt or use parts of their codes:
   Stefan Grimme, W. Hujo, H. Kruse, P. Pracht,  : VdW corrections, initial TS optimization,
                  C. Bannwarth, S. Ehlert,         DFT functionals, gCP, sTDA/sTD-DF
                  L. Wittmann, M. Mueller
   Ed Valeev, F. Pavosevic, A. Kumar             : LibInt (2-el integral package), F12 methods
   Garnet Chan, S. Sharma, J. Yang, R. Olivares  : DMRG
   Ulf Ekstrom                                   : XCFun DFT Library
   Mihaly Kallay                                 : mrcc  (arbitrary order and MRCC methods)
   Frank Weinhold                                : gennbo (NPA and NBO analysis)
   Simon Mueller                                 : openCOSMO-RS
   Christopher J. Cramer and Donald G. Truhlar   : smd solvation model
   Lars Goerigk                                  : TD-DFT with DH, B97 family of functionals
   V. Asgeirsson, H. Jonsson                     : NEB implementation
   FAccTs GmbH                                   : IRC, NEB, NEB-TS, DLPNO-Multilevel, CI-OPT
                                                   MM, QMMM, 2- and 3-layer-ONIOM, Crystal-QMMM,
                                                   LR-CPCM, SF, NACMEs, symmetry and pop. for TD-DFT,
                                                   nearIR, NL-DFT gradient (VV10), updates on ESD,
                                                   ML-optimized integration grids, MBIS, APM,
                                                   GOAT, DOCKER, SOLVATOR, interface openCOSMO-RS
   S Lehtola, MJT Oliveira, MAL Marques          : LibXC Library
   Liviu Ungur et al                             : ANISO software


 Your calculation uses the libint2 library for the computation of 2-el integrals
 For citations please refer to: http://libint.valeyev.net

 Your ORCA version has been built with support for libXC version: 6.2.2
 For citations please refer to: https://libxc.gitlab.io

 This ORCA versions uses:
   CBLAS   interface :  Fast vector & matrix operations
   LAPACKE interface :  Fast linear algebra routines
   SCALAPACK package :  Parallel linear algebra routines
   Shared memory     :  Shared parallel matrices
   BLAS/LAPACK       :  OpenBLAS 0.3.27  USE64BITINT DYNAMIC_ARCH NO_AFFINITY SkylakeX SINGLE_THREADED
        Core in use  :  SkylakeX
   Copyright (c) 2011-2014, The OpenBLAS Project


Your calculation utilizes the geometrical counterpoise correction gCP
Please cite in your paper:
H.Kruse, S. Grimme J.Chem.Phys., 136, (2012), 154101 
   

Your calculation utilizes the DFT-NL dispersion correction.
Cite in your paper:
Vydrov, O. A.; Van Voorhis, T. J. Chem. Phys. 2010, 133, 244103
Hujo, W.; Grimme, S. J. Chem. Theory Comput. 2011, 7, 3866 
   

Your calculation utilizes the SMD solvation module
Please cite in your paper:
A.V. Marenich, C.J. Cramer, D.G. Truhlar J. Phys. Chem. B, 113, (2009), 6378 

================================================================================

----- Orbital basis set information -----
Your calculation utilizes the basis: def2-TZVP
   F. Weigend and R. Ahlrichs, Phys. Chem. Chem. Phys. 7, 3297 (2005).

----- AuxJ basis set information -----
Your calculation utilizes the auxiliary basis: def2/J
   F. Weigend, Phys. Chem. Chem. Phys. 8, 1057 (2006).

================================================================================
                                        WARNINGS
                       Please study these warnings very carefully!
================================================================================


================================================================================
                                       INPUT FILE
================================================================================
NAME = sp_solv.inp
|  1> ! wb97x-v def2-tzvp def2/J RIJCOSX DEFGRID2 scfconv7 GCP(DFT/TZ) printgap
|  2> %output
|  3>     printlevel normal
|  4> end
|  5> %cpcm
|  6>     smd true
|  7>     smdsolvent "water"
|  8> end
|  9> * xyz 0 1
| 10> C -2.560288849293803 0.37601526740520647 0.2627747339142619
| 11> C -1.957432854915816 -0.7324688102450059 0.8528984827790107
| 12> C -0.6574899120875638 -1.091667183430077 0.5020597267222958
| 13> C 0.06023061238395311 -0.35251782418684474 -0.4431112954568912
| 14> C -0.5557964720777624 0.7593873699323658 -1.0286184671332992
| 15> C -1.854500576907364 1.1210356499429877 -0.681110211739539
| 16> C 1.4811902354110331 -0.7076383429010239 -0.7864228096136594
| 17> C 2.501369921278779 0.14040400661348165 -0.025199761585659848
| 18> O 2.385532812063778 0.004860439572826858 1.4017316331199727
| 19> H -3.574084738971116 0.6552027067639813 0.5321918281559174
| 20> H -2.49997464348468 -1.3206056444578018 1.5872884911480358
| 21> H -0.19372295779093818 -1.9600023163278095 0.9629629067354236
| 22> H -0.011552309874385118 1.3441401036522023 -1.7662592845546583
| 23> H -2.318223831053673 1.9840533186263614 -1.1497385101294175
| 24> H 1.6688173542788263 -1.766322590276164 -0.5696545784441891
| 25> H 1.662270405834039 -0.5521641634666101 -1.8571459311559637
| 26> H 3.515206798379394 -0.129330549913215 -0.35172709430889587
| 27> H 2.3436150052725004 1.2030267308988547 -0.23787076008109168
| 28> H 2.498226264957485 -0.9321675948555865 1.6110743060907435
| 29> *
| 30> 
| 31>                          ****END OF INPUT****
================================================================================

                       ****************************
                       * Single Point Calculation *
                       ****************************

---------------------------------
CARTESIAN COORDINATES (ANGSTROEM)
---------------------------------
  C     -2.560289    0.376015    0.262775
  C     -1.957433   -0.732469    0.852898
  C     -0.657490   -1.091667    0.502060
  C      0.060231   -0.352518   -0.443111
  C     -0.555796    0.759387   -1.028618
  C     -1.854501    1.121036   -0.681110
  C      1.481190   -0.707638   -0.786423
  C      2.501370    0.140404   -0.025200
  O      2.385533    0.004860    1.401732
  H     -3.574085    0.655203    0.532192
  H     -2.499975   -1.320606    1.587288
  H     -0.193723   -1.960002    0.962963
  H     -0.011552    1.344140   -1.766259
  H     -2.318224    1.984053   -1.149739
  H      1.668817   -1.766323   -0.569655
  H      1.662270   -0.552164   -1.857146
  H      3.515207   -0.129331   -0.351727
  H      2.343615    1.203027   -0.237871
  H      2.498226   -0.932168    1.611074

----------------------------
CARTESIAN COORDINATES (A.U.)
----------------------------
  NO LB      ZA    FRAG     MASS         X           Y           Z
   0 C     6.0000    0    12.011   -4.838245    0.710566    0.496572
   1 C     6.0000    0    12.011   -3.699012   -1.384165    1.611745
   2 C     6.0000    0    12.011   -1.242476   -2.062952    0.948755
   3 C     6.0000    0    12.011    0.113819   -0.666162   -0.837359
   4 C     6.0000    0    12.011   -1.050303    1.435034   -1.943807
   5 C     6.0000    0    12.011   -3.504498    2.118450   -1.287112
   6 C     6.0000    0    12.011    2.799044   -1.337243   -1.486124
   7 C     6.0000    0    12.011    4.726904    0.265325   -0.047621
   8 O     8.0000    0    15.999    4.508004    0.009185    2.648889
   9 H     1.0000    0     1.008   -6.754041    1.238154    1.005697
  10 H     1.0000    0     1.008   -4.724267   -2.495583    2.999541
  11 H     1.0000    0     1.008   -0.366083   -3.703868    1.819736
  12 H     1.0000    0     1.008   -0.021831    2.540057   -3.337746
  13 H     1.0000    0     1.008   -4.380808    3.749317   -2.172691
  14 H     1.0000    0     1.008    3.153608   -3.337866   -1.076491
  15 H     1.0000    0     1.008    3.141236   -1.043439   -3.509497
  16 H     1.0000    0     1.008    6.642778   -0.244399   -0.664668
  17 H     1.0000    0     1.008    4.428791    2.273391   -0.449511
  18 H     1.0000    0     1.008    4.720963   -1.761541    3.044489

--------------------------------
INTERNAL COORDINATES (ANGSTROEM)
--------------------------------
 C      0   0   0     0.000000000000     0.00000000     0.00000000
 C      1   0   0     1.392988994693     0.00000000     0.00000000
 C      2   1   0     1.393543310651   120.14360738     0.00000000
 C      3   2   1     1.398146196821   120.84946334   359.92394664
 C      4   3   2     1.399514622140   118.48214801     0.10457110
 C      5   4   3     1.392186703680   120.83526749   359.86879597
 C      4   3   2     1.504360205814   120.95441659   177.72601272
 C      7   4   3     1.529510688709   112.67828780   262.68462194
 O      8   7   4     1.438027642166   112.82146216    59.64137164
 H      1   2   3     1.085501406214   120.24587593   179.77948986
 H      2   1   3     1.086087110914   120.07844049   180.08587265
 H      3   2   1     1.086976279533   119.81228747   180.24527188
 H      5   4   3     1.087313866007   119.39137763   180.06694197
 H      6   5   4     1.086025430157   119.80419612   180.31605713
 H      7   4   3     1.096815726282   110.14110480    24.40652001
 H      7   4   3     1.097000570463   110.19434078   142.89815858
 H      8   7   4     1.098745668191   109.35584232   182.71981309
 H      8   7   4     1.095117628975   110.19811172   301.61418838
 H      9   8   7     0.966719042099   107.26850859    57.95295012

---------------------------
INTERNAL COORDINATES (A.U.)
---------------------------
 C      0   0   0     0.000000000000     0.00000000     0.00000000
 C      1   0   0     2.632367707536     0.00000000     0.00000000
 C      2   1   0     2.633415212888   120.14360738     0.00000000
 C      3   2   1     2.642113407175   120.84946334   359.92394664
 C      4   3   2     2.644699356263   118.48214801     0.10457110
 C      5   4   3     2.630851597241   120.83526749   359.86879597
 C      4   3   2     2.842828795758   120.95441659   177.72601272
 C      7   4   3     2.890356320566   112.67828780   262.68462194
 O      8   7   4     2.717478416703   112.82146216    59.64137164
 H      1   2   3     2.051300375730   120.24587593   179.77948986
 H      2   1   3     2.052407197209   120.07844049   180.08587265
 H      3   2   1     2.054087482387   119.81228747   180.24527188
 H      5   4   3     2.054725428369   119.39137763   180.06694197
 H      6   5   4     2.052290637471   119.80419612   180.31605713
 H      7   4   3     2.072681342051   110.14110480    24.40652001
 H      7   4   3     2.073030646931   110.19434078   142.89815858
 H      8   7   4     2.076328403714   109.35584232   182.71981309
 H      8   7   4     2.069472403193   110.19811172   301.61418838
 H      9   8   7     1.826834238013   107.26850859    57.95295012

---------------------
BASIS SET INFORMATION
---------------------
There are 3 groups of distinct atoms

 Group   1 Type C   : 11s6p2d1f contracted to 5s3p2d1f pattern {62111/411/11/1}
 Group   2 Type O   : 11s6p2d1f contracted to 5s3p2d1f pattern {62111/411/11/1}
 Group   3 Type H   : 5s1p contracted to 3s1p pattern {311/1}

Atom   0C    basis set group =>   1
Atom   1C    basis set group =>   1
Atom   2C    basis set group =>   1
Atom   3C    basis set group =>   1
Atom   4C    basis set group =>   1
Atom   5C    basis set group =>   1
Atom   6C    basis set group =>   1
Atom   7C    basis set group =>   1
Atom   8O    basis set group =>   2
Atom   9H    basis set group =>   3
Atom  10H    basis set group =>   3
Atom  11H    basis set group =>   3
Atom  12H    basis set group =>   3
Atom  13H    basis set group =>   3
Atom  14H    basis set group =>   3
Atom  15H    basis set group =>   3
Atom  16H    basis set group =>   3
Atom  17H    basis set group =>   3
Atom  18H    basis set group =>   3
---------------------------------
AUXILIARY/J BASIS SET INFORMATION
---------------------------------
There are 3 groups of distinct atoms

 Group   1 Type C   : 12s5p4d2f1g contracted to 6s4p3d1f1g pattern {711111/2111/211/2/1}
 Group   2 Type O   : 12s5p4d2f1g contracted to 6s4p3d1f1g pattern {711111/2111/211/2/1}
 Group   3 Type H   : 5s2p1d contracted to 3s1p1d pattern {311/2/1}

Atom   0C    basis set group =>   1
Atom   1C    basis set group =>   1
Atom   2C    basis set group =>   1
Atom   3C    basis set group =>   1
Atom   4C    basis set group =>   1
Atom   5C    basis set group =>   1
Atom   6C    basis set group =>   1
Atom   7C    basis set group =>   1
Atom   8O    basis set group =>   2
Atom   9H    basis set group =>   3
Atom  10H    basis set group =>   3
Atom  11H    basis set group =>   3
Atom  12H    basis set group =>   3
Atom  13H    basis set group =>   3
Atom  14H    basis set group =>   3
Atom  15H    basis set group =>   3
Atom  16H    basis set group =>   3
Atom  17H    basis set group =>   3
Atom  18H    basis set group =>   3

Checking for AutoStart:
The File: sp_solv.gbw exists
Trying to determine its content:
     ... Fine, the file contains calculation information
     ... Fine, the calculation information was read
     ... Fine, the file contains a basis set
     ... Fine, the basis set was read
     ... Fine, the file contains a geometry
     ... Fine, the geometry was read
     ... Fine, the file contains a set of orbitals
     ... Fine, the orbitals can be read
     => possible old guess file was deleted
     => GBW file was renamed to GES file
     => GES file is set as startup file
     => Guess is set to MORead
     ... now leaving AutoStart

------------------------------------------------------------------------------
                             ORCA STARTUP CALCULATIONS
                           -- RI-GTO INTEGRALS CHOSEN --
------------------------------------------------------------------------------
------------------------------------------------------------------------------
                   ___                                                        
                  /   \      - P O W E R E D   B Y -                         
                 /     \                                                     
                 |  |  |   _    _      __       _____    __    __             
                 |  |  |  | |  | |    /  \     |  _  \  |  |  /  |          
                  \  \/   | |  | |   /    \    | | | |  |  | /  /          
                 / \  \   | |__| |  /  /\  \   | |_| |  |  |/  /          
                |  |  |   |  __  | /  /__\  \  |    /   |      \           
                |  |  |   | |  | | |   __   |  |    \   |  |\   \          
                \     /   | |  | | |  |  |  |  | |\  \  |  | \   \       
                 \___/    |_|  |_| |__|  |__|  |_| \__\ |__|  \__/        
                                                                              
                      - O R C A' S   B I G   F R I E N D -                    
                                      &                                       
                       - I N T E G R A L  F E E D E R -                       
                                                                              
 v1 FN, 2020, v2 2021, v3 2022-2024                                           
------------------------------------------------------------------------------


----------------------
SHARK INTEGRAL PACKAGE
----------------------

Number of atoms                             ...     19
Number of basis functions                   ...    339
Number of shells                            ...    139
Maximum angular momentum                    ...      3
Integral batch strategy                     ... SHARK/LIBINT Hybrid
RI-J (if used) integral strategy            ... SPLIT-RIJ (Revised 2003 algorithm where possible)
Printlevel                                  ...      1
Contraction scheme used                     ... SEGMENTED contraction
Prescreening option                         ... SCHWARTZ
   Thresh                                   ... 3.000e-11
   Tcut                                     ... 1.000e-12
   Tpresel                                  ... 1.000e-12 
Coulomb Range Separation                    ... NOT USED
Exchange Range Separation                   ... Long Range
   Mu parameter                             ... 3.000e-01
   Scaling (regular/separated)              ... 1.670e-01 8.330e-01
Multipole approximations                    ... NOT USED
Finite Nucleus Model                        ... NOT USED
CABS basis                                  ... NOT available
Auxiliary Coulomb fitting basis             ... AVAILABLE
   # of basis functions in Aux-J            ...    551
   # of shells in Aux-J                     ...    185
   Maximum angular momentum in Aux-J        ...      4
Auxiliary J/K fitting basis                 ... NOT available
Auxiliary Correlation fitting basis         ... NOT available
Auxiliary 'external' fitting basis          ... NOT available

Checking pre-screening integrals            ... done (  0.0 sec) Dimension = 139
Check shell pair data                       ... done (  0.0 sec)
Shell pair information
Shell pair cut-off parameter TPreSel        ...   1.0e-12
Total number of shell pairs                 ...      9730
Shell pairs after pre-screening             ...      8787
Total number of primitive shell pairs       ...     29148
Primitive shell pairs kept                  ...     19659
          la=0 lb=0:   2467 shell pairs
          la=1 lb=0:   2514 shell pairs
          la=1 lb=1:    659 shell pairs
          la=2 lb=0:   1243 shell pairs
          la=2 lb=1:    626 shell pairs
          la=2 lb=2:    161 shell pairs
          la=3 lb=0:    608 shell pairs
          la=3 lb=1:    312 shell pairs
          la=3 lb=2:    154 shell pairs
          la=3 lb=3:     43 shell pairs

Calculating one electron integrals          ... done (  0.0 sec)
Calculating RI/J V-Matrix + Cholesky decomp.... done (  0.1 sec)
Calculating Nuclear repulsion               ... done (  0.0 sec) ENN=    420.526586047874 Eh

Diagonalization of the overlap matrix:
Smallest eigenvalue                        ... 8.571e-06
Time for diagonalization                   ...    0.010 sec
Threshold for overlap eigenvalues          ... 1.000e-07
Number of eigenvalues below threshold      ... 0
Time for construction of square roots      ...    0.024 sec
Total time needed                          ...    0.042 sec

-------------------
DFT GRID GENERATION
-------------------

General Integration Accuracy     IntAcc      ... 4.388
Radial Grid Type                 RadialGrid  ... OptM3 with GC (2021)
Angular Grid (max. ang.)         AngularGrid ... 4 (Lebedev-302)
Angular grid pruning method      GridPruning ... 4 (adaptive)
Weight generation scheme         WeightScheme... mBecke (2022)
Basis function cutoff            BFCut       ... 1.0000e-11
Integration weight cutoff        WCut        ... 1.0000e-14
Partially contracted basis set               ... off
Rotationally invariant grid construction     ... off
Angular grids for H and He will be reduced by one unit

Total number of grid points                  ...    86249
Total number of batches                      ...     1357
Average number of points per batch           ...       63
Average number of grid points per atom       ...     4539

--------------------
COSX GRID GENERATION
--------------------

GRIDX 1
-------
General Integration Accuracy     IntAcc      ... 3.816
Radial Grid Type                 RadialGrid  ... OptM3 with GC (2021)
Angular Grid (max. ang.)         AngularGrid ... 1 (Lebedev-50)
Angular grid pruning method      GridPruning ... 4 (adaptive)
Weight generation scheme         WeightScheme... mBecke (2022)
Basis function cutoff            BFCut       ... 1.0000e-11
Integration weight cutoff        WCut        ... 1.0000e-14
Partially contracted basis set               ... on
Rotationally invariant grid construction     ... off
Angular grids for H and He will be reduced by one unit

Total number of grid points                  ...    10999
Total number of batches                      ...       95
Average number of points per batch           ...      115
Average number of grid points per atom       ...      579
UseSFitting                                  ... on

GRIDX 2
-------
General Integration Accuracy     IntAcc      ... 4.020
Radial Grid Type                 RadialGrid  ... OptM3 with GC (2021)
Angular Grid (max. ang.)         AngularGrid ... 2 (Lebedev-110)
Angular grid pruning method      GridPruning ... 4 (adaptive)
Weight generation scheme         WeightScheme... mBecke (2022)
Basis function cutoff            BFCut       ... 1.0000e-11
Integration weight cutoff        WCut        ... 1.0000e-14
Partially contracted basis set               ... on
Rotationally invariant grid construction     ... off
Angular grids for H and He will be reduced by one unit

Total number of grid points                  ...    23639
Total number of batches                      ...      195
Average number of points per batch           ...      121
Average number of grid points per atom       ...     1244
UseSFitting                                  ... on

GRIDX 3
-------
General Integration Accuracy     IntAcc      ... 4.338
Radial Grid Type                 RadialGrid  ... OptM3 with GC (2021)
Angular Grid (max. ang.)         AngularGrid ... 3 (Lebedev-194)
Angular grid pruning method      GridPruning ... 4 (adaptive)
Weight generation scheme         WeightScheme... mBecke (2022)
Basis function cutoff            BFCut       ... 1.0000e-11
Integration weight cutoff        WCut        ... 1.0000e-14
Partially contracted basis set               ... on
Rotationally invariant grid construction     ... off
Angular grids for H and He will be reduced by one unit

Total number of grid points                  ...    51905
Total number of batches                      ...      413
Average number of points per batch           ...      125
Average number of grid points per atom       ...     2732
UseSFitting                                  ... on
Initializing property integral containers    ... done (  0.0 sec)

SHARK setup successfully completed in   2.4 seconds

Maximum memory used throughout the entire STARTUP-calculation: 52.0 MB
-------------------------------------------------------------------------------
                                 ORCA GUESS
                   Start orbitals & Density for SCF / CASSCF
-------------------------------------------------------------------------------

------------
SCF SETTINGS
------------
Hamiltonian:
 Density Functional     Method          .... DFT(GTOs)
 Exchange Functional    Exchange        .... WB97X-V
 Correlation Functional Correlation     .... WB97X-V
 Gradients option       PostSCFGGA      .... off
 Hybrid DFT is turned on
   Fraction HF Exchange ScalHFX         ....  0.167000
   Scaling of DF-GGA-X  ScalDFX         ....  0.000000
   Scaling of DF-GGA-C  ScalDFC         ....  1.000000
   Scaling of DF-LDA-C  ScalLDAC        ....  1.000000
   Perturbative correction              ....  0.000000
 Long-range corrected/Screened/Range-Separated Hybrid DFT is turned on
   Amount of maximum screened exact exchange              ....  0.833000
   Range separation parameter mu (erf(mu*r12)/r12)        ....  0.300000
   NL short-range parameter             ....  6.000000
   NL long-range parameter              ....  0.010000
 RI-approximation to the Coulomb term is turned on
   Number of AuxJ basis functions       .... 551
   RIJ-COSX (HFX calculated with COS-X)).... on


General Settings:
 Integral files         IntName         .... sp_solv
 Hartree-Fock type      HFTyp           .... RHF
 Total Charge           Charge          ....    0
 Multiplicity           Mult            ....    1
 Number of Electrons    NEL             ....   66
 Basis Dimension        Dim             ....  339
 Nuclear Repulsion      ENuc            ....    420.5265860479 Eh

Convergence Acceleration:
 AO-DIIS                CNVDIIS         .... on
   Start iteration      DIISMaxIt       ....    12
   Startup error        DIISStart       ....  0.200000
   # of expansion vecs  DIISMaxEq       ....     5
   Bias factor          DIISBfac        ....   1.050
   Max. coefficient     DIISMaxC        ....  10.000
 MO-DIIS                CNVKDIIS        .... off
 Trust-Rad. Augm. Hess. CNVTRAH         .... auto
   Auto Start mean grad. ratio tolernc. ....  1.125000
   Auto Start start iteration           ....     1
   Auto Start num. interpolation iter.  ....    10
   Max. Number of Micro iterations      ....    24
   Max. Number of Macro iterations      .... Maxiter - #DIIS iter
   Number of Davidson start vectors     ....     2
   Converg. threshold    (grad. norm)   ....   1.000e-04
   Grad. Scal. Fac. for Micro threshold ....   0.100
   Minimum threshold for Micro iter.    ....   1.000e-02
   NR start threshold (gradient norm)   ....   1.000e-04
   Initial trust radius                 ....   0.400
   Minimum AH scaling param. (alpha)    ....   1.000
   Maximum AH scaling param. (alpha)    .... 1000.000
   Quad. conv. algorithm                .... NR
   White noise on init. David. guess    .... on
   Maximum white noise                  ....   0.010
   Pseudo random numbers                .... off
   Inactive MOs                         .... canonical
   Orbital update algorithm             .... Taylor
   Preconditioner                       .... Diag
   Full preconditioner red. dimension   ....   250
 SOSCF                  CNVSOSCF        .... on
   Start iteration      SOSCFMaxIt      ....   150
   Startup grad/error   SOSCFStart      ....  0.003300
   Hessian update       SOSCFHessUp     .... L-BFGS
 Level Shifting         CNVShift        .... on
   Level shift para.    LevelShift      ....    0.2500
   Turn off err/grad.   ShiftErr        ....    0.0010
 Zerner damping         CNVZerner       .... off
 Static damping         CNVDamp         .... on
   Fraction old density DampFac         ....    0.7000
   Max. Damping (<1)    DampMax         ....    0.9800
   Min. Damping (>=0)   DampMin         ....    0.0000
   Turn off err/grad.   DampErr         ....    0.1000

SCF Procedure:
 Maximum # iterations   MaxIter         ....   125
 SCF integral mode      SCFMode         .... Direct
   Integral package                     .... SHARK and LIBINT hybrid scheme
 Reset frequency        DirectResetFreq ....    20
 Integral Threshold     Thresh          ....  3.000e-11 Eh
 Primitive CutOff       TCut            ....  1.000e-12 Eh

Convergence Tolerance:
 Convergence Check Mode ConvCheckMode   .... Total+1el-Energy
 Convergence forced     ConvForced      .... 0
 Energy Change          TolE            ....  1.000e-07 Eh
 1-El. energy change                    ....  1.000e-04 Eh
 Orbital Gradient       TolG            ....  1.000e-04
 Orbital Rotation angle TolX            ....  1.000e-04
 DIIS Error             TolErr          ....  1.000e-07

---------------------
INITIAL GUESS: MOREAD
---------------------
Guess MOs are being read from file: sp_solv.ges
Input Geometry matches current geometry (good)
Atom 0: N(Shells)= 11 and 9 - projection required
Input basis set needs projection
NBasis(read)= 226
NBasis(calc)= 339
Basis set overlap was calculated
Using GuessMode=FMatrix for the initial guess
C*T matrix was formed
Effective Fockian was calculated
Effective Fockian was diagonalized
Initial density was built
                      ------------------
                      INITIAL GUESS DONE (   0.1 sec)
                      ------------------
             **** ENERGY FILE WAS UPDATED (sp_solv.en.tmp) ****
Finished Guess after   0.3 sec
Maximum memory used throughout the entire GUESS-calculation: 32.7 MB

-------------------------------------------------------------------------------------------
                                      ORCA LEAN-SCF
                              memory conserving SCF solver
-------------------------------------------------------------------------------------------

--------------------
CPCM SOLVATION MODEL
--------------------
CPCM parameters:
  Epsilon                                         ...      78.3550
  Refrac                                          ...       1.3328
  Rsolv                                           ...       1.3000
  Surface type                                    ... GAUSSIAN VDW
  Discretization scheme                           ... Constant charge density
    Threshold for H atoms                         ...       5.0000 (charges/Ang^2)
    Threshold for non-H atoms                     ...       5.0000 (charges/Ang^2)
  Epsilon function type                           ...         CPCM
Solvent:                                          ... WATER
SMD-CDS solvent descriptors:
  Soln                                            ...       1.3328
  Soln25                                          ...       1.3323
  Sola                                            ...       0.0000
  Solb                                            ...       0.0000
  Solg                                            ...       0.0000
  Solc                                            ...       0.0000
  Solh                                            ...       0.0000
Radii:
  Scheme                                          ... Element-dependent radii
  Radius for C  used is    3.4960 Bohr (=   1.8500 Ang.)
  Radius for O  used is    2.8724 Bohr (=   1.5200 Ang.)
  Radius for H  used is    2.2677 Bohr (=   1.2000 Ang.)
Calculating surface                               ...        done! (  0.0s)
Cavity surface points                             ...         1473
Cavity Volume                                     ...     918.2743
Cavity Surface-area                               ...     580.3148
Calculating surface distance matrix               ...        done! (  0.0s)
Performing Cholesky decomposition & store         ...        done! (  0.1s)
Overall time for CPCM initialization              ...                 0.1s

----------------------------------------D-I-I-S--------------------------------------------
Iteration    Energy (Eh)           Delta-E    RMSDP     MaxDP     DIISErr   Damp  Time(sec)
-------------------------------------------------------------------------------------------
               ***  Starting incremental Fock matrix formation  ***
    1    -386.3684439896086360     0.00e+00  1.15e-03  4.45e-02  4.86e-02  0.700  21.7
    2    -386.3736216664559606    -5.18e-03  9.66e-04  3.60e-02  3.47e-02  0.700  10.8
                               ***Turning on AO-DIIS***
    3    -386.3775137200851759    -3.89e-03  7.70e-04  2.80e-02  2.47e-02  0.700  10.7
    4    -386.3803701001737636    -2.86e-03  1.88e-03  6.81e-02  1.74e-02  0.000  10.6
                              *** Initializing SOSCF ***
---------------------------------------S-O-S-C-F--------------------------------------
Iteration    Energy (Eh)           Delta-E    RMSDP     MaxDP     MaxGrad    Time(sec)
--------------------------------------------------------------------------------------
    5    -386.3875888299600092    -7.22e-03  6.05e-05  1.79e-03  7.18e-04    11.0
               *** Restarting incremental Fock matrix formation ***
    6    -386.3875985126204569    -9.68e-06  3.09e-05  7.73e-04  3.51e-04    21.7
    7    -386.3876017805602032    -3.27e-06  1.49e-05  3.67e-04  1.08e-04    16.3
    8    -386.3876020716370476    -2.91e-07  6.98e-06  4.81e-04  5.25e-05    15.6
    9    -386.3876022175639946    -1.46e-07  1.36e-06  4.19e-05  5.80e-06    13.9
                  *** Gradient check signals convergence ***

               *****************************************************
               *                     SUCCESS                       *
               *           SCF CONVERGED AFTER   9 CYCLES          *
               *****************************************************


------------------
NL GRID GENERATION
------------------

General Integration Accuracy     IntAcc      ... 4.004
Radial Grid Type                 RadialGrid  ... OptM3 with GC (2021)
Angular Grid (max. ang.)         AngularGrid ... 2 (Lebedev-110)
Angular grid pruning method      GridPruning ... 4 (adaptive)
Weight generation scheme         WeightScheme... mBecke (2022)
Basis function cutoff            BFCut       ... 1.0000e-10
Integration weight cutoff        WCut        ... 1.0000e-14
Partially contracted basis set               ... off
Rotationally invariant grid construction     ... off
Angular grids for H and He will be reduced by one unit

Total number of grid points                  ...    26806
Total number of batches                      ...      427
Average number of points per batch           ...       62
Average number of grid points per atom       ...     1411
Final grid set up in    0.2 sec

-------------------------------------------------------------------------------
                    post-SCF DFT-NL dispersion correction                      
-------------------------------------------------------------------------------

SCF Energy:     -386.387602218 
NL    Energy:      0.250438552 
SC+NL Energy:   -386.137163666 
NL done in  :              2.7 sec
-------------------------------------------------------------------------------
Recomputing exchange energy using gridx3       ... done (   37.768 sec)
Old exchange energy                            :    -17.491290989 Eh
New exchange energy                            :    -17.491307880 Eh
Exchange energy change after final integration :     -0.000016890 Eh
Total energy after final integration           :   -386.137180556 Eh

SMD CDS free energy correction energy :                 3.56262     Kcal/mol
Total Energy after SMD CDS correction =              -386.131503166 Eh
             **** ENERGY FILE WAS UPDATED (sp_solv.en.tmp) ****

----------------
TOTAL SCF ENERGY
----------------

Total Energy       :       -386.13150316605135 Eh          -10507.17238 eV

Components:
Nuclear Repulsion  :        420.52658604787428 Eh           11443.11016 eV
Electronic Energy  :       -806.89156962776815 Eh          -21956.63586 eV
One Electron Energy:      -1355.69536187997505 Eh          -36890.34627 eV
Two Electron Energy:        548.80379225220690 Eh           14933.71040 eV
CPCM Dielectric    :         -0.02261863767009 Eh              -0.61548 eV
SMD CDS (Gcds)     :          0.00567739009247 Eh               0.15449 eV

Virial components:
Potential Energy   :       -770.68677306184145 Eh          -20971.45326 eV
Kinetic Energy     :        384.55526989579005 Eh           10464.28089 eV
Virial Ratio       :          2.00409884714540

DFT components:
N(Alpha)           :       32.999998651831 electrons
N(Beta)            :       32.999998651831 electrons
N(Total)           :       65.999997303662 electrons
E(X)               :      -35.758772067046 Eh       
E(C)               :       -2.714576264843 Eh       
NL Energy, E(C,NL) :        0.250438551873 Eh       
E(XC)              :      -38.222909780016 Eh       

CPCM Solvation Model Properties:
Surface-charge          :         -0.05026619472106
Corrected charge        :          0.00000000000000
Outlying charge corr.   :          0.00019214797753 Eh               0.00523 eV
Free-energy (cav+disp)  :          0.00567739009247 Eh               0.15449 eV

---------------
SCF CONVERGENCE
---------------

  Last Energy change         ...    1.4593e-07  Tolerance :   1.0000e-07
  Last MAX-Density change    ...    4.1904e-05  Tolerance :   1.0000e-05
  Last RMS-Density change    ...    1.3617e-06  Tolerance :   1.0000e-06
  Last DIIS Error            ...    7.1839e-04  Tolerance :   1.0000e-07
  Last Orbital Gradient      ...    5.8007e-06  Tolerance :   1.0000e-04
  Last Orbital Rotation      ...    2.0819e-05  Tolerance :   1.0000e-04


----------------
ORBITAL ENERGIES
----------------

  NO   OCC          E(Eh)            E(eV) 
   0   2.0000     -21.673210      -589.7580 
   1   2.0000     -12.087962      -328.9302 
   2   2.0000     -12.056211      -328.0662 
   3   2.0000     -12.048839      -327.8656 
   4   2.0000     -12.048567      -327.8582 
   5   2.0000     -12.045818      -327.7834 
   6   2.0000     -12.045217      -327.7670 
   7   2.0000     -12.044567      -327.7493 
   8   2.0000     -12.041473      -327.6651 
   9   2.0000      -1.672054       -45.4989 
  10   2.0000      -1.382796       -37.6278 
  11   2.0000      -1.302565       -35.4446 
  12   2.0000      -1.269048       -34.5326 
  13   2.0000      -1.240838       -33.7649 
  14   2.0000      -1.149314       -31.2744 
  15   2.0000      -1.102325       -29.9958 
  16   2.0000      -1.082171       -29.4474 
  17   2.0000      -1.016608       -27.6633 
  18   2.0000      -0.962466       -26.1900 
  19   2.0000      -0.953077       -25.9345 
  20   2.0000      -0.945256       -25.7217 
  21   2.0000      -0.933138       -25.3920 
  22   2.0000      -0.906827       -24.6760 
  23   2.0000      -0.872877       -23.7522 
  24   2.0000      -0.868108       -23.6224 
  25   2.0000      -0.831025       -22.6133 
  26   2.0000      -0.821787       -22.3620 
  27   2.0000      -0.808413       -21.9980 
  28   2.0000      -0.793492       -21.5920 
  29   2.0000      -0.775998       -21.1160 
  30   2.0000      -0.762506       -20.7488 
  31   2.0000      -0.636798       -17.3282 
  32   2.0000      -0.634079       -17.2542 
  33   0.0000      -0.240265        -6.5379 
  34   0.0000      -0.234821        -6.3898 
  35   0.0000      -0.133847        -3.6422 
  36   0.0000      -0.072522        -1.9734 
  37   0.0000      -0.037149        -1.0109 
  38   0.0000      -0.027943        -0.7604 
  39   0.0000       0.000382         0.0104 
  40   0.0000       0.009306         0.2532 
  41   0.0000       0.016454         0.4477 
  42   0.0000       0.017553         0.4776 
  43   0.0000       0.023946         0.6516 
*Only the first 10 virtual orbitals were printed.

                    ********************************
                    * MULLIKEN POPULATION ANALYSIS *
                    ********************************

-----------------------
MULLIKEN ATOMIC CHARGES
-----------------------
   0 C :   -0.188759
   1 C :   -0.136981
   2 C :   -0.310319
   3 C :    0.231627
   4 C :   -0.264400
   5 C :   -0.145436
   6 C :   -0.255509
   7 C :   -0.039702
   8 O :   -0.562143
   9 H :    0.159811
  10 H :    0.159372
  11 H :    0.156345
  12 H :    0.158974
  13 H :    0.159265
  14 H :    0.143885
  15 H :    0.131100
  16 H :    0.120166
  17 H :    0.122347
  18 H :    0.360357
Sum of atomic charges:   -0.0000000

--------------------------------
MULLIKEN REDUCED ORBITAL CHARGES
--------------------------------
  0 C s       :     3.200273  s :     3.200273
      pz      :     0.952602  p :     2.892514
      px      :     1.000362
      py      :     0.939549
      dz2     :     0.019553  d :     0.088679
      dxz     :     0.012774
      dyz     :     0.015729
      dx2y2   :     0.023659
      dxy     :     0.016964
      f0      :     0.000689  f :     0.007293
      f+1     :     0.000828
      f-1     :     0.001412
      f+2     :     0.001386
      f-2     :     0.001041
      f+3     :     0.000747
      f-3     :     0.001190

  1 C s       :     3.173768  s :     3.173768
      pz      :     0.976280  p :     2.864821
      px      :     0.934208
      py      :     0.954333
      dz2     :     0.010375  d :     0.091044
      dxz     :     0.020804
      dyz     :     0.013362
      dx2y2   :     0.022388
      dxy     :     0.024114
      f0      :     0.000473  f :     0.007348
      f+1     :     0.000917
      f-1     :     0.001156
      f+2     :     0.001097
      f-2     :     0.001227
      f+3     :     0.001062
      f-3     :     0.001415

  2 C s       :     3.267365  s :     3.267365
      pz      :     0.957887  p :     2.943391
      px      :     0.972483
      py      :     1.013022
      dz2     :     0.015834  d :     0.092177
      dxz     :     0.021583
      dyz     :     0.010856
      dx2y2   :     0.019682
      dxy     :     0.024222
      f0      :     0.000912  f :     0.007386
      f+1     :     0.001040
      f-1     :     0.000766
      f+2     :     0.001454
      f-2     :     0.001071
      f+3     :     0.001207
      f-3     :     0.000935

  3 C s       :     3.110689  s :     3.110689
      pz      :     0.867222  p :     2.512906
      px      :     0.793992
      py      :     0.851692
      dz2     :     0.025565  d :     0.134788
      dxz     :     0.027125
      dyz     :     0.018273
      dx2y2   :     0.032672
      dxy     :     0.031153
      f0      :     0.000882  f :     0.009989
      f+1     :     0.001312
      f-1     :     0.001536
      f+2     :     0.001897
      f-2     :     0.001169
      f+3     :     0.001352
      f-3     :     0.001841

  4 C s       :     3.234075  s :     3.234075
      pz      :     1.001695  p :     2.931773
      px      :     0.967277
      py      :     0.962801
      dz2     :     0.010108  d :     0.091189
      dxz     :     0.021635
      dyz     :     0.012968
      dx2y2   :     0.021397
      dxy     :     0.025082
      f0      :     0.000476  f :     0.007363
      f+1     :     0.000929
      f-1     :     0.001107
      f+2     :     0.001085
      f-2     :     0.001224
      f+3     :     0.001070
      f-3     :     0.001472

  5 C s       :     3.179662  s :     3.179662
      pz      :     0.955151  p :     2.867404
      px      :     0.932348
      py      :     0.979904
      dz2     :     0.016337  d :     0.091019
      dxz     :     0.021176
      dyz     :     0.011179
      dx2y2   :     0.019231
      dxy     :     0.023096
      f0      :     0.000921  f :     0.007352
      f+1     :     0.001016
      f-1     :     0.000804
      f+2     :     0.001428
      f-2     :     0.001075
      f+3     :     0.001179
      f-3     :     0.000928

  6 C s       :     3.218513  s :     3.218513
      pz      :     1.034422  p :     2.939942
      px      :     0.883549
      py      :     1.021970
      dz2     :     0.021643  d :     0.091597
      dxz     :     0.015880
      dyz     :     0.004665
      dx2y2   :     0.032392
      dxy     :     0.017017
      f0      :     0.000901  f :     0.005458
      f+1     :     0.000755
      f-1     :     0.000423
      f+2     :     0.000774
      f-2     :     0.000440
      f+3     :     0.001017
      f-3     :     0.001148

  7 C s       :     3.205970  s :     3.205970
      pz      :     0.664205  p :     2.702958
      px      :     1.010719
      py      :     1.028035
      dz2     :     0.034677  d :     0.121340
      dxz     :     0.033115
      dyz     :     0.022465
      dx2y2   :     0.024185
      dxy     :     0.006899
      f0      :     0.002109  f :     0.009433
      f+1     :     0.003086
      f-1     :     0.002142
      f+2     :     0.000427
      f-2     :     0.000315
      f+3     :     0.000627
      f-3     :     0.000727

  8 O s       :     3.781229  s :     3.781229
      pz      :     1.390054  p :     4.751338
      px      :     1.901114
      py      :     1.460170
      dz2     :     0.011498  d :     0.028061
      dxz     :     0.003950
      dyz     :     0.004390
      dx2y2   :     0.006885
      dxy     :     0.001337
      f0      :     0.000391  f :     0.001514
      f+1     :     0.000212
      f-1     :     0.000250
      f+2     :     0.000143
      f-2     :     0.000024
      f+3     :     0.000116
      f-3     :     0.000377

  9 H s       :     0.818335  s :     0.818335
      pz      :     0.004642  p :     0.021854
      px      :     0.012720
      py      :     0.004492

 10 H s       :     0.818825  s :     0.818825
      pz      :     0.008751  p :     0.021804
      px      :     0.006205
      py      :     0.006848

 11 H s       :     0.821827  s :     0.821827
      pz      :     0.005826  p :     0.021828
      px      :     0.005524
      py      :     0.010478

 12 H s       :     0.819251  s :     0.819251
      pz      :     0.008789  p :     0.021774
      px      :     0.006200
      py      :     0.006786

 13 H s       :     0.818931  s :     0.818931
      pz      :     0.005893  p :     0.021805
      px      :     0.005497
      py      :     0.010414

 14 H s       :     0.835099  s :     0.835099
      pz      :     0.004267  p :     0.021016
      px      :     0.004172
      py      :     0.012577

 15 H s       :     0.847761  s :     0.847761
      pz      :     0.012751  p :     0.021138
      px      :     0.004222
      py      :     0.004166

 16 H s       :     0.859867  s :     0.859867
      pz      :     0.003478  p :     0.019967
      px      :     0.012227
      py      :     0.004262

 17 H s       :     0.857348  s :     0.857348
      pz      :     0.002967  p :     0.020305
      px      :     0.004133
      py      :     0.013205

 18 H s       :     0.595338  s :     0.595338
      pz      :     0.009938  p :     0.044305
      px      :     0.015020
      py      :     0.019346


------------------------
MULLIKEN OVERLAP CHARGES
------------------------
B(  0-C ,  1-C ) :   0.8291 B(  0-C ,  2-C ) :   0.1229 B(  0-C ,  3-C ) :  -0.2335 
B(  0-C ,  4-C ) :   0.0646 B(  0-C ,  5-C ) :   0.8321 B(  0-C ,  9-H ) :   0.8795 
B(  0-C , 10-H ) :  -0.1008 B(  0-C , 13-H ) :  -0.0956 B(  1-C ,  2-C ) :   0.7612 
B(  1-C ,  3-C ) :   0.0863 B(  1-C ,  4-C ) :  -0.1746 B(  1-C ,  9-H ) :  -0.0922 
B(  1-C , 10-H ) :   0.8898 B(  1-C , 11-H ) :  -0.0914 B(  2-C ,  3-C ) :   0.4840 
B(  2-C ,  4-C ) :   0.0915 B(  2-C ,  5-C ) :  -0.2233 B(  2-C ,  6-C ) :  -0.1808 
B(  2-C ,  8-O ) :   0.1182 B(  2-C , 10-H ) :  -0.1091 B(  2-C , 11-H ) :   0.8912 
B(  3-C ,  4-C ) :   0.7601 B(  3-C ,  5-C ) :   0.0688 B(  3-C ,  6-C ) :   0.5876 
B(  3-C ,  8-O ) :  -0.1223 B(  3-C , 11-H ) :  -0.1135 B(  3-C , 12-H ) :  -0.1095 
B(  3-C , 14-H ) :  -0.1183 B(  3-C , 15-H ) :  -0.0762 B(  4-C ,  5-C ) :   0.8249 
B(  4-C ,  6-C ) :  -0.1677 B(  4-C , 12-H ) :   0.8912 B(  4-C , 13-H ) :  -0.1010 
B(  5-C ,  9-H ) :  -0.0907 B(  5-C , 12-H ) :  -0.1001 B(  5-C , 13-H ) :   0.8873 
B(  6-C ,  7-C ) :   0.6537 B(  6-C ,  8-O ) :  -0.1150 B(  6-C , 14-H ) :   0.8894 
B(  6-C , 15-H ) :   0.8015 B(  6-C , 16-H ) :  -0.1443 B(  6-C , 17-H ) :  -0.0530 
B(  7-C ,  8-O ) :   0.5485 B(  7-C , 14-H ) :  -0.0619 B(  7-C , 15-H ) :  -0.0609 
B(  7-C , 16-H ) :   0.8928 B(  7-C , 17-H ) :   0.8045 B(  7-C , 18-H ) :  -0.0772 
B(  8-O , 16-H ) :  -0.0846 B(  8-O , 17-H ) :  -0.0667 B(  8-O , 18-H ) :   0.6185 
B( 16-H , 17-H ) :  -0.0727 


                     *******************************
                     * LOEWDIN POPULATION ANALYSIS *
                     *******************************

----------------------
LOEWDIN ATOMIC CHARGES
----------------------
   0 C :   -0.157984
   1 C :   -0.150701
   2 C :   -0.126736
   3 C :   -0.153604
   4 C :   -0.119167
   5 C :   -0.150508
   6 C :   -0.224074
   7 C :   -0.320256
   8 O :   -0.096947
   9 H :    0.149232
  10 H :    0.150338
  11 H :    0.152655
  12 H :    0.154364
  13 H :    0.150343
  14 H :    0.148638
  15 H :    0.154131
  16 H :    0.121362
  17 H :    0.129428
  18 H :    0.189486

-------------------------------
LOEWDIN REDUCED ORBITAL CHARGES
-------------------------------
  0 C s       :     2.766108  s :     2.766108
      pz      :     0.973177  p :     2.964071
      px      :     0.984065
      py      :     1.006829
      dz2     :     0.074792  d :     0.385119
      dxz     :     0.055183
      dyz     :     0.077093
      dx2y2   :     0.103121
      dxy     :     0.074930
      f0      :     0.004313  f :     0.042686
      f+1     :     0.005273
      f-1     :     0.005800
      f+2     :     0.008375
      f-2     :     0.005688
      f+3     :     0.005422
      f-3     :     0.007816

  1 C s       :     2.766170  s :     2.766170
      pz      :     0.937866  p :     2.953856
      px      :     1.028706
      py      :     0.987284
      dz2     :     0.041058  d :     0.387999
      dxz     :     0.083974
      dyz     :     0.059282
      dx2y2   :     0.091892
      dxy     :     0.111792
      f0      :     0.003162  f :     0.042676
      f+1     :     0.005595
      f-1     :     0.005114
      f+2     :     0.007607
      f-2     :     0.004632
      f+3     :     0.006651
      f-3     :     0.009915

  2 C s       :     2.760246  s :     2.760246
      pz      :     0.954280  p :     2.942675
      px      :     1.027912
      py      :     0.960484
      dz2     :     0.056659  d :     0.381847
      dxz     :     0.092915
      dyz     :     0.049726
      dx2y2   :     0.087188
      dxy     :     0.095358
      f0      :     0.005375  f :     0.041968
      f+1     :     0.005039
      f-1     :     0.004009
      f+2     :     0.008347
      f-2     :     0.004900
      f+3     :     0.007360
      f-3     :     0.006938

  3 C s       :     2.711075  s :     2.711075
      pz      :     0.928907  p :     2.864328
      px      :     0.965182
      py      :     0.970239
      dz2     :     0.089723  d :     0.520650
      dxz     :     0.101065
      dyz     :     0.081508
      dx2y2   :     0.128139
      dxy     :     0.120215
      f0      :     0.005565  f :     0.057551
      f+1     :     0.007736
      f-1     :     0.006544
      f+2     :     0.011402
      f-2     :     0.006130
      f+3     :     0.008594
      f-3     :     0.011580

  4 C s       :     2.758460  s :     2.758460
      pz      :     0.939903  p :     2.937572
      px      :     1.020125
      py      :     0.977543
      dz2     :     0.040562  d :     0.381128
      dxz     :     0.082784
      dyz     :     0.057784
      dx2y2   :     0.089057
      dxy     :     0.110941
      f0      :     0.003166  f :     0.042007
      f+1     :     0.005542
      f-1     :     0.004832
      f+2     :     0.007497
      f-2     :     0.004597
      f+3     :     0.006607
      f-3     :     0.009767

  5 C s       :     2.766094  s :     2.766094
      pz      :     0.958723  p :     2.953437
      px      :     1.034708
      py      :     0.960005
      dz2     :     0.059624  d :     0.388264
      dxz     :     0.095231
      dyz     :     0.050493
      dx2y2   :     0.086629
      dxy     :     0.096287
      f0      :     0.005605  f :     0.042713
      f+1     :     0.005040
      f-1     :     0.004199
      f+2     :     0.008584
      f-2     :     0.004901
      f+3     :     0.007421
      f-3     :     0.006962

  6 C s       :     2.768660  s :     2.768660
      pz      :     1.021742  p :     3.043461
      px      :     0.997596
      py      :     1.024122
      dz2     :     0.090745  d :     0.374359
      dxz     :     0.069184
      dyz     :     0.023358
      dx2y2   :     0.115378
      dxy     :     0.075695
      f0      :     0.004296  f :     0.037594
      f+1     :     0.004706
      f-1     :     0.002851
      f+2     :     0.006574
      f-2     :     0.005952
      f+3     :     0.006197
      f-3     :     0.007017

  7 C s       :     2.808835  s :     2.808835
      pz      :     0.817059  p :     2.921704
      px      :     1.045547
      py      :     1.059097
      dz2     :     0.163103  d :     0.522895
      dxz     :     0.137968
      dyz     :     0.090392
      dx2y2   :     0.098779
      dxy     :     0.032654
      f0      :     0.016594  f :     0.066822
      f+1     :     0.018732
      f-1     :     0.014605
      f+2     :     0.004605
      f-2     :     0.005341
      f+3     :     0.003401
      f-3     :     0.003543

  8 O s       :     3.372835  s :     3.372835
      pz      :     1.427065  p :     4.656209
      px      :     1.789902
      py      :     1.439242
      dz2     :     0.023855  d :     0.063800
      dxz     :     0.012486
      dyz     :     0.015675
      dx2y2   :     0.010841
      dxy     :     0.000943
      f0      :     0.001026  f :     0.004103
      f+1     :     0.000870
      f-1     :     0.001291
      f+2     :     0.000199
      f-2     :     0.000028
      f+3     :     0.000089
      f-3     :     0.000601

  9 H s       :     0.791492  s :     0.791492
      pz      :     0.013458  p :     0.059276
      px      :     0.032740
      py      :     0.013078

 10 H s       :     0.790679  s :     0.790679
      pz      :     0.023212  p :     0.058982
      px      :     0.017089
      py      :     0.018681

 11 H s       :     0.788304  s :     0.788304
      pz      :     0.016299  p :     0.059041
      px      :     0.015403
      py      :     0.027339

 12 H s       :     0.786671  s :     0.786671
      pz      :     0.023348  p :     0.058964
      px      :     0.017096
      py      :     0.018521

 13 H s       :     0.790674  s :     0.790674
      pz      :     0.016415  p :     0.058983
      px      :     0.015405
      py      :     0.027163

 14 H s       :     0.793313  s :     0.793313
      pz      :     0.013538  p :     0.058049
      px      :     0.011995
      py      :     0.032516

 15 H s       :     0.787603  s :     0.787603
      pz      :     0.032853  p :     0.058266
      px      :     0.012173
      py      :     0.013240

 16 H s       :     0.820635  s :     0.820635
      pz      :     0.010872  p :     0.058003
      px      :     0.033013
      py      :     0.014119

 17 H s       :     0.812998  s :     0.812998
      pz      :     0.008927  p :     0.057573
      px      :     0.013107
      py      :     0.035539

 18 H s       :     0.654494  s :     0.654494
      pz      :     0.028998  p :     0.156020
      px      :     0.044969
      py      :     0.082054


---------------------------------
LOEWDIN BOND ORDERS (THRESH 0.050000)
---------------------------------
B(  0-C ,  1-C ) :   1.5887 B(  0-C ,  2-C ) :   0.2428 B(  0-C ,  3-C ) :   0.1030 
B(  0-C ,  4-C ) :   0.2426 B(  0-C ,  5-C ) :   1.5808 B(  0-C ,  9-H ) :   0.8299 
B(  0-C , 10-H ) :   0.0953 B(  0-C , 13-H ) :   0.0949 B(  1-C ,  2-C ) :   1.5836 
B(  1-C ,  3-C ) :   0.2358 B(  1-C ,  4-C ) :   0.1111 B(  1-C ,  5-C ) :   0.2447 
B(  1-C ,  9-H ) :   0.0954 B(  1-C , 10-H ) :   0.8280 B(  1-C , 11-H ) :   0.0948 
B(  2-C ,  3-C ) :   1.4824 B(  2-C ,  4-C ) :   0.2325 B(  2-C ,  5-C ) :   0.1104 
B(  2-C ,  6-C ) :   0.1732 B(  2-C , 10-H ) :   0.0962 B(  2-C , 11-H ) :   0.8190 
B(  3-C ,  4-C ) :   1.4730 B(  3-C ,  5-C ) :   0.2361 B(  3-C ,  6-C ) :   1.1436 
B(  3-C ,  7-C ) :   0.1448 B(  3-C , 11-H ) :   0.0930 B(  3-C , 12-H ) :   0.0926 
B(  3-C , 14-H ) :   0.0778 B(  3-C , 15-H ) :   0.0775 B(  4-C ,  5-C ) :   1.5919 
B(  4-C ,  6-C ) :   0.1713 B(  4-C , 12-H ) :   0.8185 B(  4-C , 13-H ) :   0.0965 
B(  5-C ,  9-H ) :   0.0951 B(  5-C , 12-H ) :   0.0951 B(  5-C , 13-H ) :   0.8280 
B(  6-C ,  7-C ) :   1.2256 B(  6-C ,  8-O ) :   0.1072 B(  6-C , 14-H ) :   0.8304 
B(  6-C , 15-H ) :   0.8252 B(  6-C , 16-H ) :   0.0799 B(  6-C , 17-H ) :   0.0742 
B(  7-C ,  8-O ) :   1.5357 B(  7-C , 14-H ) :   0.0761 B(  7-C , 15-H ) :   0.0829 
B(  7-C , 16-H ) :   0.8833 B(  7-C , 17-H ) :   0.8775 B(  7-C , 18-H ) :   0.0923 
B(  8-O , 18-H ) :   1.0166 

------------------------------------------
LOEWDIN REDUCED ORBITAL POPULATIONS PER MO
-------------------------------------------
THRESHOLD FOR PRINTING IS 0.1%%
                      0         1         2         3         4         5   
                 -21.67321 -12.08796 -12.05621 -12.04884 -12.04857 -12.04582
                   2.00000   2.00000   2.00000   2.00000   2.00000   2.00000
                  --------  --------  --------  --------  --------  --------
 0 C  s               0.0       0.0       0.0      17.0       3.2      55.8
 0 C  dyz             0.0       0.0       0.0       0.1       0.0       0.0
 0 C  dxy             0.0       0.0       0.0       0.0       0.1       0.0
 1 C  s               0.0       0.0       0.0      10.9      69.5       5.3
 2 C  s               0.0       0.0       0.8       0.1       7.3      11.2
 2 C  dyz             0.0       0.0       0.1       0.0       0.0       0.0
 3 C  s               0.0       0.0      97.0       0.0       0.0       0.7
 4 C  s               0.0       0.0       0.8       4.7       3.7      23.8
 5 C  s               0.0       0.0       0.0      66.2      15.3       2.0
 6 C  s               0.0       0.0       0.2       0.0       0.0       0.2
 7 C  s               0.0      99.5       0.0       0.0       0.0       0.0
 8 O  s              99.9       0.0       0.0       0.0       0.0       0.0

                      6         7         8         9        10        11   
                 -12.04522 -12.04457 -12.04147  -1.67205  -1.38280  -1.30257
                   2.00000   2.00000   2.00000   2.00000   2.00000   2.00000
                  --------  --------  --------  --------  --------  --------
 0 C  s               3.5      19.4       0.0       0.0       9.3      10.7
 0 C  pz              0.0       0.0       0.0       0.0       0.2       0.0
 0 C  px              0.0       0.0       0.0       0.0       2.7       0.7
 0 C  py              0.0       0.0       0.0       0.0       0.2       0.1
 0 C  dyz             0.0       0.0       0.0       0.0       0.3       0.4
 1 C  s               2.5      10.7       0.1       0.0       9.7       4.6
 1 C  pz              0.0       0.0       0.0       0.0       1.4       0.3
 1 C  px              0.0       0.0       0.0       0.0       0.9       1.0
 1 C  py              0.0       0.0       0.0       0.0       0.8       1.6
 1 C  dxz             0.0       0.0       0.0       0.0       0.1       0.1
 1 C  dyz             0.0       0.0       0.0       0.0       0.2       0.3
 1 C  dx2y2           0.1       0.0       0.0       0.0       0.0       0.2
 1 C  dxy             0.0       0.1       0.0       0.0       0.1       0.2
 2 C  s              33.9      45.2       0.5       0.0      11.0       0.4
 2 C  pz              0.0       0.0       0.0       0.0       0.8       1.5
 2 C  px              0.0       0.0       0.0       0.0       0.3       4.6
 2 C  py              0.0       0.0       0.0       0.0       2.2       0.0
 2 C  dz2             0.0       0.0       0.0       0.0       0.0       0.1
 2 C  dxz             0.0       0.0       0.0       0.0       0.3       0.2
 2 C  dyz             0.0       0.0       0.0       0.0       0.3       0.2
 2 C  dxy             0.0       0.0       0.0       0.0       0.0       0.5
 3 C  s               0.0       0.8       0.3       0.0      13.6      10.5
 3 C  pz              0.0       0.0       0.0       0.0       0.1       0.2
 3 C  px              0.0       0.0       0.0       0.2       1.5       3.5
 3 C  py              0.1       0.0       0.0       0.0       0.1       0.1
 3 C  dxz             0.1       0.0       0.0       0.0       0.1       0.0
 3 C  dyz             0.0       0.1       0.0       0.0       0.4       0.1
 3 C  dx2y2           0.0       0.0       0.1       0.0       0.0       0.1
 3 C  dxy             0.1       0.0       0.0       0.0       0.1       0.0
 4 C  s              48.9      16.7       0.4       0.0      11.1       0.5
 4 C  pz              0.0       0.0       0.0       0.0       1.6       0.0
 4 C  px              0.0       0.0       0.0       0.0       0.5       4.3
 4 C  py              0.0       0.0       0.0       0.0       1.3       1.9
 4 C  dz2             0.0       0.0       0.0       0.0       0.1       0.0
 4 C  dxz             0.0       0.0       0.0       0.0       0.0       0.4
 4 C  dyz             0.0       0.0       0.0       0.0       0.3       0.1
 4 C  dx2y2           0.0       0.0       0.0       0.0       0.0       0.3
 4 C  dxy             0.0       0.0       0.0       0.0       0.2       0.3
 5 C  s              10.2       5.3       0.1       0.0       9.7       4.4
 5 C  pz              0.0       0.0       0.0       0.0       0.5       1.2
 5 C  px              0.0       0.0       0.0       0.0       0.7       1.3
 5 C  py              0.0       0.0       0.0       0.0       2.0       0.5
 5 C  dxz             0.0       0.1       0.0       0.0       0.2       0.2
 5 C  dyz             0.0       0.0       0.0       0.0       0.2       0.3
 5 C  dxy             0.0       0.0       0.0       0.0       0.0       0.2
 6 C  s               0.0       1.1      97.9       0.3       2.5      14.5
 6 C  pz              0.0       0.0       0.0       0.7       0.1       0.4
 6 C  px              0.0       0.0       0.0       0.2       1.5       0.4
 6 C  py              0.0       0.0       0.0       0.2       0.2       0.6
 6 C  dz2             0.0       0.0       0.0       0.1       0.1       0.1
 6 C  dxz             0.0       0.0       0.0       0.1       0.0       0.0
 6 C  dx2y2           0.0       0.0       0.0       0.0       0.2       0.2
 7 C  s               0.0       0.0       0.0       6.0       0.4       5.7
 7 C  pz              0.0       0.0       0.0      10.1       0.1       1.3
 7 C  px              0.0       0.0       0.0       0.1       0.4       1.5
 7 C  py              0.0       0.0       0.0       0.2       0.1       0.6
 7 C  dz2             0.0       0.0       0.0       3.8       0.0       0.2
 7 C  dxz             0.0       0.0       0.0       0.1       0.0       0.2
 7 C  dyz             0.0       0.0       0.0       0.1       0.0       0.1
 7 C  dxy             0.0       0.0       0.1       0.0       0.0       0.2
 7 C  f0              0.0       0.0       0.0       0.6       0.0       0.0
 8 O  s               0.0       0.0       0.0      59.7       0.0       0.6
 8 O  pz              0.0       0.0       0.0       0.5       0.1       1.9
 8 O  py              0.0       0.0       0.0       0.4       0.0       0.1
 9 H  s               0.0       0.0       0.0       0.0       1.1       1.5
 9 H  px              0.0       0.0       0.0       0.0       0.1       0.1
10 H  s               0.0       0.0       0.0       0.0       1.1       0.7
11 H  s               0.0       0.0       0.0       0.0       1.3       0.1
12 H  s               0.0       0.0       0.0       0.0       1.3       0.1
13 H  s               0.0       0.0       0.0       0.0       1.1       0.6
14 H  s               0.0       0.0       0.0       0.0       0.4       2.5
14 H  py              0.0       0.0       0.0       0.0       0.0       0.2
15 H  s               0.0       0.0       0.0       0.0       0.4       2.6
15 H  pz              0.0       0.0       0.0       0.0       0.0       0.3
16 H  s               0.0       0.0       0.0       0.6       0.1       1.0
17 H  s               0.0       0.0       0.0       0.6       0.1       1.0
17 H  py              0.0       0.0       0.0       0.0       0.0       0.1
18 H  s               0.0       0.0       0.0      11.7       0.0       0.4
18 H  pz              0.0       0.0       0.0       0.2       0.0       0.0
18 H  py              0.0       0.0       0.0       3.0       0.0       0.1

                     12        13        14        15        16        17   
                  -1.26905  -1.24084  -1.14931  -1.10233  -1.08217  -1.01661
                   2.00000   2.00000   2.00000   2.00000   2.00000   2.00000
                  --------  --------  --------  --------  --------  --------
 0 C  s               0.0       7.3       3.6       0.0       4.7       0.2
 0 C  pz              3.9       0.0       0.0       7.0       0.1       0.0
 0 C  px              0.0       0.2       0.4       0.0       1.1       0.0
 0 C  py              5.7       0.0       0.0      10.2       0.1       0.0
 0 C  dz2             0.2       0.0       0.0       0.0       0.0       0.0
 0 C  dxz             0.8       0.0       0.0       0.2       0.0       0.0
 0 C  dyz             0.0       0.2       0.0       0.0       0.1       0.1
 0 C  dx2y2           0.1       0.1       0.0       0.0       0.0       0.1
 0 C  dxy             1.1       0.0       0.0       0.3       0.0       0.0
 1 C  s              12.3       1.1       0.1       5.9       2.1       0.5
 1 C  pz              0.1       0.1       0.1       0.4       0.8       0.5
 1 C  px              2.1       2.8       2.8       4.6       3.6       0.0
 1 C  py              0.7       1.7       1.7       0.5       5.0       0.8
 1 C  dz2             0.2       0.0       0.0       0.0       0.0       0.0
 1 C  dxz             0.1       0.3       0.1       0.1       0.0       0.0
 1 C  dyz             0.1       0.2       0.1       0.0       0.1       0.0
 1 C  dx2y2           0.5       0.4       0.2       0.1       0.1       0.0
 1 C  dxy             0.2       0.1       0.0       0.0       0.0       0.0
 2 C  s              12.6       2.9       1.7       5.8       0.8       0.0
 2 C  pz              0.5       0.6       0.3       0.5       4.5       0.8
 2 C  px              2.1       0.8       1.1       5.2       5.6       0.3
 2 C  py              0.2       0.2       0.0       0.5       1.5       0.8
 2 C  dz2             0.1       0.1       0.0       0.0       0.1       0.0
 2 C  dxz             0.2       0.0       0.0       0.0       0.0       0.1
 2 C  dyz             0.1       0.3       0.0       0.0       0.2       0.1
 2 C  dx2y2           0.6       0.1       0.1       0.0       0.3       0.2
 2 C  dxy             0.1       0.2       0.0       0.1       0.1       0.0
 3 C  s               0.0       3.6       1.0       0.0       4.9       0.1
 3 C  pz              3.9       0.2       0.6       7.5       0.1       0.5
 3 C  px              0.0       5.0       6.1       0.0       0.6       3.9
 3 C  py              5.7       0.2       0.8      10.8       0.0       0.6
 3 C  dz2             0.2       0.1       0.0       0.0       0.1       0.0
 3 C  dxz             0.9       0.0       0.1       0.2       0.1       0.1
 3 C  dyz             0.0       0.4       0.2       0.0       0.0       0.1
 3 C  dx2y2           0.1       0.7       0.3       0.0       0.3       0.1
 3 C  dxy             1.2       0.0       0.1       0.3       0.1       0.1
 4 C  s              12.3       3.2       1.8       5.7       0.8       0.0
 4 C  pz              0.1       0.1       0.0       0.4       0.9       0.6
 4 C  px              2.2       0.5       0.8       5.4       4.7       0.2
 4 C  py              0.7       0.8       0.4       0.7       6.0       1.2
 4 C  dz2             0.2       0.0       0.0       0.0       0.0       0.1
 4 C  dxz             0.1       0.1       0.0       0.1       0.1       0.0
 4 C  dyz             0.1       0.2       0.0       0.0       0.2       0.1
 4 C  dx2y2           0.5       0.3       0.0       0.1       0.4       0.1
 4 C  dxy             0.2       0.0       0.1       0.0       0.0       0.1
 5 C  s              12.6       0.9       0.0       6.1       2.0       0.5
 5 C  pz              0.5       1.3       1.3       0.4       3.7       0.6
 5 C  px              2.1       3.2       3.2       4.5       4.4       0.0
 5 C  py              0.2       0.1       0.1       0.5       1.3       0.7
 5 C  dz2             0.1       0.2       0.1       0.0       0.0       0.0
 5 C  dxz             0.2       0.1       0.0       0.0       0.0       0.0
 5 C  dyz             0.1       0.2       0.1       0.0       0.1       0.0
 5 C  dx2y2           0.6       0.1       0.1       0.0       0.0       0.0
 5 C  dxy             0.1       0.4       0.2       0.1       0.0       0.0
 6 C  s               0.0       7.3       7.9       0.0       3.0       1.5
 6 C  pz              0.1       0.3       0.6       0.5       0.3       0.7
 6 C  px              0.0       4.9       2.4       0.0       3.4       3.8
 6 C  py              0.1       0.5       0.9       0.6       0.3       1.2
 6 C  dz2             0.0       0.0       0.0       0.0       0.0       0.1
 6 C  dxz             0.1       0.4       0.3       0.2       0.0       0.1
 6 C  dyz             0.0       0.1       0.2       0.0       0.0       0.0
 6 C  dx2y2           0.0       0.1       0.0       0.0       0.2       0.2
 6 C  dxy             0.1       0.5       0.3       0.3       0.1       0.3
 7 C  s               0.0      14.8       7.6       0.0       0.0       3.3
 7 C  pz              0.0       1.2       2.2       0.0       3.7       4.5
 7 C  px              0.0       0.3       1.9       0.0       0.2       3.4
 7 C  py              0.0       0.2       2.5       0.0       2.1       0.9
 7 C  dz2             0.0       0.1       0.0       0.0       0.1       0.8
 7 C  dxz             0.0       0.1       0.2       0.0       0.1       0.0
 7 C  dyz             0.0       0.2       0.0       0.0       0.0       1.3
 7 C  dxy             0.0       0.1       0.3       0.0       0.1       0.1
 7 C  f-1             0.0       0.0       0.0       0.0       0.0       0.2
 8 O  s               0.0       1.2       0.4       0.0       0.1       3.1
 8 O  pz              0.0       8.0      15.2       0.1       3.2       0.4
 8 O  px              0.0       0.0       0.1       0.0       0.0       2.8
 8 O  py              0.0       1.0       6.6       0.0       6.5      36.5
 8 O  dz2             0.0       0.3       0.4       0.0       0.1       0.0
 8 O  dx2y2           0.0       0.0       0.1       0.0       0.0       0.2
 9 H  s               0.0       1.4       1.3       0.0       2.5       0.1
 9 H  px              0.0       0.2       0.1       0.0       0.2       0.0
10 H  s               2.1       0.2       0.0       2.8       1.3       0.8
10 H  pz              0.1       0.0       0.0       0.2       0.0       0.0
10 H  px              0.1       0.0       0.0       0.0       0.2       0.0
10 H  py              0.0       0.0       0.0       0.2       0.0       0.0
11 H  s               2.1       0.5       0.4       2.9       0.7       0.2
11 H  pz              0.0       0.0       0.0       0.1       0.0       0.0
11 H  px              0.1       0.0       0.0       0.0       0.1       0.0
11 H  py              0.2       0.0       0.0       0.2       0.0       0.0
12 H  s               2.1       0.5       0.4       2.8       0.7       0.2
12 H  pz              0.1       0.0       0.0       0.2       0.0       0.0
12 H  px              0.1       0.0       0.0       0.0       0.1       0.0
12 H  py              0.0       0.0       0.0       0.2       0.0       0.0
13 H  s               2.1       0.2       0.0       2.9       1.3       0.8
13 H  pz              0.0       0.0       0.0       0.1       0.0       0.0
13 H  px              0.1       0.0       0.0       0.0       0.1       0.0
13 H  py              0.1       0.0       0.0       0.2       0.1       0.0
14 H  s               0.0       1.5       2.7       0.1       1.7       0.9
14 H  py              0.0       0.2       0.2       0.0       0.1       0.1
15 H  s               0.0       1.7       2.6       0.0       1.7       0.8
15 H  pz              0.0       0.2       0.2       0.0       0.2       0.0
16 H  s               0.0       3.2       2.3       0.0       0.1       5.5
16 H  pz              0.0       0.0       0.1       0.0       0.0       0.0
16 H  px              0.0       0.4       0.2       0.0       0.0       0.4
17 H  s               0.0       3.3       3.2       0.0       0.1       0.8
17 H  py              0.0       0.4       0.3       0.0       0.0       0.1
18 H  s               0.0       1.7       4.6       0.0       2.6       8.8
18 H  py              0.0       0.3       0.4       0.0       0.1       0.1

                     18        19        20        21        22        23   
                  -0.96247  -0.95308  -0.94526  -0.93314  -0.90683  -0.87288
                   2.00000   2.00000   2.00000   2.00000   2.00000   2.00000
                  --------  --------  --------  --------  --------  --------
 0 C  s               0.1       0.9       0.3       0.0       1.7       0.3
 0 C  pz              1.9       0.4       5.2       0.3       0.0       0.3
 0 C  px              1.4       8.3       3.1       0.3       1.4       9.7
 0 C  py              1.1       6.1       3.2       0.0       0.3       1.4
 0 C  dz2             0.0       0.0       0.0       0.0       0.1       0.0
 0 C  dyz             0.0       0.0       0.0       0.0       1.1       0.0
 0 C  dx2y2           0.0       0.0       0.0       0.0       1.0       0.1
 0 C  dxy             0.0       0.0       0.0       0.0       0.1       0.0
 1 C  s               0.2       0.2       0.1       0.0       1.8       0.2
 1 C  pz              0.6       3.0       0.1       0.0       2.8       3.6
 1 C  px              4.2       0.2       8.2       0.2       2.2       1.1
 1 C  py              0.1       5.7       1.7       0.1       1.2       3.8
 1 C  dz2             0.0       0.1       0.0       0.0       0.4       0.0
 1 C  dxz             0.0       0.0       0.0       0.0       0.3       0.5
 1 C  dx2y2           0.0       0.0       0.1       0.0       0.0       0.2
[...]
 6 C  s               0.1       0.1       0.1       0.1       0.1       0.0
 6 C  pz              0.1       0.1       0.0       0.1       0.0       0.0
 6 C  px              0.0       0.1       0.0       0.0       0.1       0.0
 7 C  s               0.0       0.0       0.2       0.1       1.2       0.0
 7 C  pz              0.1       0.0       0.3       0.0       2.6       0.0
 7 C  px              0.0       0.1       0.0       0.7       0.0       0.0
 7 C  py              0.2       0.0       0.3       0.2       0.1       0.2
 7 C  dz2             0.7       0.0       0.4       0.0       1.6       0.1
 7 C  dxz             0.0       0.0       0.1       1.5       0.1       0.0
 7 C  dyz             0.0       0.0       0.7       0.1       0.1       0.6
 7 C  dx2y2           0.5       0.1       0.1       0.0       0.0       0.0
 7 C  dxy             0.1       0.3       0.0       0.1       0.0       0.0
 7 C  f0              0.2       0.0       0.0       0.0       0.3       0.2
 7 C  f+1             0.0       0.1       0.0       1.1       0.0       0.0
 7 C  f-1             0.1       0.0       0.3       0.0       0.1       0.4
 7 C  f+2             0.3       0.0       0.0       0.0       0.0       0.0
 7 C  f-2             0.0       0.0       0.0       0.1       0.0       0.0
 8 O  s               3.8       0.0       1.7       0.1       2.6       3.8
 8 O  pz              0.0       0.0       0.2       0.0       2.6       0.4
 8 O  px              0.1       0.1       0.2       0.8       0.0       0.1
 8 O  py              2.6       0.0       2.5       0.2       0.1       2.6
 8 O  dz2             0.1       0.0       3.1       0.6      66.0       9.8
 8 O  dxz             0.0       0.5       8.6      73.5       0.0       0.2
 8 O  dyz             4.3       0.3      48.2       5.3      12.5      20.5
 8 O  dx2y2          48.7       6.0      19.8       1.3       0.3      20.8
 8 O  dxy             3.0      87.0       1.8       0.7       0.0       0.8
 8 O  f0              5.8       0.0       2.7       1.0       8.1       1.1
 8 O  f+1             0.0       0.4       0.6      10.8       0.1       0.1
 8 O  f-1             4.3       0.0       0.1       0.2       0.7      12.8
 8 O  f+2             7.8       0.0       0.2       0.0       0.0       2.3
 8 O  f-2             0.7       0.1       0.0       0.0       0.0       0.2
 8 O  f+3             1.0       2.6       0.6       0.2       0.0       1.6
 8 O  f-3             8.3       0.4       4.5       0.2       0.0      11.4
16 H  s               0.0       0.1       0.0       0.1       0.0       0.0
17 H  s               0.2       0.0       0.0       0.0       0.0       0.0
17 H  pz              0.2       0.0       0.0       0.0       0.0       0.0
18 H  s               4.1       0.0       1.6       0.1       0.0       8.7
18 H  pz              0.0       0.0       0.2       0.0       0.1       0.0
18 H  px              0.0       0.5       0.0       0.0       0.0       0.0
18 H  py              2.0       0.0       0.2       0.0       0.1       0.6

                    330       331       332       333       334       335   
                  20.43100  20.79514  20.91977  21.01772  21.05204  21.14439
                   0.00000   0.00000   0.00000   0.00000   0.00000   0.00000
                  --------  --------  --------  --------  --------  --------
 0 C  s              17.6       0.4      21.9       0.1      35.7       0.0
 0 C  pz              0.0       0.0       0.0       0.3       0.0       0.0
 0 C  py              0.0       0.0       0.0       0.4       0.0       0.0
 0 C  dxy             0.0       0.0       0.0       0.1       0.0       0.0
 1 C  s              18.2       0.1       1.7      47.8       0.0       0.8
 1 C  px              0.0       0.0       0.1       0.0       0.2       0.1
 1 C  py              0.0       0.0       0.1       0.0       0.1       0.0
 2 C  s              16.4       0.1       9.3       0.5       9.2      46.6
 2 C  px              0.1       0.0       0.0       0.2       0.1       0.0
 3 C  s              11.9       0.2       2.0       0.0       2.0       0.1
 3 C  pz              0.0       0.0       0.0       0.1       0.0       0.3
 3 C  px              0.1       0.0       0.2       0.0       0.1       0.0
 3 C  py              0.0       0.0       0.0       0.1       0.0       0.4
 3 C  dxz             0.0       0.0       0.0       0.0       0.0       0.1
 3 C  dxy             0.0       0.0       0.0       0.0       0.0       0.2
 4 C  s              15.7       0.4       8.5       1.0       7.5      49.0
 4 C  px              0.1       0.0       0.0       0.1       0.1       0.0
 5 C  s              18.1       0.0       1.5      48.3       0.2       1.0
 5 C  px              0.0       0.0       0.1       0.0       0.2       0.1
 6 C  s               0.2       1.4      51.9       0.1      42.8       0.0
 7 C  s               0.2      95.4       1.6       0.1       0.2       0.4
 8 O  s               0.0       0.2       0.0       0.0       0.0       0.0
 8 O  pz              0.0       0.3       0.0       0.0       0.0       0.0
 8 O  dz2             0.0       0.1       0.0       0.0       0.0       0.0
11 H  s               0.1       0.0       0.0       0.0       0.0       0.1
12 H  s               0.1       0.0       0.0       0.0       0.0       0.1
14 H  s               0.0       0.0       0.1       0.0       0.1       0.0
15 H  s               0.0       0.0       0.1       0.0       0.1       0.0
16 H  s               0.0       0.2       0.0       0.0       0.0       0.0
16 H  px              0.0       0.1       0.0       0.0       0.0       0.0
17 H  s               0.0       0.2       0.0       0.0       0.0       0.0
17 H  py              0.0       0.1       0.0       0.0       0.0       0.0

                    336       337       338   
                  21.21407  21.61915  41.42348
                   0.00000   0.00000   0.00000
                  --------  --------  --------
 0 C  s              13.3       9.1       0.0
 1 C  s              23.9       5.6       0.0
 2 C  s               0.8      14.9       0.0
 2 C  px              0.2       0.1       0.0
 3 C  s              35.1      47.2       0.0
 4 C  s               0.4      15.4       0.0
 4 C  px              0.2       0.0       0.0
 4 C  py              0.1       0.0       0.0
 5 C  s              23.4       5.7       0.0
 6 C  s               1.1       0.6       0.0
 7 C  s               0.2       0.0       0.1
 8 O  s               0.0       0.0      99.8


                      *****************************
                      * MAYER POPULATION ANALYSIS *
                      *****************************

  NA   - Mulliken gross atomic population
  ZA   - Total nuclear charge
  QA   - Mulliken gross atomic charge
  VA   - Mayer's total valence
  BVA  - Mayer's bonded valence
  FA   - Mayer's free valence

  ATOM       NA         ZA         QA         VA         BVA        FA
  0 C      6.1888     6.0000    -0.1888     3.9036     3.9036    -0.0000
  1 C      6.1370     6.0000    -0.1370     3.8667     3.8667    -0.0000
  2 C      6.3103     6.0000    -0.3103     4.0200     4.0200    -0.0000
  3 C      5.7684     6.0000     0.2316     3.5195     3.5195    -0.0000
  4 C      6.2644     6.0000    -0.2644     3.9173     3.9173     0.0000
  5 C      6.1454     6.0000    -0.1454     3.8693     3.8693    -0.0000
  6 C      6.2555     6.0000    -0.2555     3.8518     3.8518    -0.0000
  7 C      6.0397     6.0000    -0.0397     3.9374     3.9374    -0.0000
  8 O      8.5621     8.0000    -0.5621     1.8541     1.8541     0.0000
  9 H      0.8402     1.0000     0.1598     0.9631     0.9631    -0.0000
 10 H      0.8406     1.0000     0.1594     0.9628     0.9628     0.0000
 11 H      0.8437     1.0000     0.1563     0.9697     0.9697    -0.0000
 12 H      0.8410     1.0000     0.1590     0.9653     0.9653     0.0000
 13 H      0.8407     1.0000     0.1593     0.9632     0.9632    -0.0000
 14 H      0.8561     1.0000     0.1439     0.9620     0.9620    -0.0000
 15 H      0.8689     1.0000     0.1311     0.9739     0.9739    -0.0000
 16 H      0.8798     1.0000     0.1202     0.9628     0.9628    -0.0000
 17 H      0.8777     1.0000     0.1223     0.9639     0.9639    -0.0000
 18 H      0.6396     1.0000     0.3604     0.8850     0.8850    -0.0000

  Mayer bond orders larger than 0.100000
B(  0-C ,  1-C ) :   1.4032 B(  0-C ,  5-C ) :   1.3938 B(  0-C ,  9-H ) :   0.9753 
B(  1-C ,  2-C ) :   1.4220 B(  1-C , 10-H ) :   0.9772 B(  2-C ,  3-C ) :   1.3694 
B(  2-C , 11-H ) :   0.9764 B(  3-C ,  4-C ) :   1.3485 B(  3-C ,  6-C ) :   0.8969 
B(  4-C ,  5-C ) :   1.4275 B(  4-C , 12-H ) :   0.9791 B(  5-C , 13-H ) :   0.9775 
B(  6-C ,  7-C ) :   0.9902 B(  6-C , 14-H ) :   0.9858 B(  6-C , 15-H ) :   0.9631 
B(  7-C ,  8-O ) :   0.9799 B(  7-C , 16-H ) :   0.9804 B(  7-C , 17-H ) :   0.9683 
B(  8-O , 18-H ) :   0.8670 

-------
TIMINGS
-------

Total SCF time: 0 days 0 hours 2 min 53 sec 

Total time                  ....     173.733 sec
Sum of individual times     ....     170.494 sec  ( 98.1%)

SCF preparation             ....       0.355 sec  (  0.2%)
Fock matrix formation       ....     168.763 sec  ( 97.1%)
  Startup                   ....       0.056 sec  (  0.0% of F)
  Split-RI-J                ....       6.662 sec  (  3.9% of F)
  Chain of spheres X        ....     140.319 sec  ( 83.1% of F)
  XC integration            ....      16.357 sec  (  9.7% of F)
    XC Preparation          ....       0.000 sec  (  0.0% of XC)
    Basis function eval.    ....       3.636 sec  ( 22.2% of XC)
    Density eval.           ....       3.229 sec  ( 19.7% of XC)
    XC-Functional eval.     ....       3.519 sec  ( 21.5% of XC)
    XC-Potential eval.      ....       5.223 sec  ( 31.9% of XC)
  CPCM terms                ....       7.532 sec  (  4.5% of F)
Diagonalization             ....       0.000 sec  (  0.0%)
Density matrix formation    ....       0.222 sec  (  0.1%)
Total Energy calculation    ....       0.053 sec  (  0.0%)
Population analysis         ....       0.207 sec  (  0.1%)
Orbital Transformation      ....       0.080 sec  (  0.0%)
Orbital Orthonormalization  ....       0.000 sec  (  0.0%)
DIIS solution               ....       0.374 sec  (  0.2%)
  MO trafo                  ....       0.000 sec  (  0.0 % of DIIS)
  Orb grad                  ....       0.000 sec  (  0.0 % of DIIS)
  Energy W gradient         ....       0.000 sec  (  0.0 % of DIIS)
  DIIS error                ....       0.016 sec  (  4.4 % of DIIS)
  DIIS work                 ....       0.304 sec  ( 81.2 % of DIIS)
  Form Q                    ....       0.000 sec  (  0.0 % of DIIS)
  Form QpQm                 ....       0.000 sec  (  0.0 % of DIIS)
  Exp/Cayley                ....       0.000 sec  (  0.0 % of DIIS)
  Orb update                ....       0.000 sec  (  0.0 % of DIIS)
  Wake-sleep                ....       0.013 sec  (  3.6 % of DIIS)
SOSCF solution              ....       0.230 sec  (  0.1%)
  MO trafo                  ....       0.081 sec  ( 35.0 % of SOSCF)
  Orb grad                  ....       0.002 sec  (  1.0 % of SOSCF)
  Rot update                ....       0.076 sec  ( 33.2 % of SOSCF)
  Step                      ....       0.071 sec  ( 30.7 % of SOSCF)
Grid generation             ....       0.211 sec  (  0.1%)
Finished LeanSCF after 173.8 sec

Maximum memory used throughout the entire LEANSCF-calculation: 47.9 MB
------------------   -----------------
gCP correction             0.010893638
------------------   -----------------

-------------------------   --------------------
FINAL SINGLE POINT ENERGY      -386.120609528451
-------------------------   --------------------


------------------------------------------------------------------------------
                              ORCA PROPERTY CALCULATIONS
------------------------------------------------------------------------------

GBWName                                 ... sp_solv.gbw
Number of atoms                         ...     19
Number of basis functions               ...    339
Max core memory                         ...   1024 MB

Electric properties:
Dipole moment                           ... YES
Quadrupole moment                       ...  NO
Static polarizability (Dipole/Dipole)   ...  NO
Static polarizability (Dipole/Quad.)    ...  NO
Static polarizability (Quad./Quad.)     ...  NO
Static polarizability (Velocity)        ...  NO

Atomic electric properties:
Dipole moment                           ...  NO
Quadrupole moment                       ...  NO
Static polarizability                   ...  NO

Choice of electric origin               ... Center of mass
Position of electric origin             ...    -0.019647    -0.112346     0.077372

General magnetic properties:
Magnetizability                         ...  NO

EPR properties:
g-Tensor (aka g-matrix)                 ...  NO
Zero-Field splitting spin-orbit         ...  NO
Zero-field splitting spin-spin          ...  NO
Hyperfine couplings                     ...  NO (   0 nuclei)
Quadrupole couplings                    ...  NO (   0 nuclei)
Contact density                         ...  NO (   0 nuclei)

NMR properties:
Chemical shifts                         ...  NO (   0 nuclei)
Spin-rotation constants                 ...  NO (   0 nuclei)
Spin-spin couplings                     ...  NO (   0 nuclei,    0 pairs)

Choice of magnetic origin               ... GIAO
Position of magnetic origin             ...     0.000000     0.000000     0.000000

Properties with geometric perturbations:
SCF Hessian                             ...  NO
IR spectrum                             ...  NO
VCD spectrum                            ...  NO
X-ray spectroscopy properties:
SCF XES/XAS/RIXS spectra                ...  NO


-------------
DIPOLE MOMENT
-------------

Method             : SCF
Type of density    : Electron Density
Multiplicity       :   1
Irrep              :   0
Energy             :  -386.1315031660513455 Eh
Relativity type    : 
Basis              : AO
                                X                 Y                 Z
Electronic contribution:     -2.693782480       0.109346813       0.861600290
Nuclear contribution   :      3.032481020      -0.824324282      -1.526283941
                        -----------------------------------------
Total Dipole Moment    :      0.338698540      -0.714977469      -0.664683652
                        -----------------------------------------
Magnitude (a.u.)       :      1.033302395
Magnitude (Debye)      :      2.626445960



--------------------
Rotational spectrum 
--------------------
 
Rotational constants in cm-1:             0.111322             0.035658             0.031671 
Rotational constants in MHz :          3337.361578          1069.004918           949.461221 

Dipole components along the rotational axes: 
x,y,z [a.u.] :     0.352686     0.158774    -0.958185 
x,y,z [Debye]:     0.896456     0.403571    -2.435512 

 

Dipole moment calculation done in   0.0 sec 

Maximum memory used throughout the entire PROP-calculation: 29.7 MB

--------------------------------
SUGGESTED CITATIONS FOR THIS RUN
--------------------------------

Below you find a list of papers that are relevant to this ORCA run
We neither can nor want to force you to cite these papers, but we appreciate if you do
You receive ORCA, which is the product of decades of hard work by many enthusiastic individuals, for free
The only thing we kindly ask in return is that you cite our papers,
We deeply appreciate it, if you show your appreciation for ORCA by not just citing the generic ORCA reference.

Please note that relegating all ORCA citations to the supporting information does *not* help us.
SI sections are not indexed - citations you put there will not count into any citation statistics
But we need these citations in order to attract the funding resources that allow us to do what we are doing

Therefore, if you are a happy ORCA user, please consider citing a few of the papers listed below in the main body of your paper

In addition to the list printed below, the program has created the file sp_solv.bibtex that contains the list in bibtex format
You can import this file easily into all common literature databanks and citation aid programs


List of essential papers. We consider these as the minimum necessary citations

  1. Neese,F.
     Software update: the ORCA program system, version 5.0
     WIRES Comput. Molec. Sci., 2022 12(1)e1606
     doi.org/10.1002/wcms.1606

List of papers to cite with high priority. The work reported in these papers was absolutely
necessary for this run to complete.
Our perspective: the developers of density functionals and basis sets usually get cited in chemistry papers
Good! But without the algorithms to do something with them, the functionals or basis sets would not do anything.
Hence, in our opinion, the algorithm design and method developments papers are equally worthy of getting cited

  1. Neese,F.
     An improvement of the resolution of the identity approximation for the formation of the Coulomb matrix
     J. Comp. Chem., 2003 24(14)1740-1747
     doi.org/10.1002/jcc.10318
  2. Neese,F.; Wennmohs,F.; Hansen,A.; Becker,U.
     Efficient, approximate and parallel Hartree-Fock and hybrid DFT calculations. A 'chain-of-spheres' algorithm for the Hartree-Fock exchange
     Chem. Phys., 2009 356(1-3)98-109
     doi.org/10.1016/j.chemphys.2008.10.036
  3. Garcia-Rates,M.; Neese,F.
     Effect of the Solute Cavity on the Solvation Energy and its Derivatives within the Framework of the Gaussian Charge Scheme
     J. Comput. Chem., 2020 41 922-939
     doi.org/10.1002/jcc.26139
  4. Helmich-Paris,B.; de Souza,B.; Neese,F.; Izsák,R.
     An improved chain of spheres for exchange algorithm
     J. Chem. Phys., 2021 155 104109
     doi.org/doi: 10.1063/5.0058766.
  5. Neese,F.
     The SHARK Integral Generation and Digestion System
     J. Comp. Chem., 2022  1-16
     doi.org/10.1002/jcc.26942

List of suggested additional citations. These are papers that are important in the 'surrounding' of 
of this run, or papers that preceded the highly important papers. If you like your results we are grateful for a citation.

  1. Izsak,R.; Neese,F.
     An overlap fitted chain of spheres exchange method
     J. Chem. Phys., 2011 135 144105
     doi.org/10.1063/1.3646921
  2. Izsak,R.; Hansen,A.; Neese,F.
     The resolution of identity and chain of spheres approximations for the LPNO-CCSD singles Fock term
     Molec. Phys., 2012 110 2413-2417
     doi.org/10.1080/00268976.2012.687466
  3. Neese,F.
     The ORCA program system
     WIRES Comput. Molec. Sci., 2012 2(1)73-78
     doi.org/10.1002/wcms.81
  4. Izsak,R.; Neese,F.; Klopper,W.
     Robust fitting techniques in the chain of spheres approximation to the Fock exchange: The role of the complementary space
     J. Chem. Phys., 2013 139 
     doi.org/10.1063/1.4819264
  5. Neese,F.
     Software update: the ORCA program system, version 4.0
     WIRES Comput. Molec. Sci., 2018 8(1)1-6
     doi.org/10.1002/wcms.1327
  6. Neese,F.; Wennmohs,F.; Becker,U.; Riplinger,C.
     The ORCA quantum chemistry program package
     J. Chem. Phys., 2020 152 Art. No. L224108
     doi.org/10.1063/5.0004608

List of optional additional citations

  1. Neese,F.
     Approximate second-order SCF convergence for spin unrestricted wavefunctions
     Chem. Phys. Lett., 2000 325(1-3)93-98
     doi.org/10.1016/s0009-2614(00)00662-x

Timings for individual modules:

Sum of individual times          ...      176.723 sec (=   2.945 min)
Startup calculation              ...        2.457 sec (=   0.041 min)   1.4 %
SCF iterations                   ...      174.162 sec (=   2.903 min)  98.6 %
Property calculations            ...        0.104 sec (=   0.002 min)   0.1 %
                             ****ORCA TERMINATED NORMALLY****
TOTAL RUN TIME: 0 days 0 hours 2 minutes 57 seconds 386 msec
