      -----------------------------------------------------------      
     |                   =====================                   |     
     |                           x T B                           |     
     |                   =====================                   |     
     |                         S. Grimme                         |     
     |          Mulliken Center for Theoretical Chemistry        |     
     |                    University of Bonn                     |     
      -----------------------------------------------------------      

   * xtb version 6.7.1 (edcfbbe) compiled by 'albert@albert-system' on 2024-07-22

   xtb is free software: you can redistribute it and/or modify it under
   the terms of the GNU Lesser General Public License as published by
   the Free Software Foundation, either version 3 of the License, or
   (at your option) any later version.
   
   xtb is distributed in the hope that it will be useful,
   but WITHOUT ANY WARRANTY; without even the implied warranty of
   MERCHANTABILITY or FITNESS FOR A PARTICULAR PURPOSE.  See the
   GNU Lesser General Public License for more details.
   
   Cite this work as:
   * C. Bannwarth, E. Caldeweyher, S. Ehlert, A. Hansen, P. Pracht,
     J. Seibert, S. Spicher, S. Grimme, WIREs Comput. Mol. Sci., 2020, 11,
     e01493. DOI: 10.1002/wcms.1493
   
   for GFN2-xTB:
   * C. Bannwarth, S. Ehlert and S. Grimme., J. Chem. Theory Comput., 2019,
     15, 1652-1671. DOI: 10.1021/acs.jctc.8b01176
   for GFN1-xTB:
   * S. Grimme, C. Bannwarth, P. Shushkov, J. Chem. Theory Comput., 2017,
     13, 1989-2009. DOI: 10.1021/acs.jctc.7b00118
   for GFN0-xTB:
   * P. Pracht, E. Caldeweyher, S. Ehlert, S. Grimme, ChemRxiv, 2019, preprint.
     DOI: 10.26434/chemrxiv.8326202.v1
   for GFN-FF:
   * S. Spicher and S. Grimme, Angew. Chem. Int. Ed., 2020, 59, 15665-15673.
     DOI: 10.1002/anie.202004239
   
   for ALPB and GBSA implicit solvation:
   * S. Ehlert, M. Stahn, S. Spicher, S. Grimme, J. Chem. Theory Comput.,
     2021, 17, 4250-4261. DOI: 10.1021/acs.jctc.1c00471
   
   for ddCOSMO and CPCM-X implicit solvation:
   * M. Stahn, S. Ehlert, S. Grimme, J. Phys. Chem. A,
     2023, XX, XXXX-XXXX. DOI: 10.1021/acs.jpca.3c04382
   
   for DFT-D4:
   * E. Caldeweyher, C. Bannwarth and S. Grimme, J. Chem. Phys., 2017,
     147, 034112. DOI: 10.1063/1.4993215
   * E. Caldeweyher, S. Ehlert, A. Hansen, H. Neugebauer, S. Spicher,
     C. Bannwarth and S. Grimme, J. Chem. Phys., 2019, 150, 154122.
     DOI: 10.1063/1.5090222
   * E. Caldeweyher, J.-M. Mewes, S. Ehlert and S. Grimme, Phys. Chem. Chem. Phys.
     2020, 22, 8499-8512. DOI: 10.1039/D0CP00502A
   
   for sTDA-xTB:
   * S. Grimme and C. Bannwarth, J. Chem. Phys., 2016, 145, 054103.
     DOI: 10.1063/1.4959605
   
   in the mass-spec context:
   * V. Asgeirsson, C. Bauer and S. Grimme, Chem. Sci., 2017, 8, 4879.
     DOI: 10.1039/c7sc00601b
   * J. Koopman and S. Grimme, ACS Omega 2019, 4, 12, 15120-15133.
     DOI: 10.1021/acsomega.9b02011
   
   for metadynamics refer to:
   * S. Grimme, J. Chem. Theory Comput., 2019, 155, 2847-2862
     DOI: 10.1021/acs.jctc.9b00143
   
   for SPH calculations refer to:
   * S. Spicher and S. Grimme, J. Chem. Theory Comput., 2021, 17, 1701-1714
     DOI: 10.1021/acs.jctc.0c01306
   
   for ONIOM refer to:
   * C. Plett, A. Katbashev, S. Ehlert, S. Grimme, M. Bursch,
     Phys. Chem. Chem. Phys., 2023, 25, 17860-17868. DOI: 10.1039/D3CP02178E
   
   for DIPRO refer to:
   * J. Kohn, N. Gildemeister, S. Grimme, D. Fazzi, A. Hansen,
     J. Chem. Phys., 2023, just accepted.
   
   for PTB refer to:
   * S. Grimme, M. Mueller, A. Hansen, J. Chem. Phys., 2023, 158, 124111.
     DOI: 10.1063/5.0137838
   
   with help from (in alphabetical order)
   P. Atkinson, C. Bannwarth, F. Bohle, G. Brandenburg, E. Caldeweyher
   M. Checinski, S. Dohm, S. Ehlert, S. Ehrlich, I. Gerasimov, C. Hölzer
   A. Katbashev, J. Kohn, J. Koopman, C. Lavigne, S. Lehtola, F. März, M. Müller,
   F. Musil, H. Neugebauer, J. Pisarek, C. Plett, P. Pracht, F. Pultar,
   J. Seibert, P. Shushkov, S. Spicher, M. Stahn, M. Steiner, T. Strunk,
   J. Stückrath, T. Rose, and J. Unsleber
   
 * started run on 2025/04/11 at 12:21:03.401     
   ID    Z sym.   atoms
    1    6 C      1-4, 7
    2    8 O      5, 6
    3    1 H      8-17

           -------------------------------------------------
          |                Calculation Setup                |
           -------------------------------------------------

          program call               : /srv/scratch/z5358697/.xtb/bin/xtb xtb_opt.coord --opt normal --orca -I xtb_opt-xcontrol-inp
          hostname                   : k064
          coordinate file            : xtb_opt.coord
          omp threads                :                    16

           -------------------------------------------------
          |                   Orca driver                   |
           -------------------------------------------------
orca executable           : /apps/z_install_tree/linux-rocky8-ivybridge/gcc-12.2.0/orca-6.0.0-srtngmq3qlimg2qxbl6avaaiffipurdx/bin/orca
orca input file           : xtb_opt.inp
orca input line           : 
orca parallel             : true
orca number of threads    : 16
                         * ORCA takes the control...
  ------------------------------------------------------------------------

                                 *****************
                                 * O   R   C   A *
                                 *****************

                                            #,                                       
                                            ###                                      
                                            ####                                     
                                            #####                                    
                                            ######                                   
                                           ########,                                 
                                     ,,################,,,,,                         
                               ,,#################################,,                 
                          ,,##########################################,,             
                       ,#########################################, ''#####,          
                    ,#############################################,,   '####,        
                  ,##################################################,,,,####,       
                ,###########''''           ''''###############################       
              ,#####''   ,,,,##########,,,,          '''####'''          '####       
            ,##' ,,,,###########################,,,                        '##       
           ' ,,###''''                  '''############,,,                           
         ,,##''                                '''############,,,,        ,,,,,,###''
      ,#''                                            '''#######################'''  
     '                                                          ''''####''''         
             ,#######,   #######,   ,#######,      ##                                
            ,#'     '#,  ##    ##  ,#'     '#,    #''#        ,####,   ,####,        
            ##       ##  ##   ,#'  ##            #'  '#       #'       #'  '#        
            ##       ##  #######   ##           ,######,      #####,   #    #        
            '#,     ,#'  ##    ##  '#,     ,#' ,#      #,     #,   #   #,  ,#        
             '#######'   ##     ##  '#######'  #'      '#     '####' # '####'        



                #########################################################
                #                        -***-                          #
                #          Department of theory and spectroscopy        #
                #                                                       #
                #                      Frank Neese                      #
                #                                                       #
                #     Directorship, Architecture, Infrastructure        #
                #                    SHARK, DRIVERS                     #
                #        Core code/Algorithms in most modules           #
                #                                                       #
                #        Max Planck Institute fuer Kohlenforschung      #
                #                Kaiser Wilhelm Platz 1                 #
                #                 D-45470 Muelheim/Ruhr                 #
                #                      Germany                          #
                #                                                       #
                #                  All rights reserved                  #
                #                        -***-                          #
                #########################################################


                         Program Version 6.0.0  -   RELEASE  -


 With contributions from (in alphabetic order):
   Daniel Aravena         : Magnetic Suceptibility
   Michael Atanasov       : Ab Initio Ligand Field Theory (pilot matlab implementation)
   Alexander A. Auer      : GIAO ZORA, VPT2 properties, NMR spectrum
   Ute Becker             : All parallelization in ORCA, NUMFREQ, NUMCALC
   Giovanni Bistoni       : ED, misc. LED, open-shell LED, HFLD
   Martin Brehm           : Molecular dynamics
   Dmytro Bykov           : pre 5.0 version of the SCF Hessian
   Marcos Casanova-Páez   : Triplet and SCS-CIS(D). UHF-(DLPNO)-IP/EA/STEOM-CCSD. UHF-CVS-IP/STEOM-CCSD
   Vijay G. Chilkuri      : MRCI spin determinant printing, contributions to CSF-ICE
   Pauline Colinet        : FMM embedding
   Dipayan Datta          : RHF DLPNO-CCSD density
   Achintya Kumar Dutta   : EOM-CC, STEOM-CC
   Nicolas Foglia         : Exact transition moments, OPA infrastructure, MCD improvements
   Dmitry Ganyushin       : Spin-Orbit,Spin-Spin,Magnetic field MRCI
   Miquel Garcia          : C-PCM and meta-GGA Hessian, CCSD/C-PCM, Gaussian charge scheme
   Tiago L. C. Gouveia    : GS-ROHF, GS-ROCIS
   Yang Guo               : DLPNO-NEVPT2, F12-NEVPT2, CIM, IAO-localization
   Andreas Hansen         : Spin unrestricted coupled pair/coupled cluster methods
   Ingolf Harden          : AUTO-CI MPn and infrastructure 
   Benjamin Helmich-Paris : MC-RPA, TRAH-(SCF,CASSCF), AVAS, COSX integrals, SCF dyn. polar.
   Lee Huntington         : MR-EOM, pCC
   Robert Izsak           : Overlap fitted RIJCOSX, COSX-SCS-MP3, EOM
   Riya Kayal             : Wick's Theorem for AUTO-CI, AUTO-CI UHF-CCSDT
   Emily Kempfer          : AUTO-CI, RHF CISDT and CCSDT
   Christian Kollmar      : KDIIS, OOCD, Brueckner-CCSD(T), CCSD density, CASPT2, CASPT2-K, improved NEVPT2
   Axel Koslowski         : Symmetry handling
   Simone Kossmann        : Meta GGA functionals, TD-DFT gradient, OOMP2, (MP2 Hessian; deprecated post 5.0)
   Lucas Lang             : DCDCAS
   Marvin Lechner         : AUTO-CI (C++ implementation), FIC-MRCC
   Spencer Leger          : CASSCF response
   Dagmar Lenk            : GEPOL surface, SMD, ORCA-2-JSON
   Dimitrios Liakos       : Extrapolation schemes; Compound Job, initial MDCI parallelization
   Dimitrios Manganas     : Further ROCIS development; embedding schemes. LFT, Crystal Embedding
   Dimitrios Pantazis     : SARC Basis sets
   Anastasios Papadopoulos: AUTO-CI, single reference methods and gradients
   Taras Petrenko         : pre 6.0 DFT Hessian and TD-DFT gradient, (ASA, deprecated), ECA, 1-Electron XAS/XES, NRVS
   Peter Pinski           : DLPNO-MP2, DLPNO-MP2 Gradient
   Christoph Reimann      : Effective Core Potentials
   Marius Retegan         : Local ZFS, SOC
   Christoph Riplinger    : Optimizer, TS searches, QM/MM, DLPNO-CCSD(T), (RO)-DLPNO pert. Triples
   Michael Roemelt        : Original ROCIS implementation
   Masaaki Saitow         : Open-shell DLPNO-CCSD energy and density
   Barbara Sandhoefer     : DKH picture change effects
   Kantharuban Sivalingam : CASSCF convergence/infrastructure, NEVPT2 and variants, FIC-MRCI
   Bernardo de Souza      : ESD, SOC TD-DFT
   Georgi Stoychev        : AutoAux, RI-MP2 NMR, DLPNO-MP2 response, X2C
   Van Anh Tran           : RI-MP2 g-tensors
   Willem Van den Heuvel  : Paramagnetic NMR
   Zikuan Wang            : NOTCH, Electric field optimization 
   Frank Wennmohs         : Technical directorship and infrastructure
   Hang Xu                : AUTO-CI-Response properties 


 We gratefully acknowledge several colleagues who have allowed us to
 interface, adapt or use parts of their codes:
   Stefan Grimme, W. Hujo, H. Kruse, P. Pracht,  : VdW corrections, initial TS optimization,
                  C. Bannwarth, S. Ehlert,         DFT functionals, gCP, sTDA/sTD-DF
                  L. Wittmann, M. Mueller
   Ed Valeev, F. Pavosevic, A. Kumar             : LibInt (2-el integral package), F12 methods
   Garnet Chan, S. Sharma, J. Yang, R. Olivares  : DMRG
   Ulf Ekstrom                                   : XCFun DFT Library
   Mihaly Kallay                                 : mrcc  (arbitrary order and MRCC methods)
   Frank Weinhold                                : gennbo (NPA and NBO analysis)
   Simon Mueller                                 : openCOSMO-RS
   Christopher J. Cramer and Donald G. Truhlar   : smd solvation model
   Lars Goerigk                                  : TD-DFT with DH, B97 family of functionals
   V. Asgeirsson, H. Jonsson                     : NEB implementation
   FAccTs GmbH                                   : IRC, NEB, NEB-TS, DLPNO-Multilevel, CI-OPT
                                                   MM, QMMM, 2- and 3-layer-ONIOM, Crystal-QMMM,
                                                   LR-CPCM, SF, NACMEs, symmetry and pop. for TD-DFT,
                                                   nearIR, NL-DFT gradient (VV10), updates on ESD,
                                                   ML-optimized integration grids, MBIS, APM,
                                                   GOAT, DOCKER, SOLVATOR, interface openCOSMO-RS
   S Lehtola, MJT Oliveira, MAL Marques          : LibXC Library
   Liviu Ungur et al                             : ANISO software


 Your calculation uses the libint2 library for the computation of 2-el integrals
 For citations please refer to: http://libint.valeyev.net

 Your ORCA version has been built with support for libXC version: 6.2.2
 For citations please refer to: https://libxc.gitlab.io

 This ORCA versions uses:
   CBLAS   interface :  Fast vector & matrix operations
   LAPACKE interface :  Fast linear algebra routines
   SCALAPACK package :  Parallel linear algebra routines
   Shared memory     :  Shared parallel matrices
   BLAS/LAPACK       :  OpenBLAS 0.3.27  USE64BITINT DYNAMIC_ARCH NO_AFFINITY SkylakeX SINGLE_THREADED
        Core in use  :  SkylakeX
   Copyright (c) 2011-2014, The OpenBLAS Project




***************************************
The coordinates will be read from file: xtb_opt.xyz
***************************************


Your calculation utilizes the geometrical counterpoise correction gCP
Please cite in your paper:
H.Kruse, S. Grimme J.Chem.Phys., 136, (2012), 154101 
   

Your calculation utilizes the atom-pairwise dispersion correction
based on EEQ partial charges (D4)


Your calculation utilizes the SMD solvation module
Please cite in your paper:
A.V. Marenich, C.J. Cramer, D.G. Truhlar J. Phys. Chem. B, 113, (2009), 6378 

================================================================================

----- Orbital basis set information -----
Your calculation utilizes the basis: def2-mTZVPP
   Stefan Grimme, Andreas Hansen, Sebastian Ehlert, and Jan-Michael Mewes 
   J. Chem. Phys. 154, 064103 (2021). DOI: 10.1063/5.0040021

----- AuxJ basis set information -----
Your calculation utilizes the auxiliary basis: def2/J
   F. Weigend, Phys. Chem. Chem. Phys. 8, 1057 (2006).

================================================================================
                                        WARNINGS
                       Please study these warnings very carefully!
================================================================================

WARNING: Old DensityContainer found on disk!
         Will remove this file - 
         If you want to keep old densities, please start your calculation with a different basename. 

Using LibXC functional ID 497 : Re-regularized SCAN exchange by Furness et al
[ 1]  J. W. Furness, A. D. Kaplan, J. Ning, J. P. Perdew, and J. Sun.,  J. Phys. Chem. Lett. 11, 8208-8215 (2020)
[ 2]  J. W. Furness, A. D. Kaplan, J. Ning, J. P. Perdew, and J. Sun.,  J. Phys. Chem. Lett. 11, 9248-9248 (2020)
Using LibXC functional ID 498 : Re-regularized SCAN correlation by Furness et al
[ 1]  J. W. Furness, A. D. Kaplan, J. Ning, J. P. Perdew, and J. Sun.,  J. Phys. Chem. Lett. 11, 8208-8215 (2020)
[ 2]  J. W. Furness, A. D. Kaplan, J. Ning, J. P. Perdew, and J. Sun.,  J. Phys. Chem. Lett. 11, 9248-9248 (2020)
Using LibXC functional ID 497 : Re-regularized SCAN exchange by Furness et al
[ 1]  J. W. Furness, A. D. Kaplan, J. Ning, J. P. Perdew, and J. Sun.,  J. Phys. Chem. Lett. 11, 8208-8215 (2020)
[ 2]  J. W. Furness, A. D. Kaplan, J. Ning, J. P. Perdew, and J. Sun.,  J. Phys. Chem. Lett. 11, 9248-9248 (2020)
Using LibXC functional ID 498 : Re-regularized SCAN correlation by Furness et al
[ 1]  J. W. Furness, A. D. Kaplan, J. Ning, J. P. Perdew, and J. Sun.,  J. Phys. Chem. Lett. 11, 8208-8215 (2020)
[ 2]  J. W. Furness, A. D. Kaplan, J. Ning, J. P. Perdew, and J. Sun.,  J. Phys. Chem. Lett. 11, 9248-9248 (2020)

================================================================================
                                       INPUT FILE
================================================================================
NAME = xtb_opt.inp
|  1> ! r2scan-3c def2/J RI DEFGRID2 scfconv7 ENGRAD tightSCF miniprint
|  2> %cpcm
|  3>     smd true
|  4>     smdsolvent "water"
|  5> end
|  6> * xyzfile 0 1 xtb_opt.xyz
|  7> 
|  8>                          ****END OF INPUT****
================================================================================

                     *******************************
                     * Energy+Gradient Calculation *
                     *******************************

---------------------------------
CARTESIAN COORDINATES (ANGSTROEM)
---------------------------------
  C     -2.104851    0.930218   -0.744473
  C     -2.085537   -0.288958    0.173386
  C     -0.833528   -0.329956    1.062332
  C      0.415504   -0.374410    0.229258
  O      0.662376   -1.228194   -0.608375
  O      1.253307    0.650609    0.500783
  C      2.490997    0.669979   -0.255292
  H     -3.017285    0.953328   -1.348505
  H     -2.056890    1.859268   -0.164646
  H     -1.252365    0.921721   -1.435081
  H     -2.139168   -1.209993   -0.419206
  H     -2.962034   -0.279495    0.831353
  H     -0.839771   -1.239094    1.675672
  H     -0.804298    0.534543    1.730248
  H      3.044610    1.536905    0.116624
  H      2.278389    0.782332   -1.324999
  H      3.055491   -0.251647   -0.074887

----------------------------
CARTESIAN COORDINATES (A.U.)
----------------------------
  NO LB      ZA    FRAG     MASS         X           Y           Z
   0 C     6.0000    0    12.011   -3.977592    1.757857   -1.406850
   1 C     6.0000    0    12.011   -3.941093   -0.546052    0.327651
   2 C     6.0000    0    12.011   -1.575139   -0.623526    2.007516
   3 C     6.0000    0    12.011    0.785188   -0.707533    0.433235
   4 O     8.0000    0    15.999    1.251709   -2.320949   -1.149663
   5 O     8.0000    0    15.999    2.368407    1.229472    0.946343
   6 C     6.0000    0    12.011    4.707301    1.266077   -0.482433
   7 H     1.0000    0     1.008   -5.701842    1.801529   -2.548305
   8 H     1.0000    0     1.008   -3.886958    3.513507   -0.311135
   9 H     1.0000    0     1.008   -2.366627    1.741801   -2.711910
  10 H     1.0000    0     1.008   -4.042441   -2.286555   -0.792184
  11 H     1.0000    0     1.008   -5.597432   -0.528168    1.571030
  12 H     1.0000    0     1.008   -1.586937   -2.341548    3.166562
  13 H     1.0000    0     1.008   -1.519903    1.010140    3.269695
  14 H     1.0000    0     1.008    5.753479    2.904329    0.220387
  15 H     1.0000    0     1.008    4.305532    1.478393   -2.503886
  16 H     1.0000    0     1.008    5.774042   -0.475545   -0.141516

------------------------------------------------------------------------------
                   ___                                                        
                  /   \      - P O W E R E D   B Y -                         
                 /     \                                                     
                 |  |  |   _    _      __       _____    __    __             
                 |  |  |  | |  | |    /  \     |  _  \  |  |  /  |          
                  \  \/   | |  | |   /    \    | | | |  |  | /  /          
                 / \  \   | |__| |  /  /\  \   | |_| |  |  |/  /          
                |  |  |   |  __  | /  /__\  \  |    /   |      \           
                |  |  |   | |  | | |   __   |  |    \   |  |\   \          
                \     /   | |  | | |  |  |  |  | |\  \  |  | \   \       
                 \___/    |_|  |_| |__|  |__|  |_| \__\ |__|  \__/        
                                                                              
                      - O R C A' S   B I G   F R I E N D -                    
                                      &                                       
                       - I N T E G R A L  F E E D E R -                       
                                                                              
 v1 FN, 2020, v2 2021, v3 2022-2024                                           
------------------------------------------------------------------------------


----------------------
SHARK INTEGRAL PACKAGE
----------------------

Number of atoms                             ...     17
Number of basis functions                   ...    193
Number of shells                            ...     95
Maximum angular momentum                    ...      2
Integral batch strategy                     ... SHARK/LIBINT Hybrid
RI-J (if used) integral strategy            ... SPLIT-RIJ (Revised 2003 algorithm where possible)
Printlevel                                  ...      1
Contraction scheme used                     ... SEGMENTED contraction
Prescreening option                         ... SCHWARTZ
   Thresh                                   ... 3.000e-11
   Tcut                                     ... 1.000e-12
   Tpresel                                  ... 1.000e-12 
Coulomb Range Separation                    ... NOT USED
Exchange Range Separation                   ... NOT USED
Multipole approximations                    ... NOT USED
Finite Nucleus Model                        ... NOT USED
CABS basis                                  ... NOT available
Auxiliary Coulomb fitting basis             ... AVAILABLE
   # of basis functions in Aux-J            ...    453
   # of shells in Aux-J                     ...    155
   Maximum angular momentum in Aux-J        ...      4
Auxiliary J/K fitting basis                 ... NOT available
Auxiliary Correlation fitting basis         ... NOT available
Auxiliary 'external' fitting basis          ... NOT available

Checking pre-screening integrals            ... done (  0.0 sec) Dimension = 95
Check shell pair data                       ... done (  0.0 sec)
Shell pair information
Shell pair cut-off parameter TPreSel        ...   1.0e-12
Total number of shell pairs                 ...      4560
Shell pairs after pre-screening             ...      4176
Total number of primitive shell pairs       ...     16115
Primitive shell pairs kept                  ...     10734
          la=0 lb=0:   1384 shell pairs
          la=1 lb=0:   1557 shell pairs
          la=1 lb=1:    458 shell pairs
          la=2 lb=0:    466 shell pairs
          la=2 lb=1:    266 shell pairs
          la=2 lb=2:     45 shell pairs

Calculating one electron integrals          ... done (  0.0 sec)
Calculating RI/J V-Matrix + Cholesky decomp.... done (  0.1 sec)
Calculating Nuclear repulsion               ... done (  0.0 sec) ENN=    318.204894595284 Eh

Diagonalization of the overlap matrix:
Smallest eigenvalue                        ... 1.993e-04
Time for diagonalization                   ...    0.009 sec
Threshold for overlap eigenvalues          ... 1.000e-07
Number of eigenvalues below threshold      ... 0
Time for construction of square roots      ...    0.017 sec
Total time needed                          ...    0.038 sec

-------------------
DFT GRID GENERATION
-------------------

General Integration Accuracy     IntAcc      ... 4.388
Radial Grid Type                 RadialGrid  ... OptM3 with GC (2021)
Angular Grid (max. ang.)         AngularGrid ... 4 (Lebedev-302)
Angular grid pruning method      GridPruning ... 4 (adaptive)
Weight generation scheme         WeightScheme... mBecke (2022)
Basis function cutoff            BFCut       ... 1.0000e-11
Integration weight cutoff        WCut        ... 1.0000e-14
Partially contracted basis set               ... off
Rotationally invariant grid construction     ... off
Angular grids for H and He will be reduced by one unit
Diffuse basis detected: some atoms will have their outermost
                        angular grid increased by 1.

Total number of grid points                  ...    75072
Total number of batches                      ...     1182
Average number of points per batch           ...       63
Average number of grid points per atom       ...     4416
Initializing property integral containers    ... done (  0.0 sec)

SHARK setup successfully completed in   1.1 seconds

Maximum memory used throughout the entire STARTUP-calculation: 33.8 MB
Occupation numbers will be reassigned to an Aufbau configuration
             **** ENERGY FILE WAS UPDATED (xtb_opt.en.tmp) ****
Finished Guess after   0.3 sec
Maximum memory used throughout the entire GUESS-calculation: 13.1 MB
--------------------
CPCM SOLVATION MODEL
--------------------
CPCM parameters:
  Epsilon                                         ...      78.3550
  Refrac                                          ...       1.3328
  Rsolv                                           ...       1.3000
  Surface type                                    ... GAUSSIAN VDW
  Discretization scheme                           ... Constant charge density
    Threshold for H atoms                         ...       5.0000 (charges/Ang^2)
    Threshold for non-H atoms                     ...       5.0000 (charges/Ang^2)
  Epsilon function type                           ...         CPCM
Solvent:                                          ... WATER
SMD-CDS solvent descriptors:
  Soln                                            ...       1.3328
  Soln25                                          ...       1.3323
  Sola                                            ...       0.0000
  Solb                                            ...       0.0000
  Solg                                            ...       0.0000
  Solc                                            ...       0.0000
  Solh                                            ...       0.0000
Radii:
  Scheme                                          ... Element-dependent radii
  Radius for C  used is    3.4960 Bohr (=   1.8500 Ang.)
  Radius for O  used is    2.8724 Bohr (=   1.5200 Ang.)
  Radius for H  used is    2.2677 Bohr (=   1.2000 Ang.)
Calculating surface                               ...        done! (  0.0s)
Cavity surface points                             ...         1289
Cavity Volume                                     ...     765.1169
Cavity Surface-area                               ...     516.7629
Calculating surface distance matrix               ...        done! (  0.0s)
Performing Cholesky decomposition & store         ...        done! (  0.1s)
Overall time for CPCM initialization              ...                 0.1s

----------------------------------------D-I-I-S--------------------------------------------
Iteration    Energy (Eh)           Delta-E    RMSDP     MaxDP     DIISErr   Damp  Time(sec)
-------------------------------------------------------------------------------------------
               ***  Starting incremental Fock matrix formation  ***
                              *** Initializing SOSCF ***
---------------------------------------S-O-S-C-F--------------------------------------
Iteration    Energy (Eh)           Delta-E    RMSDP     MaxDP     MaxGrad    Time(sec)
--------------------------------------------------------------------------------------
    1    -346.9526481931742978     0.00e+00  4.78e-07  1.53e-05  1.86e-06     2.5
               *** Restarting incremental Fock matrix formation ***
    2    -346.9526481928803037     2.94e-10  7.79e-07  2.44e-05  5.82e-06     2.4
                  *** Gradient check signals convergence ***

               *****************************************************
               *                     SUCCESS                       *
               *           SCF CONVERGED AFTER   2 CYCLES          *
               *****************************************************


SMD CDS free energy correction energy :                 4.83143     Kcal/mol
Total Energy after SMD CDS correction =              -346.944948816 Eh
             **** ENERGY FILE WAS UPDATED (xtb_opt.en.tmp) ****

----------------
TOTAL SCF ENERGY
----------------

Total Energy       :       -346.94494881566220 Eh           -9440.85202 eV

Components:
Nuclear Repulsion  :        318.20489459528397 Eh            8658.79539 eV
Electronic Energy  :       -665.14154453502442 Eh          -18099.42158 eV
One Electron Energy:      -1102.02248288383544 Eh          -29987.55630 eV
Two Electron Energy:        436.88093834881096 Eh           11888.13471 eV
CPCM Dielectric    :         -0.01599825313989 Eh              -0.43533 eV
SMD CDS (Gcds)     :          0.00769937721809 Eh               0.20951 eV

Virial components:
Potential Energy   :       -692.26380805711437 Eh          -18837.45589 eV
Kinetic Energy     :        345.31885924145217 Eh            9396.60387 eV
Virial Ratio       :          2.00470895096139

DFT components:
N(Alpha)           :       28.000051721834 electrons
N(Beta)            :       28.000051721834 electrons
N(Total)           :       56.000103443669 electrons
E(X)               :      -46.109019817344 Eh       
E(C)               :       -1.785887984867 Eh       
E(XC)              :      -47.894907802212 Eh       

CPCM Solvation Model Properties:
Surface-charge          :         -0.04347823218392
Corrected charge        :          0.00000000000000
Outlying charge corr.   :          0.00015206682856 Eh               0.00414 eV
Free-energy (cav+disp)  :          0.00769937721809 Eh               0.20951 eV

---------------
SCF CONVERGENCE
---------------

  Last Energy change         ...   -2.9399e-10  Tolerance :   1.0000e-07
  Last MAX-Density change    ...    2.4369e-05  Tolerance :   1.0000e-07
  Last RMS-Density change    ...    7.7896e-07  Tolerance :   5.0000e-09
  Last DIIS Error            ...    2.2243e-05  Tolerance :   1.0000e-07
  Last Orbital Gradient      ...    5.8243e-06  Tolerance :   1.0000e-04
  Last Orbital Rotation      ...    1.4844e-05  Tolerance :   1.0000e-04


----------------
ORBITAL ENERGIES
----------------

  NO   OCC          E(Eh)            E(eV) 
   0   2.0000     -19.005632      -517.1695 
   1   2.0000     -18.946845      -515.5699 
   2   2.0000     -10.165436      -276.6156 
   3   2.0000     -10.078911      -274.2611 
   4   2.0000     -10.038427      -273.1595 
   5   2.0000     -10.031625      -272.9744 
   6   2.0000     -10.015301      -272.5302 
   7   2.0000      -1.070532       -29.1307 
   8   2.0000      -0.985134       -26.8069 
   9   2.0000      -0.765946       -20.8425 
  10   2.0000      -0.700490       -19.0613 
  11   2.0000      -0.652958       -17.7679 
  12   2.0000      -0.569523       -15.4975 
  13   2.0000      -0.522486       -14.2176 
  14   2.0000      -0.471835       -12.8393 
  15   2.0000      -0.456207       -12.4140 
  16   2.0000      -0.446886       -12.1604 
  17   2.0000      -0.414247       -11.2722 
  18   2.0000      -0.408151       -11.1064 
  19   2.0000      -0.371658       -10.1133 
  20   2.0000      -0.363797        -9.8994 
  21   2.0000      -0.355734        -9.6800 
  22   2.0000      -0.329164        -8.9570 
  23   2.0000      -0.309102        -8.4111 
  24   2.0000      -0.306687        -8.3454 
  25   2.0000      -0.301565        -8.2060 
  26   2.0000      -0.282684        -7.6922 
  27   2.0000      -0.254125        -6.9151 
  28   0.0000      -0.029584        -0.8050 
  29   0.0000       0.066340         1.8052 
  30   0.0000       0.094801         2.5797 
  31   0.0000       0.120640         3.2828 
  32   0.0000       0.132720         3.6115 
  33   0.0000       0.143224         3.8973 
  34   0.0000       0.148123         4.0306 
  35   0.0000       0.148892         4.0516 
  36   0.0000       0.168646         4.5891 
  37   0.0000       0.176036         4.7902 
  38   0.0000       0.184274         5.0143 
*Only the first 10 virtual orbitals were printed.
Total SCF time: 0 days 0 hours 0 min 5 sec 
Finished LeanSCF after   5.6 sec

Maximum memory used throughout the entire LEANSCF-calculation: 24.0 MB


-------------------------------------------------------------------------------
                          DFT DISPERSION CORRECTION                            
                                                                               
                                DFTD4 V3.4.0                                   
-------------------------------------------------------------------------------
-------------------------   ----------------
Dispersion correction           -0.004130224
-------------------------   ----------------

------------------   -----------------
gCP correction             0.010394544
------------------   -----------------

-------------------------   --------------------
FINAL SINGLE POINT ENERGY      -346.938684496242
-------------------------   --------------------

------------------------------------------------------------------------------
                         ORCA SCF GRADIENT CALCULATION
------------------------------------------------------------------------------

Nuc. rep. gradient        (SHARK) ... done (  0.0 sec)
HCore & Overlap gradient  (SHARK) ... done (  0.2 sec)
Split-RIJ-J gradient      (SHARK) ... done (  1.2 sec)
XC gradient                       ... done (  4.9 sec)
CPCM gradient                     ... done (  0.6 sec)
SMD gradient                      ... done (  0.0 sec)
Dispersion correction             ... done (  0.0 sec)

-------------------
DISPERSION GRADIENT
-------------------

   1   C   :   -0.000072123    0.000037698   -0.000033270
   2   C   :   -0.000062640   -0.000013798    0.000006598
   3   C   :   -0.000032877   -0.000020733    0.000046939
   4   C   :    0.000037919   -0.000019511    0.000010274
   5   O   :    0.000042198   -0.000060019   -0.000023766
   6   O   :    0.000071018    0.000015426    0.000014899
   7   C   :    0.000086385    0.000015084   -0.000014285
   8   H   :   -0.000028538    0.000014315   -0.000018883
   9   H   :   -0.000032286    0.000025284   -0.000009187
  10   H   :   -0.000030992    0.000013746   -0.000022332
  11   H   :   -0.000022204   -0.000011920   -0.000004053
  12   H   :   -0.000027703   -0.000002544    0.000006962
  13   H   :   -0.000007638   -0.000021144    0.000024812
  14   H   :   -0.000009847    0.000001712    0.000028364
  15   H   :    0.000027909    0.000013146   -0.000001389
  16   H   :    0.000035714    0.000007722   -0.000007830
  17   H   :    0.000025706    0.000005537   -0.000003851

Difference to translation invariance:
           :   -0.0000000000   -0.0000000000   -0.0000000000

Difference to rotation invariance:
           :    0.0000000000   -0.0000000000    0.0000000000

Norm of the Dispersion gradient    ...    0.0002195833
RMS gradient                       ...    0.0000307478
MAX gradient                       ...    0.0000863852
gCP correction                   ... done

------------------
CARTESIAN GRADIENT
------------------

   1   C   :   -0.000022143   -0.000060087   -0.000261497
   2   C   :    0.000320729    0.000210502    0.000007274
   3   C   :    0.000182638    0.000175122    0.000517587
   4   C   :   -0.001527955   -0.000507226   -0.000164356
   5   O   :    0.000349175   -0.001397964   -0.001122838
   6   O   :    0.001377243    0.001860829    0.000262455
   7   C   :   -0.001916099   -0.000570666    0.000948577
   8   H   :   -0.000067901   -0.000064826   -0.000264601
   9   H   :    0.000097746    0.000377107    0.000229746
  10   H   :    0.000341177   -0.000033885   -0.000207089
  11   H   :   -0.000278239   -0.000575577   -0.000265338
  12   H   :   -0.000418829    0.000131516    0.000574391
  13   H   :    0.000016141   -0.000296337    0.000086363
  14   H   :   -0.000014394   -0.000032128    0.000233253
  15   H   :    0.001429626    0.002278201    0.001059514
  16   H   :   -0.000614876    0.000424769   -0.002301615
  17   H   :    0.000745961   -0.001919349    0.000668176

Difference to translation invariance:
           :    0.0000000000   -0.0000000000   -0.0000000000

Difference to rotation invariance:
           :   -0.0002749439   -0.0000643706   -0.0000647804

Norm of the Cartesian gradient     ...    0.0061097394
RMS gradient                       ...    0.0008555346
MAX gradient                       ...    0.0023016155

-------
TIMINGS
-------

Total SCF gradient time     ....        7.579 sec

Densities                   ....       0.000 sec  (  0.0%)
One electron gradient       ....       0.207 sec  (  2.7%)
RI-J Coulomb gradient       ....       1.166 sec  ( 15.4%)
XC gradient                 ....       4.925 sec  ( 65.0%)
CPCM gradient               ....       0.649 sec  (  8.6%)
   A-Matrix (El+Nuc)        ....       0.055 sec  (  0.7%)
   Potential                ....       0.594 sec  (  7.8%)
SMD gradient                ....       0.014 sec  (  0.2%)

Maximum memory used throughout the entire SCFGRAD-calculation: 33.3 MB

------------------------------------------------------------------------------
                              ORCA PROPERTY CALCULATIONS
------------------------------------------------------------------------------

GBWName                                 ... xtb_opt.gbw
Number of atoms                         ...     17
Number of basis functions               ...    193
Max core memory                         ...   1024 MB

Electric properties:
Dipole moment                           ... YES
Quadrupole moment                       ...  NO
Static polarizability (Dipole/Dipole)   ...  NO
Static polarizability (Dipole/Quad.)    ...  NO
Static polarizability (Quad./Quad.)     ...  NO
Static polarizability (Velocity)        ...  NO

Atomic electric properties:
Dipole moment                           ...  NO
Quadrupole moment                       ...  NO
Static polarizability                   ...  NO

Choice of electric origin               ... Center of mass
Position of electric origin             ...     0.008990     0.031179     0.063825

General magnetic properties:
Magnetizability                         ...  NO

EPR properties:
g-Tensor (aka g-matrix)                 ...  NO
Zero-Field splitting spin-orbit         ...  NO
Zero-field splitting spin-spin          ...  NO
Hyperfine couplings                     ...  NO (   0 nuclei)
Quadrupole couplings                    ...  NO (   0 nuclei)
Contact density                         ...  NO (   0 nuclei)

NMR properties:
Chemical shifts                         ...  NO (   0 nuclei)
Spin-rotation constants                 ...  NO (   0 nuclei)
Spin-spin couplings                     ...  NO (   0 nuclei,    0 pairs)

Choice of magnetic origin               ... GIAO
Position of magnetic origin             ...     0.000000     0.000000     0.000000

Properties with geometric perturbations:
SCF Hessian                             ...  NO
IR spectrum                             ...  NO
VCD spectrum                            ...  NO
X-ray spectroscopy properties:
SCF XES/XAS/RIXS spectra                ...  NO


-------------
DIPOLE MOMENT
-------------

Method             : SCF
Type of density    : Electron Density
Multiplicity       :   1
Irrep              :   0
Energy             :  -346.9449488156622010 Eh
Relativity type    : 
Basis              : AO
                                X                 Y                 Z
Electronic contribution:      4.399149202      -2.389459695       1.304260615
Nuclear contribution   :     -4.419601652       3.220996744      -0.707326059
                        -----------------------------------------
Total Dipole Moment    :     -0.020452450       0.831537049       0.596934556
                        -----------------------------------------
Magnitude (a.u.)       :      1.023817870
Magnitude (Debye)      :      2.602338215



--------------------
Rotational spectrum 
--------------------
 
Rotational constants in cm-1:             0.158463             0.052663             0.049653 
Rotational constants in MHz :          4750.612593          1578.787449          1488.572324 

Dipole components along the rotational axes: 
x,y,z [a.u.] :     0.006461     0.697110     0.749799 
x,y,z [Debye]:     0.016423     1.771913     1.905838 

 

Dipole moment calculation done in   0.0 sec 

Maximum memory used throughout the entire PROP-calculation: 11.7 MB

--------------------------------
SUGGESTED CITATIONS FOR THIS RUN
--------------------------------

Below you find a list of papers that are relevant to this ORCA run
We neither can nor want to force you to cite these papers, but we appreciate if you do
You receive ORCA, which is the product of decades of hard work by many enthusiastic individuals, for free
The only thing we kindly ask in return is that you cite our papers,
We deeply appreciate it, if you show your appreciation for ORCA by not just citing the generic ORCA reference.

Please note that relegating all ORCA citations to the supporting information does *not* help us.
SI sections are not indexed - citations you put there will not count into any citation statistics
But we need these citations in order to attract the funding resources that allow us to do what we are doing

Therefore, if you are a happy ORCA user, please consider citing a few of the papers listed below in the main body of your paper

In addition to the list printed below, the program has created the file xtb_opt.bibtex that contains the list in bibtex format
You can import this file easily into all common literature databanks and citation aid programs


List of essential papers. We consider these as the minimum necessary citations

  1. Neese,F.
     Software update: the ORCA program system, version 5.0
     WIRES Comput. Molec. Sci., 2022 12(1)e1606
     doi.org/10.1002/wcms.1606
  2. Grimme,S.; Hansen,A.; Ehlert,S.; Mewes,J.
     r2SCAN-3c: A 'Swiss army knife' composite electronic-structure method
     J. Chem. Phys., 2021 154 064103
     doi.org/10.1063/5.0040021

List of papers to cite with high priority. The work reported in these papers was absolutely
necessary for this run to complete.
Our perspective: the developers of density functionals and basis sets usually get cited in chemistry papers
Good! But without the algorithms to do something with them, the functionals or basis sets would not do anything.
Hence, in our opinion, the algorithm design and method developments papers are equally worthy of getting cited

  1. Neese,F.
     An improvement of the resolution of the identity approximation for the formation of the Coulomb matrix
     J. Comp. Chem., 2003 24(14)1740-1747
     doi.org/10.1002/jcc.10318
  2. Garcia-Rates,M.; Neese,F.
     Effect of the Solute Cavity on the Solvation Energy and its Derivatives within the Framework of the Gaussian Charge Scheme
     J. Comput. Chem., 2020 41 922-939
     doi.org/10.1002/jcc.26139
  3. Neese,F.
     The SHARK Integral Generation and Digestion System
     J. Comp. Chem., 2022  1-16
     doi.org/10.1002/jcc.26942
  4. Lehtola,S.; Steigemann,C.; Oliveira,M.; Marques,M.
     Recent developments in Libxc - A comprehensive library of functionals for density functional theory
     Software X, 2018 7 
     doi.org/10.1016/j.softx.2017.11.002
  5. Caldeweyher,E.; Bannwarth,C.; Grimme,S.
     Extension of the D3 dispersion coefficient model
     J. Chem. Phys., 2017 147 034112-XXXX
     doi.org/10.1063/1.4993215
  6. Caldeweyher,E.; Ehlert,S.; Hansen,A.; Neugebauer,H.; Spicher,S.; Bannwarth,C.; Grimme,S.
     A generally applicable atomic-charge dependent London dispersion correction
     J. Chem. Phys., 2019 150 154122-XXXX
     doi.org/10.1063/1.5090222
  7. Caldeweyher,E.; Mewes,J.; Ehlert,S.; Grimme,S.
     Extension and evaluation of the D4 London-dispersion model for periodic systems
     Phys. Chem. Chem. Phys., 2020 22(16)8499-8512
     doi.org/10.1039/D0CP00502A

List of suggested additional citations. These are papers that are important in the 'surrounding' of 
of this run, or papers that preceded the highly important papers. If you like your results we are grateful for a citation.

  1. Neese,F.
     The ORCA program system
     WIRES Comput. Molec. Sci., 2012 2(1)73-78
     doi.org/10.1002/wcms.81
  2. Neese,F.
     Software update: the ORCA program system, version 4.0
     WIRES Comput. Molec. Sci., 2018 8(1)1-6
     doi.org/10.1002/wcms.1327
  3. Neese,F.; Wennmohs,F.; Becker,U.; Riplinger,C.
     The ORCA quantum chemistry program package
     J. Chem. Phys., 2020 152 Art. No. L224108
     doi.org/10.1063/5.0004608

List of optional additional citations

  1. Neese,F.
     Approximate second-order SCF convergence for spin unrestricted wavefunctions
     Chem. Phys. Lett., 2000 325(1-3)93-98
     doi.org/10.1016/s0009-2614(00)00662-x

Timings for individual modules:

Sum of individual times          ...       14.947 sec (=   0.249 min)
Startup calculation              ...        1.147 sec (=   0.019 min)   7.7 %
SCF iterations                   ...        5.990 sec (=   0.100 min)  40.1 %
Property calculations            ...        0.119 sec (=   0.002 min)   0.8 %
SCF Gradient evaluation          ...        7.691 sec (=   0.128 min)  51.5 %
                             ****ORCA TERMINATED NORMALLY****
TOTAL RUN TIME: 0 days 0 hours 0 minutes 15 seconds 907 msec
  ------------------------------------------------------------------------
          * successful ORCA run, taking over control again...

         :::::::::::::::::::::::::::::::::::::::::::::::::::::
         ::                  ORCA SUMMARY                   ::
         :::::::::::::::::::::::::::::::::::::::::::::::::::::
         :: total energy            -346.938684496242 Eh    ::
         :: gradient norm              0.006109739384 Eh/a0 ::
         :: HOMO-LUMO gap              0.000000000000 eV    ::
         :::::::::::::::::::::::::::::::::::::::::::::::::::::

      ----------------------------------------------------------- 
     |                       L-ANC optimizer                     |
      ----------------------------------------------------------- 
          low memory version by Sebastian Ehlert

          ...................................................
          :                      SETUP                      :
          :.................................................:
          :   energy convergence        0.5000000E-05 Eh    :
          :   grad. convergence         0.1000000E-02 Eh/a0 :
          :   optimization log               true           :
          :   writing optlog all                1     steps :
          :   Hessian reset                     8     steps :
          :   maximium step len.        1.0000000     a0    :
          :   LBFGS images                      8           :
          ...................................................
 * calculating model hessian...
Using Lindh-Hessian (1995)
 Shifting diagonal of input Hessian by   1.000000000000000E-002
 Lowest  eigenvalues of input Hessian
    0.000000    0.000000    0.000000    0.000000    0.000000    0.000000
    0.011498    0.013691    0.015030    0.019016    0.022172    0.024575
    0.033922    0.036038    0.041292    0.052500    0.060684    0.063023
 Highest eigenvalues
    1.151433    1.193711    1.245916    1.260470    1.725129    2.257358
 

........................................................................
.............................. CYCLE    1 ..............................
........................................................................
                         * ORCA takes the control...
  ------------------------------------------------------------------------

                                 *****************
                                 * O   R   C   A *
                                 *****************

                                            #,                                       
                                            ###                                      
                                            ####                                     
                                            #####                                    
                                            ######                                   
                                           ########,                                 
                                     ,,################,,,,,                         
                               ,,#################################,,                 
                          ,,##########################################,,             
                       ,#########################################, ''#####,          
                    ,#############################################,,   '####,        
                  ,##################################################,,,,####,       
                ,###########''''           ''''###############################       
              ,#####''   ,,,,##########,,,,          '''####'''          '####       
            ,##' ,,,,###########################,,,                        '##       
           ' ,,###''''                  '''############,,,                           
         ,,##''                                '''############,,,,        ,,,,,,###''
      ,#''                                            '''#######################'''  
     '                                                          ''''####''''         
             ,#######,   #######,   ,#######,      ##                                
            ,#'     '#,  ##    ##  ,#'     '#,    #''#        ,####,   ,####,        
            ##       ##  ##   ,#'  ##            #'  '#       #'       #'  '#        
            ##       ##  #######   ##           ,######,      #####,   #    #        
            '#,     ,#'  ##    ##  '#,     ,#' ,#      #,     #,   #   #,  ,#        
             '#######'   ##     ##  '#######'  #'      '#     '####' # '####'        



                #########################################################
                #                        -***-                          #
                #          Department of theory and spectroscopy        #
                #                                                       #
                #                      Frank Neese                      #
                #                                                       #
                #     Directorship, Architecture, Infrastructure        #
                #                    SHARK, DRIVERS                     #
                #        Core code/Algorithms in most modules           #
                #                                                       #
                #        Max Planck Institute fuer Kohlenforschung      #
                #                Kaiser Wilhelm Platz 1                 #
                #                 D-45470 Muelheim/Ruhr                 #
                #                      Germany                          #
                #                                                       #
                #                  All rights reserved                  #
                #                        -***-                          #
                #########################################################


                         Program Version 6.0.0  -   RELEASE  -


 With contributions from (in alphabetic order):
   Daniel Aravena         : Magnetic Suceptibility
   Michael Atanasov       : Ab Initio Ligand Field Theory (pilot matlab implementation)
   Alexander A. Auer      : GIAO ZORA, VPT2 properties, NMR spectrum
   Ute Becker             : All parallelization in ORCA, NUMFREQ, NUMCALC
   Giovanni Bistoni       : ED, misc. LED, open-shell LED, HFLD
   Martin Brehm           : Molecular dynamics
   Dmytro Bykov           : pre 5.0 version of the SCF Hessian
   Marcos Casanova-Páez   : Triplet and SCS-CIS(D). UHF-(DLPNO)-IP/EA/STEOM-CCSD. UHF-CVS-IP/STEOM-CCSD
   Vijay G. Chilkuri      : MRCI spin determinant printing, contributions to CSF-ICE
   Pauline Colinet        : FMM embedding
   Dipayan Datta          : RHF DLPNO-CCSD density
   Achintya Kumar Dutta   : EOM-CC, STEOM-CC
   Nicolas Foglia         : Exact transition moments, OPA infrastructure, MCD improvements
   Dmitry Ganyushin       : Spin-Orbit,Spin-Spin,Magnetic field MRCI
   Miquel Garcia          : C-PCM and meta-GGA Hessian, CCSD/C-PCM, Gaussian charge scheme
   Tiago L. C. Gouveia    : GS-ROHF, GS-ROCIS
   Yang Guo               : DLPNO-NEVPT2, F12-NEVPT2, CIM, IAO-localization
   Andreas Hansen         : Spin unrestricted coupled pair/coupled cluster methods
   Ingolf Harden          : AUTO-CI MPn and infrastructure 
   Benjamin Helmich-Paris : MC-RPA, TRAH-(SCF,CASSCF), AVAS, COSX integrals, SCF dyn. polar.
   Lee Huntington         : MR-EOM, pCC
   Robert Izsak           : Overlap fitted RIJCOSX, COSX-SCS-MP3, EOM
   Riya Kayal             : Wick's Theorem for AUTO-CI, AUTO-CI UHF-CCSDT
   Emily Kempfer          : AUTO-CI, RHF CISDT and CCSDT
   Christian Kollmar      : KDIIS, OOCD, Brueckner-CCSD(T), CCSD density, CASPT2, CASPT2-K, improved NEVPT2
   Axel Koslowski         : Symmetry handling
   Simone Kossmann        : Meta GGA functionals, TD-DFT gradient, OOMP2, (MP2 Hessian; deprecated post 5.0)
   Lucas Lang             : DCDCAS
   Marvin Lechner         : AUTO-CI (C++ implementation), FIC-MRCC
   Spencer Leger          : CASSCF response
   Dagmar Lenk            : GEPOL surface, SMD, ORCA-2-JSON
   Dimitrios Liakos       : Extrapolation schemes; Compound Job, initial MDCI parallelization
   Dimitrios Manganas     : Further ROCIS development; embedding schemes. LFT, Crystal Embedding
   Dimitrios Pantazis     : SARC Basis sets
   Anastasios Papadopoulos: AUTO-CI, single reference methods and gradients
   Taras Petrenko         : pre 6.0 DFT Hessian and TD-DFT gradient, (ASA, deprecated), ECA, 1-Electron XAS/XES, NRVS
   Peter Pinski           : DLPNO-MP2, DLPNO-MP2 Gradient
   Christoph Reimann      : Effective Core Potentials
   Marius Retegan         : Local ZFS, SOC
   Christoph Riplinger    : Optimizer, TS searches, QM/MM, DLPNO-CCSD(T), (RO)-DLPNO pert. Triples
   Michael Roemelt        : Original ROCIS implementation
   Masaaki Saitow         : Open-shell DLPNO-CCSD energy and density
   Barbara Sandhoefer     : DKH picture change effects
   Kantharuban Sivalingam : CASSCF convergence/infrastructure, NEVPT2 and variants, FIC-MRCI
   Bernardo de Souza      : ESD, SOC TD-DFT
   Georgi Stoychev        : AutoAux, RI-MP2 NMR, DLPNO-MP2 response, X2C
   Van Anh Tran           : RI-MP2 g-tensors
   Willem Van den Heuvel  : Paramagnetic NMR
   Zikuan Wang            : NOTCH, Electric field optimization 
   Frank Wennmohs         : Technical directorship and infrastructure
   Hang Xu                : AUTO-CI-Response properties 


 We gratefully acknowledge several colleagues who have allowed us to
 interface, adapt or use parts of their codes:
   Stefan Grimme, W. Hujo, H. Kruse, P. Pracht,  : VdW corrections, initial TS optimization,
                  C. Bannwarth, S. Ehlert,         DFT functionals, gCP, sTDA/sTD-DF
                  L. Wittmann, M. Mueller
   Ed Valeev, F. Pavosevic, A. Kumar             : LibInt (2-el integral package), F12 methods
   Garnet Chan, S. Sharma, J. Yang, R. Olivares  : DMRG
   Ulf Ekstrom                                   : XCFun DFT Library
   Mihaly Kallay                                 : mrcc  (arbitrary order and MRCC methods)
   Frank Weinhold                                : gennbo (NPA and NBO analysis)
   Simon Mueller                                 : openCOSMO-RS
   Christopher J. Cramer and Donald G. Truhlar   : smd solvation model
   Lars Goerigk                                  : TD-DFT with DH, B97 family of functionals
   V. Asgeirsson, H. Jonsson                     : NEB implementation
   FAccTs GmbH                                   : IRC, NEB, NEB-TS, DLPNO-Multilevel, CI-OPT
                                                   MM, QMMM, 2- and 3-layer-ONIOM, Crystal-QMMM,
                                                   LR-CPCM, SF, NACMEs, symmetry and pop. for TD-DFT,
                                                   nearIR, NL-DFT gradient (VV10), updates on ESD,
                                                   ML-optimized integration grids, MBIS, APM,
                                                   GOAT, DOCKER, SOLVATOR, interface openCOSMO-RS
   S Lehtola, MJT Oliveira, MAL Marques          : LibXC Library
   Liviu Ungur et al                             : ANISO software


 Your calculation uses the libint2 library for the computation of 2-el integrals
 For citations please refer to: http://libint.valeyev.net

 Your ORCA version has been built with support for libXC version: 6.2.2
 For citations please refer to: https://libxc.gitlab.io

 This ORCA versions uses:
   CBLAS   interface :  Fast vector & matrix operations
   LAPACKE interface :  Fast linear algebra routines
   SCALAPACK package :  Parallel linear algebra routines
   Shared memory     :  Shared parallel matrices
   BLAS/LAPACK       :  OpenBLAS 0.3.27  USE64BITINT DYNAMIC_ARCH NO_AFFINITY SkylakeX SINGLE_THREADED
        Core in use  :  SkylakeX
   Copyright (c) 2011-2014, The OpenBLAS Project




***************************************
The coordinates will be read from file: xtb_opt.xyz
***************************************


Your calculation utilizes the geometrical counterpoise correction gCP
Please cite in your paper:
H.Kruse, S. Grimme J.Chem.Phys., 136, (2012), 154101 
   

Your calculation utilizes the atom-pairwise dispersion correction
based on EEQ partial charges (D4)


Your calculation utilizes the SMD solvation module
Please cite in your paper:
A.V. Marenich, C.J. Cramer, D.G. Truhlar J. Phys. Chem. B, 113, (2009), 6378 

================================================================================

----- Orbital basis set information -----
Your calculation utilizes the basis: def2-mTZVPP
   Stefan Grimme, Andreas Hansen, Sebastian Ehlert, and Jan-Michael Mewes 
   J. Chem. Phys. 154, 064103 (2021). DOI: 10.1063/5.0040021

----- AuxJ basis set information -----
Your calculation utilizes the auxiliary basis: def2/J
   F. Weigend, Phys. Chem. Chem. Phys. 8, 1057 (2006).

================================================================================
                                        WARNINGS
                       Please study these warnings very carefully!
================================================================================

WARNING: Old DensityContainer found on disk!
         Will remove this file - 
         If you want to keep old densities, please start your calculation with a different basename. 

Using LibXC functional ID 497 : Re-regularized SCAN exchange by Furness et al
[ 1]  J. W. Furness, A. D. Kaplan, J. Ning, J. P. Perdew, and J. Sun.,  J. Phys. Chem. Lett. 11, 8208-8215 (2020)
[ 2]  J. W. Furness, A. D. Kaplan, J. Ning, J. P. Perdew, and J. Sun.,  J. Phys. Chem. Lett. 11, 9248-9248 (2020)
Using LibXC functional ID 498 : Re-regularized SCAN correlation by Furness et al
[ 1]  J. W. Furness, A. D. Kaplan, J. Ning, J. P. Perdew, and J. Sun.,  J. Phys. Chem. Lett. 11, 8208-8215 (2020)
[ 2]  J. W. Furness, A. D. Kaplan, J. Ning, J. P. Perdew, and J. Sun.,  J. Phys. Chem. Lett. 11, 9248-9248 (2020)
Using LibXC functional ID 497 : Re-regularized SCAN exchange by Furness et al
[ 1]  J. W. Furness, A. D. Kaplan, J. Ning, J. P. Perdew, and J. Sun.,  J. Phys. Chem. Lett. 11, 8208-8215 (2020)
[ 2]  J. W. Furness, A. D. Kaplan, J. Ning, J. P. Perdew, and J. Sun.,  J. Phys. Chem. Lett. 11, 9248-9248 (2020)
Using LibXC functional ID 498 : Re-regularized SCAN correlation by Furness et al
[ 1]  J. W. Furness, A. D. Kaplan, J. Ning, J. P. Perdew, and J. Sun.,  J. Phys. Chem. Lett. 11, 8208-8215 (2020)
[ 2]  J. W. Furness, A. D. Kaplan, J. Ning, J. P. Perdew, and J. Sun.,  J. Phys. Chem. Lett. 11, 9248-9248 (2020)

================================================================================
                                       INPUT FILE
================================================================================
NAME = xtb_opt.inp
|  1> ! r2scan-3c def2/J RI DEFGRID2 scfconv7 ENGRAD tightSCF miniprint
|  2> %cpcm
|  3>     smd true
|  4>     smdsolvent "water"
|  5> end
|  6> * xyzfile 0 1 xtb_opt.xyz
|  7> 
|  8>                          ****END OF INPUT****
================================================================================

                     *******************************
                     * Energy+Gradient Calculation *
                     *******************************

---------------------------------
CARTESIAN COORDINATES (ANGSTROEM)
---------------------------------
  C     -2.106945    0.931205   -0.743721
  C     -2.084399   -0.289131    0.171408
  C     -0.833858   -0.328379    1.061845
  C      0.417893   -0.375515    0.233592
  O      0.663247   -1.227444   -0.604992
  O      1.255750    0.647409    0.504283
  C      2.491690    0.668213   -0.255524
  H     -3.020156    0.953955   -1.346079
  H     -2.060184    1.859001   -0.162915
  H     -1.255537    0.925111   -1.434990
  H     -2.133811   -1.208697   -0.422343
  H     -2.961804   -0.283501    0.826898
  H     -0.841811   -1.236073    1.676746
  H     -0.805588    0.537305    1.728022
  H      3.043169    1.533533    0.112618
  H      2.278068    0.779079   -1.321988
  H      3.059225   -0.248913   -0.078669

----------------------------
CARTESIAN COORDINATES (A.U.)
----------------------------
  NO LB      ZA    FRAG     MASS         X           Y           Z
   0 C     6.0000    0    12.011   -3.981549    1.759722   -1.405429
   1 C     6.0000    0    12.011   -3.938943   -0.546379    0.323915
   2 C     6.0000    0    12.011   -1.575763   -0.620546    2.006596
   3 C     6.0000    0    12.011    0.789702   -0.709621    0.441426
   4 O     8.0000    0    15.999    1.253355   -2.319533   -1.143269
   5 O     8.0000    0    15.999    2.373024    1.223425    0.952957
   6 C     6.0000    0    12.011    4.708611    1.262739   -0.482871
   7 H     1.0000    0     1.008   -5.707268    1.802714   -2.543720
   8 H     1.0000    0     1.008   -3.893183    3.513003   -0.307865
   9 H     1.0000    0     1.008   -2.372622    1.748207   -2.711738
  10 H     1.0000    0     1.008   -4.032318   -2.284107   -0.798112
  11 H     1.0000    0     1.008   -5.596998   -0.535740    1.562610
  12 H     1.0000    0     1.008   -1.590792   -2.335839    3.168591
  13 H     1.0000    0     1.008   -1.522341    1.015359    3.265488
  14 H     1.0000    0     1.008    5.750757    2.897958    0.212818
  15 H     1.0000    0     1.008    4.304925    1.472245   -2.498196
  16 H     1.0000    0     1.008    5.781097   -0.470377   -0.148663

------------------------------------------------------------------------------
                   ___                                                        
                  /   \      - P O W E R E D   B Y -                         
                 /     \                                                     
                 |  |  |   _    _      __       _____    __    __             
                 |  |  |  | |  | |    /  \     |  _  \  |  |  /  |          
                  \  \/   | |  | |   /    \    | | | |  |  | /  /          
                 / \  \   | |__| |  /  /\  \   | |_| |  |  |/  /          
                |  |  |   |  __  | /  /__\  \  |    /   |      \           
                |  |  |   | |  | | |   __   |  |    \   |  |\   \          
                \     /   | |  | | |  |  |  |  | |\  \  |  | \   \       
                 \___/    |_|  |_| |__|  |__|  |_| \__\ |__|  \__/        
                                                                              
                      - O R C A' S   B I G   F R I E N D -                    
                                      &                                       
                       - I N T E G R A L  F E E D E R -                       
                                                                              
 v1 FN, 2020, v2 2021, v3 2022-2024                                           
------------------------------------------------------------------------------


----------------------
SHARK INTEGRAL PACKAGE
----------------------

Number of atoms                             ...     17
Number of basis functions                   ...    193
Number of shells                            ...     95
Maximum angular momentum                    ...      2
Integral batch strategy                     ... SHARK/LIBINT Hybrid
RI-J (if used) integral strategy            ... SPLIT-RIJ (Revised 2003 algorithm where possible)
Printlevel                                  ...      1
Contraction scheme used                     ... SEGMENTED contraction
Prescreening option                         ... SCHWARTZ
   Thresh                                   ... 3.000e-11
   Tcut                                     ... 1.000e-12
   Tpresel                                  ... 1.000e-12 
Coulomb Range Separation                    ... NOT USED
Exchange Range Separation                   ... NOT USED
Multipole approximations                    ... NOT USED
Finite Nucleus Model                        ... NOT USED
CABS basis                                  ... NOT available
Auxiliary Coulomb fitting basis             ... AVAILABLE
   # of basis functions in Aux-J            ...    453
   # of shells in Aux-J                     ...    155
   Maximum angular momentum in Aux-J        ...      4
Auxiliary J/K fitting basis                 ... NOT available
Auxiliary Correlation fitting basis         ... NOT available
Auxiliary 'external' fitting basis          ... NOT available

Checking pre-screening integrals            ... done (  0.0 sec) Dimension = 95
Check shell pair data                       ... done (  0.0 sec)
Shell pair information
Shell pair cut-off parameter TPreSel        ...   1.0e-12
Total number of shell pairs                 ...      4560
Shell pairs after pre-screening             ...      4176
Total number of primitive shell pairs       ...     16115
Primitive shell pairs kept                  ...     10734
          la=0 lb=0:   1384 shell pairs
          la=1 lb=0:   1557 shell pairs
          la=1 lb=1:    458 shell pairs
          la=2 lb=0:    466 shell pairs
          la=2 lb=1:    266 shell pairs
          la=2 lb=2:     45 shell pairs

Calculating one electron integrals          ... done (  0.0 sec)
Calculating RI/J V-Matrix + Cholesky decomp.... done (  0.1 sec)
Calculating Nuclear repulsion               ... done (  0.0 sec) ENN=    318.303042799244 Eh

Diagonalization of the overlap matrix:
Smallest eigenvalue                        ... 2.000e-04
Time for diagonalization                   ...    0.009 sec
Threshold for overlap eigenvalues          ... 1.000e-07
Number of eigenvalues below threshold      ... 0
Time for construction of square roots      ...    0.016 sec
Total time needed                          ...    0.036 sec

-------------------
DFT GRID GENERATION
-------------------

General Integration Accuracy     IntAcc      ... 4.388
Radial Grid Type                 RadialGrid  ... OptM3 with GC (2021)
Angular Grid (max. ang.)         AngularGrid ... 4 (Lebedev-302)
Angular grid pruning method      GridPruning ... 4 (adaptive)
Weight generation scheme         WeightScheme... mBecke (2022)
Basis function cutoff            BFCut       ... 1.0000e-11
Integration weight cutoff        WCut        ... 1.0000e-14
Partially contracted basis set               ... off
Rotationally invariant grid construction     ... off
Angular grids for H and He will be reduced by one unit
Diffuse basis detected: some atoms will have their outermost
                        angular grid increased by 1.

Total number of grid points                  ...    75078
Total number of batches                      ...     1181
Average number of points per batch           ...       63
Average number of grid points per atom       ...     4416
Initializing property integral containers    ... done (  0.0 sec)

SHARK setup successfully completed in   1.1 seconds

Maximum memory used throughout the entire STARTUP-calculation: 33.8 MB
Occupation numbers will be reassigned to an Aufbau configuration
             **** ENERGY FILE WAS UPDATED (xtb_opt.en.tmp) ****
Finished Guess after   0.3 sec
Maximum memory used throughout the entire GUESS-calculation: 13.1 MB
--------------------
CPCM SOLVATION MODEL
--------------------
CPCM parameters:
  Epsilon                                         ...      78.3550
  Refrac                                          ...       1.3328
  Rsolv                                           ...       1.3000
  Surface type                                    ... GAUSSIAN VDW
  Discretization scheme                           ... Constant charge density
    Threshold for H atoms                         ...       5.0000 (charges/Ang^2)
    Threshold for non-H atoms                     ...       5.0000 (charges/Ang^2)
  Epsilon function type                           ...         CPCM
Solvent:                                          ... WATER
SMD-CDS solvent descriptors:
  Soln                                            ...       1.3328
  Soln25                                          ...       1.3323
  Sola                                            ...       0.0000
  Solb                                            ...       0.0000
  Solg                                            ...       0.0000
  Solc                                            ...       0.0000
  Solh                                            ...       0.0000
Radii:
  Scheme                                          ... Element-dependent radii
  Radius for C  used is    3.4960 Bohr (=   1.8500 Ang.)
  Radius for O  used is    2.8724 Bohr (=   1.5200 Ang.)
  Radius for H  used is    2.2677 Bohr (=   1.2000 Ang.)
Calculating surface                               ...        done! (  0.0s)
Cavity surface points                             ...         1287
Cavity Volume                                     ...     764.6605
Cavity Surface-area                               ...     516.4783
Calculating surface distance matrix               ...        done! (  0.0s)
Performing Cholesky decomposition & store         ...        done! (  0.1s)
Overall time for CPCM initialization              ...                 0.1s

----------------------------------------D-I-I-S--------------------------------------------
Iteration    Energy (Eh)           Delta-E    RMSDP     MaxDP     DIISErr   Damp  Time(sec)
-------------------------------------------------------------------------------------------
               ***  Starting incremental Fock matrix formation  ***
                              *** Initializing SOSCF ***
---------------------------------------S-O-S-C-F--------------------------------------
Iteration    Energy (Eh)           Delta-E    RMSDP     MaxDP     MaxGrad    Time(sec)
--------------------------------------------------------------------------------------
    1    -346.9527164607139298     0.00e+00  7.00e-05  1.82e-03  9.76e-05     2.8
               *** Restarting incremental Fock matrix formation ***
    2    -346.9527412296425268    -2.48e-05  2.70e-05  5.09e-04  1.07e-04     2.5
    3    -346.9527424463074681    -1.22e-06  1.01e-05  2.42e-04  1.21e-04     2.1
    4    -346.9527429124049718    -4.66e-07  7.61e-06  1.50e-04  1.11e-04     1.9
    5    -346.9527429601338895    -4.77e-08  3.95e-06  9.18e-05  9.05e-05     2.0
                 **** Energy Check signals convergence ****

               *****************************************************
               *                     SUCCESS                       *
               *           SCF CONVERGED AFTER   5 CYCLES          *
               *****************************************************


SMD CDS free energy correction energy :                 4.83895     Kcal/mol
Total Energy after SMD CDS correction =              -346.945031611 Eh
             **** ENERGY FILE WAS UPDATED (xtb_opt.en.tmp) ****

----------------
TOTAL SCF ENERGY
----------------

Total Energy       :       -346.94503161094400 Eh           -9440.85427 eV

Components:
Nuclear Repulsion  :        318.30304279924434 Eh            8661.46613 eV
Electronic Energy  :       -665.23977680045061 Eh          -18102.09462 eV
One Electron Energy:      -1102.21371570957467 Eh          -29992.76001 eV
Two Electron Energy:        436.97393890912406 Eh           11890.66539 eV
CPCM Dielectric    :         -0.01600895892757 Eh              -0.43563 eV
SMD CDS (Gcds)     :          0.00771134918990 Eh               0.20984 eV

Virial components:
Potential Energy   :       -692.28968210962432 Eh          -18838.15996 eV
Kinetic Energy     :        345.34465049868032 Eh            9397.30569 eV
Virial Ratio       :          2.00463415637090

DFT components:
N(Alpha)           :       28.000052087859 electrons
N(Beta)            :       28.000052087859 electrons
N(Total)           :       56.000104175717 electrons
E(X)               :      -46.115852903907 Eh       
E(C)               :       -1.786113915168 Eh       
E(XC)              :      -47.901966819076 Eh       

CPCM Solvation Model Properties:
Surface-charge          :         -0.04342412102223
Corrected charge        :         -0.00000000000000
Outlying charge corr.   :          0.00015172204011 Eh               0.00413 eV
Free-energy (cav+disp)  :          0.00771134918990 Eh               0.20984 eV

---------------
SCF CONVERGENCE
---------------

  Last Energy change         ...    4.7729e-08  Tolerance :   1.0000e-07
  Last MAX-Density change    ...    9.1829e-05  Tolerance :   1.0000e-07
  Last RMS-Density change    ...    3.9519e-06  Tolerance :   5.0000e-09
  Last DIIS Error            ...    1.3996e-03  Tolerance :   1.0000e-07
  Last Orbital Gradient      ...    9.0509e-05  Tolerance :   1.0000e-04
  Last Orbital Rotation      ...    1.0746e-04  Tolerance :   1.0000e-04


----------------
ORBITAL ENERGIES
----------------

  NO   OCC          E(Eh)            E(eV) 
   0   2.0000     -19.005882      -517.1764 
   1   2.0000     -18.946053      -515.5483 
   2   2.0000     -10.165077      -276.6058 
   3   2.0000     -10.077749      -274.2295 
   4   2.0000     -10.038252      -273.1547 
   5   2.0000     -10.031279      -272.9650 
   6   2.0000     -10.015025      -272.5227 
   7   2.0000      -1.071097       -29.1460 
   8   2.0000      -0.985201       -26.8087 
   9   2.0000      -0.766003       -20.8440 
  10   2.0000      -0.700958       -19.0740 
  11   2.0000      -0.653342       -17.7783 
  12   2.0000      -0.569738       -15.5034 
  13   2.0000      -0.522812       -14.2264 
  14   2.0000      -0.471843       -12.8395 
  15   2.0000      -0.456372       -12.4185 
  16   2.0000      -0.447147       -12.1675 
  17   2.0000      -0.414270       -11.2728 
  18   2.0000      -0.408328       -11.1112 
  19   2.0000      -0.371677       -10.1139 
  20   2.0000      -0.363888        -9.9019 
  21   2.0000      -0.356066        -9.6890 
  22   2.0000      -0.329443        -8.9646 
  23   2.0000      -0.308917        -8.4061 
  24   2.0000      -0.306718        -8.3462 
  25   2.0000      -0.301619        -8.2075 
  26   2.0000      -0.282831        -7.6962 
  27   2.0000      -0.253849        -6.9076 
  28   0.0000      -0.029026        -0.7898 
  29   0.0000       0.066459         1.8084 
  30   0.0000       0.094741         2.5780 
  31   0.0000       0.121012         3.2929 
  32   0.0000       0.132918         3.6169 
  33   0.0000       0.143499         3.9048 
  34   0.0000       0.148553         4.0423 
  35   0.0000       0.148975         4.0538 
  36   0.0000       0.169205         4.6043 
  37   0.0000       0.176309         4.7976 
  38   0.0000       0.184620         5.0238 
*Only the first 10 virtual orbitals were printed.
Total SCF time: 0 days 0 hours 0 min 11 sec 
Finished LeanSCF after  11.9 sec

Maximum memory used throughout the entire LEANSCF-calculation: 24.0 MB


-------------------------------------------------------------------------------
                          DFT DISPERSION CORRECTION                            
                                                                               
                                DFTD4 V3.4.0                                   
-------------------------------------------------------------------------------
-------------------------   ----------------
Dispersion correction           -0.004129544
-------------------------   ----------------

------------------   -----------------
gCP correction             0.010423051
------------------   -----------------

-------------------------   --------------------
FINAL SINGLE POINT ENERGY      -346.938738104027
-------------------------   --------------------

------------------------------------------------------------------------------
                         ORCA SCF GRADIENT CALCULATION
------------------------------------------------------------------------------

Nuc. rep. gradient        (SHARK) ... done (  0.0 sec)
HCore & Overlap gradient  (SHARK) ... done (  0.2 sec)
Split-RIJ-J gradient      (SHARK) ... done (  1.2 sec)
XC gradient                       ... done (  4.5 sec)
CPCM gradient                     ... done (  0.6 sec)
SMD gradient                      ... done (  0.0 sec)
Dispersion correction             ... done (  0.0 sec)

-------------------
DISPERSION GRADIENT
-------------------

   1   C   :   -0.000072221    0.000037736   -0.000033270
   2   C   :   -0.000062639   -0.000013811    0.000006509
   3   C   :   -0.000032895   -0.000020671    0.000046903
   4   C   :    0.000038009   -0.000019589    0.000010417
   5   O   :    0.000042202   -0.000059983   -0.000023621
   6   O   :    0.000071049    0.000015332    0.000015013
   7   C   :    0.000086192    0.000015023   -0.000014218
   8   H   :   -0.000028507    0.000014297   -0.000018856
   9   H   :   -0.000032288    0.000025294   -0.000009167
  10   H   :   -0.000031064    0.000013831   -0.000022391
  11   H   :   -0.000022167   -0.000011932   -0.000004112
[...]
N(Beta)            :       28.000046930254 electrons
N(Total)           :       56.000093860508 electrons
E(X)               :      -46.116263287653 Eh       
E(C)               :       -1.786146045652 Eh       
E(XC)              :      -47.902409333305 Eh       

CPCM Solvation Model Properties:
Surface-charge          :         -0.04346855688834
Corrected charge        :         -0.00000000000000
Outlying charge corr.   :          0.00015197730653 Eh               0.00414 eV
Free-energy (cav+disp)  :          0.00773734296350 Eh               0.21054 eV

---------------
SCF CONVERGENCE
---------------

  Last Energy change         ...   -4.6935e-08  Tolerance :   1.0000e-07
  Last MAX-Density change    ...    4.8335e-05  Tolerance :   1.0000e-07
  Last RMS-Density change    ...    1.8562e-06  Tolerance :   5.0000e-09
  Last DIIS Error            ...    5.5316e-05  Tolerance :   1.0000e-07
  Last Orbital Gradient      ...    7.5278e-05  Tolerance :   1.0000e-04
  Last Orbital Rotation      ...    8.6356e-05  Tolerance :   1.0000e-04


----------------
ORBITAL ENERGIES
----------------

  NO   OCC          E(Eh)            E(eV) 
   0   2.0000     -19.006148      -517.1836 
   1   2.0000     -18.945815      -515.5418 
   2   2.0000     -10.164994      -276.6036 
   3   2.0000     -10.078117      -274.2395 
   4   2.0000     -10.038190      -273.1530 
   5   2.0000     -10.030955      -272.9562 
   6   2.0000     -10.014922      -272.5199 
   7   2.0000      -1.071540       -29.1581 
   8   2.0000      -0.984987       -26.8029 
   9   2.0000      -0.765926       -20.8419 
  10   2.0000      -0.701211       -19.0809 
  11   2.0000      -0.653286       -17.7768 
  12   2.0000      -0.569476       -15.4962 
  13   2.0000      -0.522904       -14.2289 
  14   2.0000      -0.472127       -12.8472 
  15   2.0000      -0.456453       -12.4207 
  16   2.0000      -0.447550       -12.1785 
  17   2.0000      -0.413804       -11.2602 
  18   2.0000      -0.408595       -11.1184 
  19   2.0000      -0.371009       -10.0957 
  20   2.0000      -0.363976        -9.9043 
  21   2.0000      -0.356389        -9.6978 
  22   2.0000      -0.329494        -8.9660 
  23   2.0000      -0.308347        -8.3906 
  24   2.0000      -0.306674        -8.3450 
  25   2.0000      -0.301741        -8.2108 
  26   2.0000      -0.282999        -7.7008 
  27   2.0000      -0.253826        -6.9069 
  28   0.0000      -0.028752        -0.7824 
  29   0.0000       0.066195         1.8013 
  30   0.0000       0.094298         2.5660 
  31   0.0000       0.121080         3.2947 
  32   0.0000       0.132980         3.6186 
  33   0.0000       0.143751         3.9117 
  34   0.0000       0.147785         4.0214 
  35   0.0000       0.149036         4.0555 
  36   0.0000       0.170093         4.6285 
  37   0.0000       0.175390         4.7726 
  38   0.0000       0.184604         5.0233 
*Only the first 10 virtual orbitals were printed.
Total SCF time: 0 days 0 hours 0 min 8 sec 
Finished LeanSCF after   8.3 sec

Maximum memory used throughout the entire LEANSCF-calculation: 24.0 MB


-------------------------------------------------------------------------------
                          DFT DISPERSION CORRECTION                            
                                                                               
                                DFTD4 V3.4.0                                   
-------------------------------------------------------------------------------
-------------------------   ----------------
Dispersion correction           -0.004122786
-------------------------   ----------------

------------------   -----------------
gCP correction             0.010428067
------------------   -----------------

-------------------------   --------------------
FINAL SINGLE POINT ENERGY      -346.938790528814
-------------------------   --------------------

------------------------------------------------------------------------------
                         ORCA SCF GRADIENT CALCULATION
------------------------------------------------------------------------------

Nuc. rep. gradient        (SHARK) ... done (  0.0 sec)
HCore & Overlap gradient  (SHARK) ... done (  0.2 sec)
Split-RIJ-J gradient      (SHARK) ... done (  1.3 sec)
XC gradient                       ... done (  5.0 sec)
CPCM gradient                     ... done (  0.7 sec)
SMD gradient                      ... done (  0.0 sec)
Dispersion correction             ... done (  0.0 sec)

-------------------
DISPERSION GRADIENT
-------------------

   1   C   :   -0.000072280    0.000037918   -0.000032743
   2   C   :   -0.000062264   -0.000014107    0.000006076
   3   C   :   -0.000032906   -0.000019961    0.000046671
   4   C   :    0.000038385   -0.000019472    0.000010419
   5   O   :    0.000041782   -0.000059697   -0.000023741
   6   O   :    0.000071421    0.000015011    0.000015202
   7   C   :    0.000085491    0.000014524   -0.000014199
   8   H   :   -0.000028348    0.000014170   -0.000018625
   9   H   :   -0.000032121    0.000025051   -0.000008906
  10   H   :   -0.000031397    0.000014427   -0.000022339
  11   H   :   -0.000021756   -0.000012030   -0.000004335
  12   H   :   -0.000027635   -0.000002950    0.000006737
  13   H   :   -0.000007607   -0.000020763    0.000025006
  14   H   :   -0.000009927    0.000002163    0.000027937
  15   H   :    0.000028013    0.000013232   -0.000001335
  16   H   :    0.000035470    0.000007309   -0.000008116
  17   H   :    0.000025678    0.000005177   -0.000003710

Difference to translation invariance:
           :    0.0000000000   -0.0000000000    0.0000000000

Difference to rotation invariance:
           :    0.0000000000   -0.0000000000    0.0000000000

Norm of the Dispersion gradient    ...    0.0002188461
RMS gradient                       ...    0.0000306446
MAX gradient                       ...    0.0000854914
gCP correction                   ... done

------------------
CARTESIAN GRADIENT
------------------

   1   C   :   -0.000031094    0.000007342   -0.000060255
   2   C   :    0.000032637    0.000009094    0.000036574
   3   C   :    0.000052508   -0.000065080    0.000092259
   4   C   :    0.000012441    0.000462192    0.000202137
   5   O   :    0.000011452   -0.000401397   -0.000228588
   6   O   :   -0.000117664   -0.000039421    0.000098364
   7   C   :   -0.000264752   -0.000094904    0.000076644
   8   H   :   -0.000024248    0.000036488   -0.000011461
   9   H   :    0.000095186    0.000077028    0.000051350
  10   H   :    0.000061924   -0.000036099   -0.000065488
  11   H   :    0.000049289   -0.000052862   -0.000054758
  12   H   :   -0.000075797   -0.000030296   -0.000004702
  13   H   :   -0.000042677   -0.000021659    0.000056152
  14   H   :   -0.000016558    0.000010684    0.000001464
  15   H   :    0.000204107    0.000331808    0.000087721
  16   H   :   -0.000102521    0.000043929   -0.000322563
  17   H   :    0.000155769   -0.000236846    0.000045153

Difference to translation invariance:
           :    0.0000000000    0.0000000000    0.0000000000

Difference to rotation invariance:
           :   -0.0002267829   -0.0000164863   -0.0001185753

Norm of the Cartesian gradient     ...    0.0010044974
RMS gradient                       ...    0.0001406578
MAX gradient                       ...    0.0004621920

-------
TIMINGS
-------

Total SCF gradient time     ....        7.909 sec

Densities                   ....       0.000 sec  (  0.0%)
One electron gradient       ....       0.227 sec  (  2.9%)
RI-J Coulomb gradient       ....       1.300 sec  ( 16.4%)
XC gradient                 ....       5.043 sec  ( 63.8%)
CPCM gradient               ....       0.683 sec  (  8.6%)
   A-Matrix (El+Nuc)        ....       0.059 sec  (  0.7%)
   Potential                ....       0.624 sec  (  7.9%)
SMD gradient                ....       0.014 sec  (  0.2%)

Maximum memory used throughout the entire SCFGRAD-calculation: 33.3 MB

------------------------------------------------------------------------------
                              ORCA PROPERTY CALCULATIONS
------------------------------------------------------------------------------

GBWName                                 ... xtb_opt.gbw
Number of atoms                         ...     17
Number of basis functions               ...    193
Max core memory                         ...   1024 MB

Electric properties:
Dipole moment                           ... YES
Quadrupole moment                       ...  NO
Static polarizability (Dipole/Dipole)   ...  NO
Static polarizability (Dipole/Quad.)    ...  NO
Static polarizability (Quad./Quad.)     ...  NO
Static polarizability (Velocity)        ...  NO

Atomic electric properties:
Dipole moment                           ...  NO
Quadrupole moment                       ...  NO
Static polarizability                   ...  NO

Choice of electric origin               ... Center of mass
Position of electric origin             ...     0.013696     0.031387     0.067260

General magnetic properties:
Magnetizability                         ...  NO

EPR properties:
g-Tensor (aka g-matrix)                 ...  NO
Zero-Field splitting spin-orbit         ...  NO
Zero-field splitting spin-spin          ...  NO
Hyperfine couplings                     ...  NO (   0 nuclei)
Quadrupole couplings                    ...  NO (   0 nuclei)
Contact density                         ...  NO (   0 nuclei)

NMR properties:
Chemical shifts                         ...  NO (   0 nuclei)
Spin-rotation constants                 ...  NO (   0 nuclei)
Spin-spin couplings                     ...  NO (   0 nuclei,    0 pairs)

Choice of magnetic origin               ... GIAO
Position of magnetic origin             ...     0.000000     0.000000     0.000000

Properties with geometric perturbations:
SCF Hessian                             ...  NO
IR spectrum                             ...  NO
VCD spectrum                            ...  NO
X-ray spectroscopy properties:
SCF XES/XAS/RIXS spectra                ...  NO


-------------
DIPOLE MOMENT
-------------

Method             : SCF
Type of density    : Electron Density
Multiplicity       :   1
Irrep              :   0
Energy             :  -346.9450958096618933 Eh
Relativity type    : 
Basis              : AO
                                X                 Y                 Z
Electronic contribution:      4.456506335      -2.382296904       1.326373119
Nuclear contribution   :     -4.459617262       3.217335496      -0.735582503
                        -----------------------------------------
Total Dipole Moment    :     -0.003110927       0.835038592       0.590790616
                        -----------------------------------------
Magnitude (a.u.)       :      1.022904042
Magnitude (Debye)      :      2.600015449



--------------------
Rotational spectrum 
--------------------
 
Rotational constants in cm-1:             0.160020             0.052234             0.049373 
Rotational constants in MHz :          4797.266686          1565.923106          1480.174247 

Dipole components along the rotational axes: 
x,y,z [a.u.] :     0.021688     0.712604     0.733524 
x,y,z [Debye]:     0.055126     1.811296     1.864470 

 

Dipole moment calculation done in   0.0 sec 

Maximum memory used throughout the entire PROP-calculation: 11.7 MB

--------------------------------
SUGGESTED CITATIONS FOR THIS RUN
--------------------------------

Below you find a list of papers that are relevant to this ORCA run
We neither can nor want to force you to cite these papers, but we appreciate if you do
You receive ORCA, which is the product of decades of hard work by many enthusiastic individuals, for free
The only thing we kindly ask in return is that you cite our papers,
We deeply appreciate it, if you show your appreciation for ORCA by not just citing the generic ORCA reference.

Please note that relegating all ORCA citations to the supporting information does *not* help us.
SI sections are not indexed - citations you put there will not count into any citation statistics
But we need these citations in order to attract the funding resources that allow us to do what we are doing

Therefore, if you are a happy ORCA user, please consider citing a few of the papers listed below in the main body of your paper

In addition to the list printed below, the program has created the file xtb_opt.bibtex that contains the list in bibtex format
You can import this file easily into all common literature databanks and citation aid programs


List of essential papers. We consider these as the minimum necessary citations

  1. Neese,F.
     Software update: the ORCA program system, version 5.0
     WIRES Comput. Molec. Sci., 2022 12(1)e1606
     doi.org/10.1002/wcms.1606
  2. Grimme,S.; Hansen,A.; Ehlert,S.; Mewes,J.
     r2SCAN-3c: A 'Swiss army knife' composite electronic-structure method
     J. Chem. Phys., 2021 154 064103
     doi.org/10.1063/5.0040021

List of papers to cite with high priority. The work reported in these papers was absolutely
necessary for this run to complete.
Our perspective: the developers of density functionals and basis sets usually get cited in chemistry papers
Good! But without the algorithms to do something with them, the functionals or basis sets would not do anything.
Hence, in our opinion, the algorithm design and method developments papers are equally worthy of getting cited

  1. Neese,F.
     An improvement of the resolution of the identity approximation for the formation of the Coulomb matrix
     J. Comp. Chem., 2003 24(14)1740-1747
     doi.org/10.1002/jcc.10318
  2. Garcia-Rates,M.; Neese,F.
     Effect of the Solute Cavity on the Solvation Energy and its Derivatives within the Framework of the Gaussian Charge Scheme
     J. Comput. Chem., 2020 41 922-939
     doi.org/10.1002/jcc.26139
  3. Neese,F.
     The SHARK Integral Generation and Digestion System
     J. Comp. Chem., 2022  1-16
     doi.org/10.1002/jcc.26942
  4. Lehtola,S.; Steigemann,C.; Oliveira,M.; Marques,M.
     Recent developments in Libxc - A comprehensive library of functionals for density functional theory
     Software X, 2018 7 
     doi.org/10.1016/j.softx.2017.11.002
  5. Caldeweyher,E.; Bannwarth,C.; Grimme,S.
     Extension of the D3 dispersion coefficient model
     J. Chem. Phys., 2017 147 034112-XXXX
     doi.org/10.1063/1.4993215
  6. Caldeweyher,E.; Ehlert,S.; Hansen,A.; Neugebauer,H.; Spicher,S.; Bannwarth,C.; Grimme,S.
     A generally applicable atomic-charge dependent London dispersion correction
     J. Chem. Phys., 2019 150 154122-XXXX
     doi.org/10.1063/1.5090222
  7. Caldeweyher,E.; Mewes,J.; Ehlert,S.; Grimme,S.
     Extension and evaluation of the D4 London-dispersion model for periodic systems
     Phys. Chem. Chem. Phys., 2020 22(16)8499-8512
     doi.org/10.1039/D0CP00502A

List of suggested additional citations. These are papers that are important in the 'surrounding' of 
of this run, or papers that preceded the highly important papers. If you like your results we are grateful for a citation.

  1. Neese,F.
     The ORCA program system
     WIRES Comput. Molec. Sci., 2012 2(1)73-78
     doi.org/10.1002/wcms.81
  2. Neese,F.
     Software update: the ORCA program system, version 4.0
     WIRES Comput. Molec. Sci., 2018 8(1)1-6
     doi.org/10.1002/wcms.1327
  3. Neese,F.; Wennmohs,F.; Becker,U.; Riplinger,C.
     The ORCA quantum chemistry program package
     J. Chem. Phys., 2020 152 Art. No. L224108
     doi.org/10.1063/5.0004608

List of optional additional citations

  1. Neese,F.
     Approximate second-order SCF convergence for spin unrestricted wavefunctions
     Chem. Phys. Lett., 2000 325(1-3)93-98
     doi.org/10.1016/s0009-2614(00)00662-x

Timings for individual modules:

Sum of individual times          ...       17.961 sec (=   0.299 min)
Startup calculation              ...        1.191 sec (=   0.020 min)   6.6 %
SCF iterations                   ...        8.622 sec (=   0.144 min)  48.0 %
Property calculations            ...        0.114 sec (=   0.002 min)   0.6 %
SCF Gradient evaluation          ...        8.035 sec (=   0.134 min)  44.7 %
                             ****ORCA TERMINATED NORMALLY****
TOTAL RUN TIME: 0 days 0 hours 0 minutes 18 seconds 892 msec
  ------------------------------------------------------------------------
          * successful ORCA run, taking over control again...

         :::::::::::::::::::::::::::::::::::::::::::::::::::::
         ::                  ORCA SUMMARY                   ::
         :::::::::::::::::::::::::::::::::::::::::::::::::::::
         :: total energy            -346.938790528814 Eh    ::
         :: gradient norm              0.001004497383 Eh/a0 ::
         :: HOMO-LUMO gap              0.000000000000 eV    ::
         :::::::::::::::::::::::::::::::::::::::::::::::::::::

           -------------------------------------------------
          |                Property Printout                |
           -------------------------------------------------
           -------------------------------------------------
          |                Geometry Summary                 |
           -------------------------------------------------

      molecular mass/u    :      102.1318968
   center of mass at/Å    :        0.0072633       0.0166036       0.0355918
  moments of inertia/u·Å² :        0.1053461E+03   0.3227287E+03   0.3414251E+03
rotational constants/cm⁻¹ :        0.1600214E+00   0.5223468E-01   0.4937431E-01

 * 14 selected distances

     #   Z          #   Z                                           value/Å
     1   6 C        2   6 C                                       1.5255699
     2   6 C        3   6 C                                       1.5348223 (max)
     4   6 C        5   8 O                                       1.2209052
     4   6 C        6   8 O                                       1.3475211
     1   6 C        8   1 H                                       1.0942488
     1   6 C        9   1 H                                       1.0956537
     1   6 C       10   1 H                                       1.0966880
     2   6 C       11   1 H                                       1.0956433
     2   6 C       12   1 H                                       1.0950024
     3   6 C       13   1 H                                       1.0965270
     3   6 C       14   1 H                                       1.0928722
     7   6 C       15   1 H                                       1.0899359 (min)
     7   6 C       16   1 H                                       1.0930221
     7   6 C       17   1 H                                       1.0928952

 * 3 distinct bonds (by element types)

   Z      Z             #   av. dist./Å        max./Å        min./Å
   1 H    6 C          10     1.0942489     1.0966880     1.0899359
   6 C    6 C           2     1.5301961     1.5348223     1.5255699
   6 C    8 O           2     1.2842131     1.3475211     1.2209052


optimized geometry written to: xtbopt.coord


           -------------------------------------------------
          | TOTAL ENERGY             -346.938790528814 Eh   |
          | GRADIENT NORM               0.001004497383 Eh/α |
           -------------------------------------------------

------------------------------------------------------------------------
 * finished run on 2025/04/11 at 12:23:56.942     
------------------------------------------------------------------------
 total:
 * wall-time:     0 d,  0 h,  2 min, 53.539 sec
 *  cpu-time:     0 d,  0 h,  0 min,  1.252 sec
 * ratio c/w:     0.007 speedup
 SCF:
 * wall-time:     0 d,  0 h,  0 min, 16.153 sec
 *  cpu-time:     0 d,  0 h,  0 min,  0.198 sec
 * ratio c/w:     0.012 speedup
 ANC optimizer:
 * wall-time:     0 d,  0 h,  2 min, 37.327 sec
 *  cpu-time:     0 d,  0 h,  0 min,  1.031 sec
 * ratio c/w:     0.007 speedup

