
                                 *****************
                                 * O   R   C   A *
                                 *****************

                                            #,                                       
                                            ###                                      
                                            ####                                     
                                            #####                                    
                                            ######                                   
                                           ########,                                 
                                     ,,################,,,,,                         
                               ,,#################################,,                 
                          ,,##########################################,,             
                       ,#########################################, ''#####,          
                    ,#############################################,,   '####,        
                  ,##################################################,,,,####,       
                ,###########''''           ''''###############################       
              ,#####''   ,,,,##########,,,,          '''####'''          '####       
            ,##' ,,,,###########################,,,                        '##       
           ' ,,###''''                  '''############,,,                           
         ,,##''                                '''############,,,,        ,,,,,,###''
      ,#''                                            '''#######################'''  
     '                                                          ''''####''''         
             ,#######,   #######,   ,#######,      ##                                
            ,#'     '#,  ##    ##  ,#'     '#,    #''#        ,####,   ,####,        
            ##       ##  ##   ,#'  ##            #'  '#       #'       #'  '#        
            ##       ##  #######   ##           ,######,      #####,   #    #        
            '#,     ,#'  ##    ##  '#,     ,#' ,#      #,     #,   #   #,  ,#        
             '#######'   ##     ##  '#######'  #'      '#     '####' # '####'        



                #########################################################
                #                        -***-                          #
                #          Department of theory and spectroscopy        #
                #                                                       #
                #                      Frank Neese                      #
                #                                                       #
                #     Directorship, Architecture, Infrastructure        #
                #                    SHARK, DRIVERS                     #
                #        Core code/Algorithms in most modules           #
                #                                                       #
                #        Max Planck Institute fuer Kohlenforschung      #
                #                Kaiser Wilhelm Platz 1                 #
                #                 D-45470 Muelheim/Ruhr                 #
                #                      Germany                          #
                #                                                       #
                #                  All rights reserved                  #
                #                        -***-                          #
                #########################################################


                         Program Version 6.0.0  -   RELEASE  -


 With contributions from (in alphabetic order):
   Daniel Aravena         : Magnetic Suceptibility
   Michael Atanasov       : Ab Initio Ligand Field Theory (pilot matlab implementation)
   Alexander A. Auer      : GIAO ZORA, VPT2 properties, NMR spectrum
   Ute Becker             : All parallelization in ORCA, NUMFREQ, NUMCALC
   Giovanni Bistoni       : ED, misc. LED, open-shell LED, HFLD
   Martin Brehm           : Molecular dynamics
   Dmytro Bykov           : pre 5.0 version of the SCF Hessian
   Marcos Casanova-Páez   : Triplet and SCS-CIS(D). UHF-(DLPNO)-IP/EA/STEOM-CCSD. UHF-CVS-IP/STEOM-CCSD
   Vijay G. Chilkuri      : MRCI spin determinant printing, contributions to CSF-ICE
   Pauline Colinet        : FMM embedding
   Dipayan Datta          : RHF DLPNO-CCSD density
   Achintya Kumar Dutta   : EOM-CC, STEOM-CC
   Nicolas Foglia         : Exact transition moments, OPA infrastructure, MCD improvements
   Dmitry Ganyushin       : Spin-Orbit,Spin-Spin,Magnetic field MRCI
   Miquel Garcia          : C-PCM and meta-GGA Hessian, CCSD/C-PCM, Gaussian charge scheme
   Tiago L. C. Gouveia    : GS-ROHF, GS-ROCIS
   Yang Guo               : DLPNO-NEVPT2, F12-NEVPT2, CIM, IAO-localization
   Andreas Hansen         : Spin unrestricted coupled pair/coupled cluster methods
   Ingolf Harden          : AUTO-CI MPn and infrastructure 
   Benjamin Helmich-Paris : MC-RPA, TRAH-(SCF,CASSCF), AVAS, COSX integrals, SCF dyn. polar.
   Lee Huntington         : MR-EOM, pCC
   Robert Izsak           : Overlap fitted RIJCOSX, COSX-SCS-MP3, EOM
   Riya Kayal             : Wick's Theorem for AUTO-CI, AUTO-CI UHF-CCSDT
   Emily Kempfer          : AUTO-CI, RHF CISDT and CCSDT
   Christian Kollmar      : KDIIS, OOCD, Brueckner-CCSD(T), CCSD density, CASPT2, CASPT2-K, improved NEVPT2
   Axel Koslowski         : Symmetry handling
   Simone Kossmann        : Meta GGA functionals, TD-DFT gradient, OOMP2, (MP2 Hessian; deprecated post 5.0)
   Lucas Lang             : DCDCAS
   Marvin Lechner         : AUTO-CI (C++ implementation), FIC-MRCC
   Spencer Leger          : CASSCF response
   Dagmar Lenk            : GEPOL surface, SMD, ORCA-2-JSON
   Dimitrios Liakos       : Extrapolation schemes; Compound Job, initial MDCI parallelization
   Dimitrios Manganas     : Further ROCIS development; embedding schemes. LFT, Crystal Embedding
   Dimitrios Pantazis     : SARC Basis sets
   Anastasios Papadopoulos: AUTO-CI, single reference methods and gradients
   Taras Petrenko         : pre 6.0 DFT Hessian and TD-DFT gradient, (ASA, deprecated), ECA, 1-Electron XAS/XES, NRVS
   Peter Pinski           : DLPNO-MP2, DLPNO-MP2 Gradient
   Christoph Reimann      : Effective Core Potentials
   Marius Retegan         : Local ZFS, SOC
   Christoph Riplinger    : Optimizer, TS searches, QM/MM, DLPNO-CCSD(T), (RO)-DLPNO pert. Triples
   Michael Roemelt        : Original ROCIS implementation
   Masaaki Saitow         : Open-shell DLPNO-CCSD energy and density
   Barbara Sandhoefer     : DKH picture change effects
   Kantharuban Sivalingam : CASSCF convergence/infrastructure, NEVPT2 and variants, FIC-MRCI
   Bernardo de Souza      : ESD, SOC TD-DFT
   Georgi Stoychev        : AutoAux, RI-MP2 NMR, DLPNO-MP2 response, X2C
   Van Anh Tran           : RI-MP2 g-tensors
   Willem Van den Heuvel  : Paramagnetic NMR
   Zikuan Wang            : NOTCH, Electric field optimization 
   Frank Wennmohs         : Technical directorship and infrastructure
   Hang Xu                : AUTO-CI-Response properties 


 We gratefully acknowledge several colleagues who have allowed us to
 interface, adapt or use parts of their codes:
   Stefan Grimme, W. Hujo, H. Kruse, P. Pracht,  : VdW corrections, initial TS optimization,
                  C. Bannwarth, S. Ehlert,         DFT functionals, gCP, sTDA/sTD-DF
                  L. Wittmann, M. Mueller
   Ed Valeev, F. Pavosevic, A. Kumar             : LibInt (2-el integral package), F12 methods
   Garnet Chan, S. Sharma, J. Yang, R. Olivares  : DMRG
   Ulf Ekstrom                                   : XCFun DFT Library
   Mihaly Kallay                                 : mrcc  (arbitrary order and MRCC methods)
   Frank Weinhold                                : gennbo (NPA and NBO analysis)
   Simon Mueller                                 : openCOSMO-RS
   Christopher J. Cramer and Donald G. Truhlar   : smd solvation model
   Lars Goerigk                                  : TD-DFT with DH, B97 family of functionals
   V. Asgeirsson, H. Jonsson                     : NEB implementation
   FAccTs GmbH                                   : IRC, NEB, NEB-TS, DLPNO-Multilevel, CI-OPT
                                                   MM, QMMM, 2- and 3-layer-ONIOM, Crystal-QMMM,
                                                   LR-CPCM, SF, NACMEs, symmetry and pop. for TD-DFT,
                                                   nearIR, NL-DFT gradient (VV10), updates on ESD,
                                                   ML-optimized integration grids, MBIS, APM,
                                                   GOAT, DOCKER, SOLVATOR, interface openCOSMO-RS
   S Lehtola, MJT Oliveira, MAL Marques          : LibXC Library
   Liviu Ungur et al                             : ANISO software


 Your calculation uses the libint2 library for the computation of 2-el integrals
 For citations please refer to: http://libint.valeyev.net

 Your ORCA version has been built with support for libXC version: 6.2.2
 For citations please refer to: https://libxc.gitlab.io

 This ORCA versions uses:
   CBLAS   interface :  Fast vector & matrix operations
   LAPACKE interface :  Fast linear algebra routines
   SCALAPACK package :  Parallel linear algebra routines
   Shared memory     :  Shared parallel matrices
   BLAS/LAPACK       :  OpenBLAS 0.3.27  USE64BITINT DYNAMIC_ARCH NO_AFFINITY SkylakeX SINGLE_THREADED
        Core in use  :  SkylakeX
   Copyright (c) 2011-2014, The OpenBLAS Project


Your calculation utilizes the geometrical counterpoise correction gCP
Please cite in your paper:
H.Kruse, S. Grimme J.Chem.Phys., 136, (2012), 154101 
   

Your calculation utilizes the atom-pairwise dispersion correction
based on EEQ partial charges (D4)


================================================================================

----- Orbital basis set information -----
Your calculation utilizes the basis: def2-SV(P)
   F. Weigend and R. Ahlrichs, Phys. Chem. Chem. Phys. 7, 3297 (2005).

----- AuxJ basis set information -----
Your calculation utilizes the auxiliary basis: def2/J
   F. Weigend, Phys. Chem. Chem. Phys. 8, 1057 (2006).

================================================================================
                                        WARNINGS
                       Please study these warnings very carefully!
================================================================================


================================================================================
                                       INPUT FILE
================================================================================
NAME = sp.inp
|  1> ! pbe def2-sv(p) def2/J RI DEFGRID1 loosescf d4 GCP(DFT/SV(P)) printgap
|  2> %output
|  3>     printlevel normal
|  4> end
|  5> * xyz 0 1
|  6> C -4.0327860785 -0.6319100376 -1.6315988206
|  7> C -3.0325840359 -1.5483369975 -0.9361145871
|  8> C -2.4617441692 -1.0404069009 0.3981140366
|  9> H -1.9774447274 -1.9006319529 0.8762141813
| 10> C -3.5068545642 -0.4940175273 1.360537131
| 11> N -1.3381544987 -0.1017247984 0.1837187799
| 12> C -0.0643878402 -0.6794445412 0.2332033583
| 13> O 0.0817851954 -1.8778896346 0.410497221
| 14> C 1.0346794702 0.2404381704 0.0701655816
| 15> C 0.8572120461 1.5700219713 -0.1388050816
| 16> N -0.4258944198 2.0120895901 -0.2016554492
| 17> C -1.5533379456 1.230424364 -0.0727047263
| 18> O -2.6464997001 1.7502623038 -0.1900145487
| 19> C 1.9546771335 2.5524942689 -0.3138438465
| 20> Br 2.7712041316 -0.5256824468 0.1587482197
| 21> H -3.6260033702 0.3633889046 -1.7819591364
| 22> H -4.2914529006 -1.0508475688 -2.6008056553
| 23> H -4.942034144 -0.542167987 -1.044912595
| 24> H -3.5177739606 -2.5047050938 -0.7331423108
| 25> H -2.1893595216 -1.7496506673 -1.6025365484
| 26> H -4.0015379184 0.3835838453 0.9591264034
| 27> H -4.2442534098 -1.2705813042 1.5400570126
| 28> H -3.0406374062 -0.2307542812 2.307303252
| 29> H -0.6090382919 2.9950860698 -0.3800405667
| 30> H 1.57572683 3.5686243362 -0.3008498057
| 31> H 2.4630139789 2.3719469016 -1.2602854988
| 32> H 2.6963306023 2.4279443264 0.4727989229
| 33> *
| 34> 
| 35>                          ****END OF INPUT****
================================================================================

                       ****************************
                       * Single Point Calculation *
                       ****************************

---------------------------------
CARTESIAN COORDINATES (ANGSTROEM)
---------------------------------
  C     -4.032786   -0.631910   -1.631599
  C     -3.032584   -1.548337   -0.936115
  C     -2.461744   -1.040407    0.398114
  H     -1.977445   -1.900632    0.876214
  C     -3.506855   -0.494018    1.360537
  N     -1.338154   -0.101725    0.183719
  C     -0.064388   -0.679445    0.233203
  O      0.081785   -1.877890    0.410497
  C      1.034679    0.240438    0.070166
  C      0.857212    1.570022   -0.138805
  N     -0.425894    2.012090   -0.201655
  C     -1.553338    1.230424   -0.072705
  O     -2.646500    1.750262   -0.190015
  C      1.954677    2.552494   -0.313844
  Br     2.771204   -0.525682    0.158748
  H     -3.626003    0.363389   -1.781959
  H     -4.291453   -1.050848   -2.600806
  H     -4.942034   -0.542168   -1.044913
  H     -3.517774   -2.504705   -0.733142
  H     -2.189360   -1.749651   -1.602537
  H     -4.001538    0.383584    0.959126
  H     -4.244253   -1.270581    1.540057
  H     -3.040637   -0.230754    2.307303
  H     -0.609038    2.995086   -0.380041
  H      1.575727    3.568624   -0.300850
  H      2.463014    2.371947   -1.260285
  H      2.696331    2.427944    0.472799

----------------------------
CARTESIAN COORDINATES (A.U.)
----------------------------
  NO LB      ZA    FRAG     MASS         X           Y           Z
   0 C     6.0000    0    12.011   -7.620861   -1.194137   -3.083275
   1 C     6.0000    0    12.011   -5.730753   -2.925933   -1.769000
   2 C     6.0000    0    12.011   -4.652022   -1.966084    0.752326
   3 H     1.0000    0     1.008   -3.736829   -3.591674    1.655805
   4 C     6.0000    0    12.011   -6.626995   -0.933558    2.571043
   5 N     7.0000    0    14.007   -2.528746   -0.192232    0.347178
   6 C     6.0000    0    12.011   -0.121675   -1.283964    0.440690
   7 O     8.0000    0    15.999    0.154552   -3.548697    0.775727
   8 C     6.0000    0    12.011    1.955261    0.454362    0.132594
   9 C     6.0000    0    12.011    1.619896    2.966912   -0.262304
  10 N     7.0000    0    14.007   -0.804824    3.802298   -0.381074
  11 C     6.0000    0    12.011   -2.935383    2.325165   -0.137392
  12 O     8.0000    0    15.999   -5.001160    3.307516   -0.359075
  13 C     6.0000    0    12.011    3.693804    4.823515   -0.593079
  14 Br   35.0000    0    79.900    5.236817   -0.993396    0.299991
  15 H     1.0000    0     1.008   -6.852153    0.686706   -3.367415
  16 H     1.0000    0     1.008   -8.109671   -1.985814   -4.914810
  17 H     1.0000    0     1.008   -9.339091   -1.024549   -1.974599
  18 H     1.0000    0     1.008   -6.647629   -4.733207   -1.385438
  19 H     1.0000    0     1.008   -4.137290   -3.306361   -3.028355
  20 H     1.0000    0     1.008   -7.561811    0.724868    1.812486
  21 H     1.0000    0     1.008   -8.020477   -2.401051    2.910286
  22 H     1.0000    0     1.008   -5.745972   -0.436062    4.360171
  23 H     1.0000    0     1.008   -1.150916    5.659892   -0.718173
  24 H     1.0000    0     1.008    2.977692    6.743723   -0.568524
  25 H     1.0000    0     1.008    4.654422    4.482330   -2.381594
  26 H     1.0000    0     1.008    5.095326    4.588150    0.893460

--------------------------------
INTERNAL COORDINATES (ANGSTROEM)
--------------------------------
 C      0   0   0     0.000000000000     0.00000000     0.00000000
 C      1   0   0     1.524447709139     0.00000000     0.00000000
 C      2   1   0     1.537536066812   116.16095838     0.00000000
 H      3   2   1     1.096865004355   106.44455239   165.97892434
 C      3   2   1     1.522187668441   114.35141055    46.81514960
 N      3   2   1     1.479710499829   111.45378777   277.60182171
 C      6   3   2     1.399532180776   115.09422545   264.75142041
 O      7   6   3     1.220274687102   121.30342341     1.62741265
 C      7   6   3     1.442468187698   115.22817181   182.02949901
 C      9   7   6     1.357555342633   122.84502372   358.96154976
 N     10   9   7     1.358578724673   116.69686405   359.44694812
 C      6   3   2     1.373564094331   121.55609804    83.39821755
 O     12   6   3     1.216139671086   124.98679648   357.52171094
 C     10   9   7     1.483347566429   124.75953661   180.09572020
 Br     9   7   6     1.900080415015   115.71853418   179.19745838
 H      1   2   3     1.085679686042   111.62078473    54.52640857
 H      1   2   3     1.087096623273   109.34124558   174.70854003
 H      1   2   3     1.085811405158   110.64632022   293.93398988
 H      2   1   3     1.091442597482   108.65879875   120.70278507
 H      2   1   3     1.093468337753   109.79064786   237.58911311
 H      5   3   2     1.084447491741   111.69367938   296.34354921
 H      5   3   2     1.085834124061   108.30550427    56.73444613
 H      5   3   2     1.087672773877   110.05607885   175.41407150
 H     11  10   9     1.015699270028   119.55996772   181.54836670
 H     14  10   9     1.084570187351   111.13816127   189.47291829
 H     14  10   9     1.089383082960   109.75422333    68.58741571
 H     14  10   9     1.088287371336   110.06622313   311.17626590

---------------------------
INTERNAL COORDINATES (A.U.)
---------------------------
 C      0   0   0     0.000000000000     0.00000000     0.00000000
 C      1   0   0     2.880788675757     0.00000000     0.00000000
 C      2   1   0     2.905522087300   116.16095838     0.00000000
 H      3   2   1     2.072774464113   106.44455239   165.97892434
 C      3   2   1     2.876517817786   114.35141055    46.81514960
 N      3   2   1     2.796247602164   111.45378777   277.60182171
 C      6   3   2     2.644732537276   115.09422545   264.75142041
 O      7   6   3     2.305984966779   121.30342341     1.62741265
 C      7   6   3     2.725869831644   115.22817181   182.02949901
 C      9   7   6     2.565407809217   122.84502372   358.96154976
 N     10   9   7     2.567341721003   116.69686405   359.44694812
 C      6   3   2     2.595659965673   121.55609804    83.39821755
 O     12   6   3     2.298170918949   124.98679648   357.52171094
 C     10   9   7     2.803120661969   124.75953661   180.09572020
 Br     9   7   6     3.590631616805   115.71853418   179.19745838
 H      1   2   3     2.051637275781   111.62078473    54.52640857
 H      1   2   3     2.054314899097   109.34124558   174.70854003
 H      1   2   3     2.051886188836   110.64632022   293.93398988
 H      2   1   3     2.062527600136   108.65879875   120.70278507
 H      2   1   3     2.066355694467   109.79064786   237.58911311
 H      5   3   2     2.049308766009   111.69367938   296.34354921
 H      5   3   2     2.051929121341   108.30550427    56.73444613
 H      5   3   2     2.055403665951   110.05607885   175.41407150
 H     11  10   9     1.919393454777   119.55996772   181.54836670
 H     14  10   9     2.049540627109   111.13816127   189.47291829
 H     14  10   9     2.058635681720   109.75422333    68.58741571
 H     14  10   9     2.056565086830   110.06622313   311.17626590

---------------------
BASIS SET INFORMATION
---------------------
There are 5 groups of distinct atoms

 Group   1 Type C   : 7s4p1d contracted to 3s2p1d pattern {511/31/1}
 Group   2 Type H   : 4s contracted to 2s pattern {31}
 Group   3 Type N   : 7s4p1d contracted to 3s2p1d pattern {511/31/1}
 Group   4 Type O   : 7s4p1d contracted to 3s2p1d pattern {511/31/1}
 Group   5 Type Br  : 14s10p6d contracted to 5s4p3d pattern {63311/5311/411}

Atom   0C    basis set group =>   1
Atom   1C    basis set group =>   1
Atom   2C    basis set group =>   1
Atom   3H    basis set group =>   2
Atom   4C    basis set group =>   1
Atom   5N    basis set group =>   3
Atom   6C    basis set group =>   1
Atom   7O    basis set group =>   4
Atom   8C    basis set group =>   1
Atom   9C    basis set group =>   1
Atom  10N    basis set group =>   3
Atom  11C    basis set group =>   1
Atom  12O    basis set group =>   4
Atom  13C    basis set group =>   1
Atom  14Br   basis set group =>   5
Atom  15H    basis set group =>   2
Atom  16H    basis set group =>   2
Atom  17H    basis set group =>   2
Atom  18H    basis set group =>   2
Atom  19H    basis set group =>   2
Atom  20H    basis set group =>   2
Atom  21H    basis set group =>   2
Atom  22H    basis set group =>   2
Atom  23H    basis set group =>   2
Atom  24H    basis set group =>   2
Atom  25H    basis set group =>   2
Atom  26H    basis set group =>   2
---------------------------------
AUXILIARY/J BASIS SET INFORMATION
---------------------------------
There are 5 groups of distinct atoms

 Group   1 Type C   : 12s5p4d2f1g contracted to 6s4p3d1f1g pattern {711111/2111/211/2/1}
 Group   2 Type H   : 5s2p1d contracted to 3s1p1d pattern {311/2/1}
 Group   3 Type N   : 12s5p4d2f1g contracted to 6s4p3d1f1g pattern {711111/2111/211/2/1}
 Group   4 Type O   : 12s5p4d2f1g contracted to 6s4p3d1f1g pattern {711111/2111/211/2/1}
 Group   5 Type Br  : 19s5p5d3f1g contracted to 8s4p3d2f1g pattern {121111111/2111/311/21/1}

Atom   0C    basis set group =>   1
Atom   1C    basis set group =>   1
Atom   2C    basis set group =>   1
Atom   3H    basis set group =>   2
Atom   4C    basis set group =>   1
Atom   5N    basis set group =>   3
Atom   6C    basis set group =>   1
Atom   7O    basis set group =>   4
Atom   8C    basis set group =>   1
Atom   9C    basis set group =>   1
Atom  10N    basis set group =>   3
Atom  11C    basis set group =>   1
Atom  12O    basis set group =>   4
Atom  13C    basis set group =>   1
Atom  14Br   basis set group =>   5
Atom  15H    basis set group =>   2
Atom  16H    basis set group =>   2
Atom  17H    basis set group =>   2
Atom  18H    basis set group =>   2
Atom  19H    basis set group =>   2
Atom  20H    basis set group =>   2
Atom  21H    basis set group =>   2
Atom  22H    basis set group =>   2
Atom  23H    basis set group =>   2
Atom  24H    basis set group =>   2
Atom  25H    basis set group =>   2
Atom  26H    basis set group =>   2
------------------------------------------------------------------------------
                             ORCA STARTUP CALCULATIONS
                           -- RI-GTO INTEGRALS CHOSEN --
------------------------------------------------------------------------------
------------------------------------------------------------------------------
                   ___                                                        
                  /   \      - P O W E R E D   B Y -                         
                 /     \                                                     
                 |  |  |   _    _      __       _____    __    __             
                 |  |  |  | |  | |    /  \     |  _  \  |  |  /  |          
                  \  \/   | |  | |   /    \    | | | |  |  | /  /          
                 / \  \   | |__| |  /  /\  \   | |_| |  |  |/  /          
                |  |  |   |  __  | /  /__\  \  |    /   |      \           
                |  |  |   | |  | | |   __   |  |    \   |  |\   \          
                \     /   | |  | | |  |  |  |  | |\  \  |  | \   \       
                 \___/    |_|  |_| |__|  |__|  |_| \__\ |__|  \__/        
                                                                              
                      - O R C A' S   B I G   F R I E N D -                    
                                      &                                       
                       - I N T E G R A L  F E E D E R -                       
                                                                              
 v1 FN, 2020, v2 2021, v3 2022-2024                                           
------------------------------------------------------------------------------


----------------------
SHARK INTEGRAL PACKAGE
----------------------

Number of atoms                             ...     27
Number of basis functions                   ...    240
Number of shells                            ...    116
Maximum angular momentum                    ...      2
Integral batch strategy                     ... SHARK/LIBINT Hybrid
RI-J (if used) integral strategy            ... SPLIT-RIJ (Revised 2003 algorithm where possible)
Printlevel                                  ...      1
Contraction scheme used                     ... SEGMENTED contraction
Prescreening option                         ... SCHWARTZ
   Thresh                                   ... 1.000e-09
   Tcut                                     ... 1.000e-10
   Tpresel                                  ... 1.000e-10 
Coulomb Range Separation                    ... NOT USED
Exchange Range Separation                   ... NOT USED
Multipole approximations                    ... NOT USED
Finite Nucleus Model                        ... NOT USED
CABS basis                                  ... NOT available
Auxiliary Coulomb fitting basis             ... AVAILABLE
   # of basis functions in Aux-J            ...    838
   # of shells in Aux-J                     ...    278
   Maximum angular momentum in Aux-J        ...      4
Auxiliary J/K fitting basis                 ... NOT available
Auxiliary Correlation fitting basis         ... NOT available
Auxiliary 'external' fitting basis          ... NOT available

Checking pre-screening integrals            ... done (  0.0 sec) Dimension = 116
Check shell pair data                       ... done (  0.0 sec)
Shell pair information
Shell pair cut-off parameter TPreSel        ...   1.0e-10
Total number of shell pairs                 ...      6786
Shell pairs after pre-screening             ...      5693
Total number of primitive shell pairs       ...     28689
Primitive shell pairs kept                  ...     15183
          la=0 lb=0:   2052 shell pairs
          la=1 lb=0:   1848 shell pairs
          la=1 lb=1:    429 shell pairs
          la=2 lb=0:    861 shell pairs
          la=2 lb=1:    405 shell pairs
          la=2 lb=2:     98 shell pairs

Calculating one electron integrals          ... done (  0.0 sec)
Calculating RI/J V-Matrix + Cholesky decomp.... done (  0.2 sec)
Calculating Nuclear repulsion               ... done (  0.0 sec) ENN=   1284.291107321000 Eh

Diagonalization of the overlap matrix:
Smallest eigenvalue                        ... 8.722e-04
Time for diagonalization                   ...    0.006 sec
Threshold for overlap eigenvalues          ... 1.000e-07
Number of eigenvalues below threshold      ... 0
Time for construction of square roots      ...    0.019 sec
Total time needed                          ...    0.043 sec

-------------------
DFT GRID GENERATION
-------------------

General Integration Accuracy     IntAcc      ... 4.159
Radial Grid Type                 RadialGrid  ... OptM3 with GC (2021)
Angular Grid (max. ang.)         AngularGrid ... 3 (Lebedev-194)
Angular grid pruning method      GridPruning ... 4 (adaptive)
Weight generation scheme         WeightScheme... mBecke (2022)
Basis function cutoff            BFCut       ... 1.0000e-10
Integration weight cutoff        WCut        ... 1.0000e-14
Partially contracted basis set               ... off
Rotationally invariant grid construction     ... off
Angular grids for H and He will be reduced by one unit
Core-polarized basis detected: some atoms will have their core
                               angular grid increased.

Total number of grid points                  ...    65602
Total number of batches                      ...     1039
Average number of points per batch           ...       63
Average number of grid points per atom       ...     2430
Initializing property integral containers    ... done (  0.0 sec)

SHARK setup successfully completed in   1.4 seconds

Maximum memory used throughout the entire STARTUP-calculation: 37.2 MB
-------------------------------------------------------------------------------
                                 ORCA GUESS
                   Start orbitals & Density for SCF / CASSCF
-------------------------------------------------------------------------------

------------
SCF SETTINGS
------------
Hamiltonian:
 Density Functional     Method          .... DFT(GTOs)
 Exchange Functional    Exchange        .... PBE
   PBE kappa parameter   XKappa         ....  0.804000
   PBE mue parameter    XMuePBE         ....  0.219520
 Correlation Functional Correlation     .... PBE
   PBE beta parameter  CBetaPBE         ....  0.066725
 LDA part of GGA corr.  LDAOpt          .... PW91-LDA
 Gradients option       PostSCFGGA      .... off
   NL short-range parameter             ....  6.400000
 RI-approximation to the Coulomb term is turned on
   Number of AuxJ basis functions       .... 838


General Settings:
 Integral files         IntName         .... sp
 Hartree-Fock type      HFTyp           .... RHF
 Total Charge           Charge          ....    0
 Multiplicity           Mult            ....    1
 Number of Electrons    NEL             ....  132
 Basis Dimension        Dim             ....  240
 Nuclear Repulsion      ENuc            ....   1284.2911073210 Eh

Convergence Acceleration:
 AO-DIIS                CNVDIIS         .... on
   Start iteration      DIISMaxIt       ....    12
   Startup error        DIISStart       ....  0.200000
   # of expansion vecs  DIISMaxEq       ....     5
   Bias factor          DIISBfac        ....   1.050
   Max. coefficient     DIISMaxC        ....  10.000
 MO-DIIS                CNVKDIIS        .... off
 Trust-Rad. Augm. Hess. CNVTRAH         .... auto
   Auto Start mean grad. ratio tolernc. ....  1.125000
   Auto Start start iteration           ....    50
   Auto Start num. interpolation iter.  ....    10
   Max. Number of Micro iterations      ....    24
   Max. Number of Macro iterations      .... Maxiter - #DIIS iter
   Number of Davidson start vectors     ....     2
   Converg. threshold    (grad. norm)   ....   1.000e-04
   Grad. Scal. Fac. for Micro threshold ....   0.100
   Minimum threshold for Micro iter.    ....   1.000e-02
   NR start threshold (gradient norm)   ....   1.000e-04
   Initial trust radius                 ....   0.400
   Minimum AH scaling param. (alpha)    ....   1.000
   Maximum AH scaling param. (alpha)    .... 1000.000
   Quad. conv. algorithm                .... NR
   White noise on init. David. guess    .... on
   Maximum white noise                  ....   0.010
   Pseudo random numbers                .... off
   Inactive MOs                         .... canonical
   Orbital update algorithm             .... Taylor
   Preconditioner                       .... Diag
   Full preconditioner red. dimension   ....   250
 SOSCF                  CNVSOSCF        .... on
   Start iteration      SOSCFMaxIt      ....   150
   Startup grad/error   SOSCFStart      ....  0.003300
   Hessian update       SOSCFHessUp     .... L-BFGS
 Level Shifting         CNVShift        .... on
   Level shift para.    LevelShift      ....    0.2500
   Turn off err/grad.   ShiftErr        ....    0.0010
 Zerner damping         CNVZerner       .... off
 Static damping         CNVDamp         .... on
   Fraction old density DampFac         ....    0.7000
   Max. Damping (<1)    DampMax         ....    0.9800
   Min. Damping (>=0)   DampMin         ....    0.0000
   Turn off err/grad.   DampErr         ....    0.1000

SCF Procedure:
 Maximum # iterations   MaxIter         ....   125
 SCF integral mode      SCFMode         .... Direct
   Integral package                     .... SHARK and LIBINT hybrid scheme
 Reset frequency        DirectResetFreq ....    20
 Integral Threshold     Thresh          ....  1.000e-09 Eh
 Primitive CutOff       TCut            ....  1.000e-10 Eh

Convergence Tolerance:
 Convergence Check Mode ConvCheckMode   .... Total+1el-Energy
 Convergence forced     ConvForced      .... 0
 Energy Change          TolE            ....  1.000e-05 Eh
 1-El. energy change                    ....  1.000e-02 Eh
 Orbital Gradient       TolG            ....  1.000e-04
 Orbital Rotation angle TolX            ....  1.000e-04
 DIIS Error             TolErr          ....  5.000e-04

------------------------------
INITIAL GUESS: MODEL POTENTIAL
------------------------------
Loading Hartree-Fock densities                     ... done
Calculating cut-offs                               ... done
Initializing the effective Hamiltonian             ... done
Setting up the integral package (SHARK)            ... done
Starting the Coulomb interaction                   ... done (   0.5 sec)
Making the grid                                    ... done (   0.4 sec)
Mapping shells                                     ... done
Starting the XC term evaluation                    ... done (   0.4 sec)
  promolecular density results
     # of electrons  =    131.991314580
     EX              =   -168.643012457
     EC              =     -4.993598019
     EX+EC           =   -173.636610476
Transforming the Hamiltonian                       ... done (   0.0 sec)
Diagonalizing the Hamiltonian                      ... done (   0.0 sec)
Back transforming the eigenvectors                 ... done (   0.0 sec)
Now organizing SCF variables                       ... done
                      ------------------
                      INITIAL GUESS DONE (   1.4 sec)
                      ------------------
             **** ENERGY FILE WAS UPDATED (sp.en.tmp) ****
Finished Guess after   1.6 sec
Maximum memory used throughout the entire GUESS-calculation: 32.0 MB

-------------------------------------------------------------------------------------------
                                      ORCA LEAN-SCF
                              memory conserving SCF solver
-------------------------------------------------------------------------------------------

----------------------------------------D-I-I-S--------------------------------------------
Iteration    Energy (Eh)           Delta-E    RMSDP     MaxDP     DIISErr   Damp  Time(sec)
-------------------------------------------------------------------------------------------
               ***  Starting incremental Fock matrix formation  ***
    1    -3182.6499808534927070     0.00e+00  4.52e-03  1.83e-01  2.58e-01  0.700   1.9
    2    -3182.8445185579421377    -1.95e-01  2.53e-03  9.43e-02  7.40e-02  0.700   1.8
                               ***Turning on AO-DIIS***
    3    -3182.8993480769486268    -5.48e-02  8.74e-04  1.51e-02  3.50e-02  0.700   1.8
    4    -3182.9384019273702506    -3.91e-02  1.33e-03  3.15e-02  2.44e-02  0.000   1.8
    5    -3183.0296341033972567    -9.12e-02  4.20e-04  7.06e-03  1.25e-02  0.000   1.7
                              *** Initializing SOSCF ***
---------------------------------------S-O-S-C-F--------------------------------------
Iteration    Energy (Eh)           Delta-E    RMSDP     MaxDP     MaxGrad    Time(sec)
--------------------------------------------------------------------------------------
    6    -3183.0309016706278271    -1.27e-03  1.43e-04  2.44e-03  2.71e-03     1.8
               *** Restarting incremental Fock matrix formation ***
    7    -3183.0309890132029977    -8.73e-05  1.15e-04  2.65e-03  4.62e-04     1.9
    8    -3183.0309781949636090     1.08e-05  6.12e-05  2.21e-03  8.76e-04     1.5
    9    -3183.0309999736509781    -2.18e-05  5.77e-05  1.36e-03  2.89e-04     1.6
   10    -3183.0309970302123475     2.94e-06  3.13e-05  8.60e-04  3.38e-04     1.6
                 **** Energy Check signals convergence ****

               *****************************************************
               *                     SUCCESS                       *
               *           SCF CONVERGED AFTER  10 CYCLES          *
               *****************************************************

             **** ENERGY FILE WAS UPDATED (sp.en.tmp) ****

----------------
TOTAL SCF ENERGY
----------------

Total Energy       :      -3183.03099703021235 Eh          -86614.67683 eV

Components:
Nuclear Repulsion  :       1284.29110732099980 Eh           34947.33772 eV
Electronic Energy  :      -4467.32210435121215 Eh         -121562.01455 eV
One Electron Energy:      -6964.80104723652494 Eh         -189521.87160 eV
Two Electron Energy:       2497.47894288531279 Eh           67959.85705 eV

Virial components:
Potential Energy   :      -6358.13810450145411 Eh         -173013.73367 eV
Kinetic Energy     :       3175.10710747124176 Eh           86399.05684 eV
Virial Ratio       :          2.00249562905778

DFT components:
N(Alpha)           :       65.999832277800 electrons
N(Beta)            :       65.999832277800 electrons
N(Total)           :      131.999664555600 electrons
E(X)               :     -169.962176705004 Eh       
E(C)               :       -5.005656905351 Eh       
E(XC)              :     -174.967833610354 Eh       

---------------
SCF CONVERGENCE
---------------

  Last Energy change         ...   -2.9434e-06  Tolerance :   1.0000e-05
  Last MAX-Density change    ...    8.5953e-04  Tolerance :   1.0000e-03
  Last RMS-Density change    ...    3.1310e-05  Tolerance :   1.0000e-04
  Last DIIS Error            ...    2.7087e-03  Tolerance :   5.0000e-04
  Last Orbital Gradient      ...    3.3765e-04  Tolerance :   1.0000e-04
  Last Orbital Rotation      ...    4.2833e-04  Tolerance :   1.0000e-04


----------------
ORBITAL ENERGIES
----------------

  NO   OCC          E(Eh)            E(eV) 
   0   2.0000    -480.942118    -13087.1004 
   1   2.0000     -61.783870     -1681.2246 
   2   2.0000     -55.714554     -1516.0701 
   3   2.0000     -55.711473     -1515.9863 
   4   2.0000     -55.711219     -1515.9793 
   5   2.0000     -18.735091      -509.8078 
   6   2.0000     -18.731435      -509.7083 
   7   2.0000     -14.067378      -382.7928 
   8   2.0000     -14.055718      -382.4755 
   9   2.0000     -10.034981      -273.0657 
  10   2.0000     -10.003177      -272.2003 
  11   2.0000      -9.982831      -271.6466 
  12   2.0000      -9.949644      -270.7436 
  13   2.0000      -9.931824      -270.2587 
  14   2.0000      -9.924086      -270.0481 
  15   2.0000      -9.885928      -269.0098 
  16   2.0000      -9.873873      -268.6817 
  17   2.0000      -9.865427      -268.4519 
  18   2.0000      -8.409072      -228.8225 
  19   2.0000      -6.291398      -171.1976 
  20   2.0000      -6.276768      -170.7995 
  21   2.0000      -6.276014      -170.7790 
  22   2.0000      -2.492483       -67.8239 
  23   2.0000      -2.488914       -67.7268 
  24   2.0000      -2.488412       -67.7131 
  25   2.0000      -2.477401       -67.4135 
  26   2.0000      -2.477379       -67.4129 
  27   2.0000      -0.988176       -26.8896 
  28   2.0000      -0.948138       -25.8001 
  29   2.0000      -0.898632       -24.4530 
  30   2.0000      -0.859222       -23.3806 
  31   2.0000      -0.768508       -20.9122 
  32   2.0000      -0.728152       -19.8140 
  33   2.0000      -0.707865       -19.2620 
  34   2.0000      -0.667543       -18.1648 
  35   2.0000      -0.647891       -17.6300 
  36   2.0000      -0.616303       -16.7705 
  37   2.0000      -0.595384       -16.2012 
  38   2.0000      -0.573239       -15.5986 
  39   2.0000      -0.532271       -14.4838 
  40   2.0000      -0.527741       -14.3606 
  41   2.0000      -0.489161       -13.3108 
  42   2.0000      -0.454048       -12.3553 
  43   2.0000      -0.433597       -11.7988 
  44   2.0000      -0.418065       -11.3761 
  45   2.0000      -0.413003       -11.2384 
  46   2.0000      -0.404948       -11.0192 
  47   2.0000      -0.391402       -10.6506 
  48   2.0000      -0.387786       -10.5522 
  49   2.0000      -0.382543       -10.4095 
  50   2.0000      -0.373172       -10.1545 
  51   2.0000      -0.368709       -10.0331 
  52   2.0000      -0.361114        -9.8264 
  53   2.0000      -0.348117        -9.4727 
  54   2.0000      -0.341096        -9.2817 
  55   2.0000      -0.333923        -9.0865 
  56   2.0000      -0.319583        -8.6963 
  57   2.0000      -0.300275        -8.1709 
  58   2.0000      -0.290219        -7.8973 
  59   2.0000      -0.288692        -7.8557 
  60   2.0000      -0.275282        -7.4908 
  61   2.0000      -0.253690        -6.9033 
  62   2.0000      -0.240347        -6.5402 
  63   2.0000      -0.232494        -6.3265 
  64   2.0000      -0.215959        -5.8765 
  65   2.0000      -0.205631        -5.5955 
  66   0.0000      -0.073351        -1.9960 
  67   0.0000      -0.031836        -0.8663 
  68   0.0000      -0.025829        -0.7028 
  69   0.0000       0.013625         0.3708 
  70   0.0000       0.040984         1.1152 
  71   0.0000       0.053229         1.4484 
  72   0.0000       0.062997         1.7142 
  73   0.0000       0.077376         2.1055 
  74   0.0000       0.084933         2.3111 
  75   0.0000       0.091236         2.4827 
  76   0.0000       0.092310         2.5119 
*Only the first 10 virtual orbitals were printed.

                    ********************************
                    * MULLIKEN POPULATION ANALYSIS *
                    ********************************

-----------------------
MULLIKEN ATOMIC CHARGES
-----------------------
   0 C :   -0.287835
   1 C :   -0.155762
   2 C :   -0.064027
   3 H :    0.109098
   4 C :   -0.253278
   5 N :   -0.245263
   6 C :    0.186159
   7 O :   -0.178661
   8 C :   -0.188514
   9 C :   -0.002592
  10 N :   -0.200542
  11 C :    0.177803
  12 O :   -0.205296
  13 C :   -0.201821
  14 Br:    0.009093
  15 H :    0.127522
  16 H :    0.096641
  17 H :    0.101359
  18 H :    0.090880
  19 H :    0.091800
  20 H :    0.145799
  21 H :    0.103458
  22 H :    0.099207
  23 H :    0.247985
  24 H :    0.103890
  25 H :    0.146916
  26 H :    0.145980
Sum of atomic charges:   -0.0000000

--------------------------------
MULLIKEN REDUCED ORBITAL CHARGES
--------------------------------
  0 C s       :     3.092496  s :     3.092496
      pz      :     1.043282  p :     3.166259
      px      :     1.056306
      py      :     1.066671
      dz2     :     0.005771  d :     0.029080
      dxz     :     0.006651
      dyz     :     0.004435
      dx2y2   :     0.007377
      dxy     :     0.004847

  1 C s       :     3.051522  s :     3.051522
      pz      :     1.004217  p :     3.068219
      px      :     1.024734
      py      :     1.039268
      dz2     :     0.006465  d :     0.036020
      dxz     :     0.010505
      dyz     :     0.005421
      dx2y2   :     0.006778
      dxy     :     0.006852

  2 C s       :     3.066960  s :     3.066960
      pz      :     1.071400  p :     2.943236
      px      :     0.910264
      py      :     0.961572
      dz2     :     0.010438  d :     0.053832
      dxz     :     0.011250
      dyz     :     0.009892
      dx2y2   :     0.006001
      dxy     :     0.016250

  3 H s       :     0.890902  s :     0.890902

  4 C s       :     3.076379  s :     3.076379
      pz      :     1.028399  p :     3.148684
      px      :     1.042192
      py      :     1.078093
      dz2     :     0.006750  d :     0.028215
      dxz     :     0.006056
      dyz     :     0.003810
      dx2y2   :     0.002120
      dxy     :     0.009480

  5 N s       :     3.427393  s :     3.427393
      pz      :     1.534874  p :     3.793020
      px      :     1.155492
      py      :     1.102654
      dz2     :     0.002549  d :     0.024850
      dxz     :     0.003689
      dyz     :     0.004149
      dx2y2   :     0.008495
      dxy     :     0.005968

  6 C s       :     2.990140  s :     2.990140
      pz      :     0.897433  p :     2.711521
      px      :     0.884003
      py      :     0.930085
      dz2     :     0.006956  d :     0.112180
      dxz     :     0.010622
      dyz     :     0.023365
      dx2y2   :     0.024781
      dxy     :     0.046455

  7 O s       :     3.734870  s :     3.734870
      pz      :     1.398813  p :     4.426241
      px      :     1.719794
      py      :     1.307634
      dz2     :     0.002069  d :     0.017550
      dxz     :     0.000244
      dyz     :     0.005369
      dx2y2   :     0.005866
      dxy     :     0.004003

  8 C s       :     3.078830  s :     3.078830
      pz      :     1.167905  p :     3.071780
      px      :     0.930864
      py      :     0.973011
      dz2     :     0.003428  d :     0.037904
      dxz     :     0.005222
      dyz     :     0.006116
      dx2y2   :     0.010989
      dxy     :     0.012150

  9 C s       :     3.038962  s :     3.038962
      pz      :     0.957428  p :     2.903597
      px      :     0.867620
      py      :     1.078549
      dz2     :     0.004609  d :     0.060033
      dxz     :     0.012049
      dyz     :     0.010135
      dx2y2   :     0.017985
      dxy     :     0.015255

 10 N s       :     3.378780  s :     3.378780
      pz      :     1.585330  p :     3.798511
      px      :     1.077846
      py      :     1.135334
      dz2     :     0.002667  d :     0.023251
      dxz     :     0.004881
      dyz     :     0.001494
      dx2y2   :     0.008185
      dxy     :     0.006024

 11 C s       :     2.977618  s :     2.977618
      pz      :     0.911127  p :     2.711936
      px      :     0.855810
      py      :     0.944998
      dz2     :     0.008158  d :     0.132644
      dxz     :     0.025811
      dyz     :     0.016958
      dx2y2   :     0.041309
      dxy     :     0.040407

 12 O s       :     3.745067  s :     3.745067
      pz      :     1.452271  p :     4.442702
      px      :     1.358391
      py      :     1.632039
      dz2     :     0.002028  d :     0.017527
      dxz     :     0.004559
      dyz     :     0.001071
      dx2y2   :     0.004582
      dxy     :     0.005288

 13 C s       :     2.998620  s :     2.998620
      pz      :     1.106877  p :     3.175274
      px      :     1.052270
      py      :     1.016127
      dz2     :     0.005700  d :     0.027927
      dxz     :     0.008329
      dyz     :     0.001984
      dx2y2   :     0.005364
      dxy     :     0.006550

 14 Brs       :     7.967155  s :     7.967155
      pz      :     5.927539  p :    16.976115
      px      :     5.236383
      py      :     5.812193
      dz2     :     2.006215  d :    10.047637
      dxz     :     2.011866
      dyz     :     2.003122
      dx2y2   :     2.011737
      dxy     :     2.014697

 15 H s       :     0.872478  s :     0.872478

 16 H s       :     0.903359  s :     0.903359

 17 H s       :     0.898641  s :     0.898641

 18 H s       :     0.909120  s :     0.909120

 19 H s       :     0.908200  s :     0.908200

 20 H s       :     0.854201  s :     0.854201

 21 H s       :     0.896542  s :     0.896542

 22 H s       :     0.900793  s :     0.900793

 23 H s       :     0.752015  s :     0.752015

 24 H s       :     0.896110  s :     0.896110

 25 H s       :     0.853084  s :     0.853084

 26 H s       :     0.854020  s :     0.854020


------------------------
MULLIKEN OVERLAP CHARGES
------------------------
B(  0-C ,  1-C ) :   0.8938 B(  0-C ,  2-C ) :  -0.1118 B(  0-C , 15-H ) :   0.7458 
B(  0-C , 16-H ) :   0.7164 B(  0-C , 17-H ) :   0.7441 B(  0-C , 18-H ) :  -0.0505 
B(  0-C , 19-H ) :  -0.0583 B(  1-C ,  2-C ) :   0.8151 B(  1-C ,  4-C ) :  -0.1208 
B(  1-C ,  5-N ) :  -0.0648 B(  1-C , 18-H ) :   0.6984 B(  1-C , 19-H ) :   0.7017 
B(  2-C ,  3-H ) :   0.6611 B(  2-C ,  4-C ) :   0.8385 B(  2-C ,  5-N ) :   0.5023 
B(  3-H ,  4-C ) :  -0.0562 B(  3-H ,  5-N ) :  -0.0680 B(  3-H ,  7-O ) :   0.0827 
B(  4-C ,  5-N ) :  -0.0910 B(  4-C , 20-H ) :   0.7041 B(  4-C , 21-H ) :   0.7241 
B(  4-C , 22-H ) :   0.7234 B(  5-N ,  6-C ) :   0.4929 B(  5-N ,  7-O ) :  -0.2192 
B(  5-N ,  8-C ) :  -0.2612 B(  5-N , 10-N ) :  -0.2488 B(  5-N , 11-C ) :   0.5120 
B(  5-N , 12-O ) :  -0.1907 B(  6-C ,  7-O ) :   1.5595 B(  6-C ,  8-C ) :   0.2574 
B(  6-C ,  9-C ) :  -0.0951 B(  6-C , 14-Br) :  -0.0683 B(  7-O ,  8-C ) :  -0.2447 
B(  8-C ,  9-C ) :   0.7835 B(  8-C , 10-N ) :  -0.1024 B(  8-C , 11-C ) :  -0.0793 
B(  8-C , 13-C ) :  -0.1565 B(  8-C , 14-Br) :   0.4970 B(  9-C , 10-N ) :   0.8164 
B(  9-C , 13-C ) :   0.9020 B(  9-C , 14-Br) :  -0.1611 B( 10-N , 11-C ) :   0.5967 
B( 10-N , 12-O ) :  -0.2042 B( 10-N , 13-C ) :  -0.1255 B( 10-N , 23-H ) :   0.5594 
B( 11-C , 12-O ) :   1.4090 B( 12-O , 20-H ) :   0.0587 B( 13-C , 24-H ) :   0.6862 
B( 13-C , 25-H ) :   0.7102 B( 13-C , 26-H ) :   0.7029 


                     *******************************
                     * LOEWDIN POPULATION ANALYSIS *
                     *******************************

----------------------
LOEWDIN ATOMIC CHARGES
----------------------
   0 C :   -0.350106
   1 C :   -0.226165
   2 C :   -0.077535
   3 H :    0.137048
   4 C :   -0.344204
   5 N :   -0.003898
   6 C :    0.021143
   7 O :   -0.169749
   8 C :   -0.219278
   9 C :   -0.007483
  10 N :   -0.086221
  11 C :    0.042038
  12 O :   -0.189312
  13 C :   -0.330400
  14 Br:    0.137072
  15 H :    0.123318
  16 H :    0.117707
  17 H :    0.118550
  18 H :    0.122475
  19 H :    0.120498
  20 H :    0.131689
  21 H :    0.125935
  22 H :    0.121645
  23 H :    0.253816
  24 H :    0.129500
  25 H :    0.152523
  26 H :    0.149394

-------------------------------
LOEWDIN REDUCED ORBITAL CHARGES
-------------------------------
  0 C s       :     2.942915  s :     2.942915
      pz      :     1.106438  p :     3.336499
      px      :     1.106570
      py      :     1.123492
      dz2     :     0.013615  d :     0.070692
      dxz     :     0.016995
      dyz     :     0.010767
      dx2y2   :     0.016440
      dxy     :     0.012874

  1 C s       :     2.910370  s :     2.910370
      pz      :     1.054454  p :     3.227791
      px      :     1.087279
      py      :     1.086057
      dz2     :     0.015760  d :     0.088004
      dxz     :     0.026175
      dyz     :     0.013720
      dx2y2   :     0.014559
      dxy     :     0.017790

  2 C s       :     2.875185  s :     2.875185
      pz      :     1.083734  p :     3.076296
      px      :     0.976752
      py      :     1.015810
      dz2     :     0.023142  d :     0.126054
      dxz     :     0.028881
      dyz     :     0.023132
      dx2y2   :     0.012068
      dxy     :     0.038831

  3 H s       :     0.862952  s :     0.862952

  4 C s       :     2.944857  s :     2.944857
      pz      :     1.091421  p :     3.329178
      px      :     1.102644
      py      :     1.135112
      dz2     :     0.015622  d :     0.070168
      dxz     :     0.016400
      dyz     :     0.009724
      dx2y2   :     0.005150
      dxy     :     0.023273

  5 N s       :     3.090328  s :     3.090328
      pz      :     1.474900  p :     3.849289
      px      :     1.189943
      py      :     1.184446
      dz2     :     0.006109  d :     0.064281
      dxz     :     0.006893
      dyz     :     0.008255
      dx2y2   :     0.023616
      dxy     :     0.019407

  6 C s       :     2.827404  s :     2.827404
      pz      :     0.892394  p :     2.885842
      px      :     0.974336
      py      :     1.019112
      dz2     :     0.016593  d :     0.265611
      dxz     :     0.022371
      dyz     :     0.046064
      dx2y2   :     0.064926
      dxy     :     0.115657

  7 O s       :     3.548158  s :     3.548158
      pz      :     1.407773  p :     4.590659
      px      :     1.742641
      py      :     1.440245
      dz2     :     0.004265  d :     0.030932
      dxz     :     0.000345
      dyz     :     0.007460
      dx2y2   :     0.012357
      dxy     :     0.006503

  8 C s       :     2.913815  s :     2.913815
      pz      :     1.153790  p :     3.204468
      px      :     0.977466
      py      :     1.073213
      dz2     :     0.008811  d :     0.100996
      dxz     :     0.010098
      dyz     :     0.013269
      dx2y2   :     0.032680
      dxy     :     0.036138

  9 C s       :     2.842440  s :     2.842440
      pz      :     0.948840  p :     3.015874
      px      :     0.976091
      py      :     1.090944
      dz2     :     0.011181  d :     0.149169
      dxz     :     0.024400
      dyz     :     0.022099
      dx2y2   :     0.048137
      dxy     :     0.043351

 10 N s       :     3.096728  s :     3.096728
      pz      :     1.546361  p :     3.929784
      px      :     1.175665
      py      :     1.207758
      dz2     :     0.005432  d :     0.059709
      dxz     :     0.009938
      dyz     :     0.002770
      dx2y2   :     0.023110
      dxy     :     0.018459

 11 C s       :     2.798264  s :     2.798264
      pz      :     0.911522  p :     2.852094
      px      :     0.979738
      py      :     0.960834
      dz2     :     0.018855  d :     0.307604
      dxz     :     0.051406
      dyz     :     0.035339
      dx2y2   :     0.100165
      dxy     :     0.101839

 12 O s       :     3.543963  s :     3.543963
      pz      :     1.457738  p :     4.614239
      px      :     1.484372
      py      :     1.672129
      dz2     :     0.004370  d :     0.031109
      dxz     :     0.006253
      dyz     :     0.001448
      dx2y2   :     0.008607
      dxy     :     0.010431

 13 C s       :     2.934381  s :     2.934381
      pz      :     1.143701  p :     3.326020
      px      :     1.097755
      py      :     1.084564
      dz2     :     0.014182  d :     0.069999
      dxz     :     0.020466
      dyz     :     0.003794
      dx2y2   :     0.013536
      dxy     :     0.018022

 14 Brs       :     7.804587  s :     7.804587
      pz      :     5.913352  p :    16.989752
      px      :     5.278370
      py      :     5.798030
      dz2     :     2.008972  d :    10.068589
      dxz     :     2.015951
      dyz     :     2.003948
      dx2y2   :     2.018021
      dxy     :     2.021698

 15 H s       :     0.876682  s :     0.876682

 16 H s       :     0.882293  s :     0.882293

 17 H s       :     0.881450  s :     0.881450

 18 H s       :     0.877525  s :     0.877525

 19 H s       :     0.879502  s :     0.879502

 20 H s       :     0.868311  s :     0.868311

 21 H s       :     0.874065  s :     0.874065

 22 H s       :     0.878355  s :     0.878355

 23 H s       :     0.746184  s :     0.746184

 24 H s       :     0.870500  s :     0.870500

 25 H s       :     0.847477  s :     0.847477

 26 H s       :     0.850606  s :     0.850606


---------------------------------
LOEWDIN BOND ORDERS (THRESH 0.050000)
---------------------------------
B(  0-C ,  1-C ) :   1.1325 B(  0-C , 15-H ) :   0.9309 B(  0-C , 16-H ) :   0.9355 
B(  0-C , 17-H ) :   0.9374 B(  1-C ,  2-C ) :   1.0626 B(  1-C , 18-H ) :   0.8992 
B(  1-C , 19-H ) :   0.9031 B(  2-C ,  3-H ) :   0.8490 B(  2-C ,  4-C ) :   1.1046 
B(  2-C ,  5-N ) :   0.9756 B(  2-C ,  6-C ) :   0.0687 B(  2-C , 11-C ) :   0.0630 
B(  4-C , 20-H ) :   0.9219 B(  4-C , 21-H ) :   0.9264 B(  4-C , 22-H ) :   0.9338 
B(  5-N ,  6-C ) :   1.1682 B(  5-N ,  7-O ) :   0.1706 B(  5-N ,  8-C ) :   0.0655 
B(  5-N , 10-N ) :   0.0637 B(  5-N , 11-C ) :   1.2427 B(  5-N , 12-O ) :   0.1660 
B(  6-C ,  7-O ) :   2.1000 B(  6-C ,  8-C ) :   1.1540 B(  6-C ,  9-C ) :   0.0988 
B(  6-C , 11-C ) :   0.0703 B(  6-C , 14-Br) :   0.0835 B(  7-O ,  8-C ) :   0.1208 
B(  7-O ,  9-C ) :   0.0600 B(  8-C ,  9-C ) :   1.5919 B(  8-C , 10-N ) :   0.1271 
B(  8-C , 13-C ) :   0.0813 B(  8-C , 14-Br) :   1.1936 B(  9-C , 10-N ) :   1.2847 
B(  9-C , 11-C ) :   0.0732 B(  9-C , 13-C ) :   1.1145 B(  9-C , 14-Br) :   0.1260 
B( 10-N , 11-C ) :   1.2238 B( 10-N , 12-O ) :   0.1601 B( 10-N , 13-C ) :   0.0616 
B( 10-N , 23-H ) :   0.8294 B( 11-C , 12-O ) :   2.0861 B( 13-C , 24-H ) :   0.9226 
B( 13-C , 25-H ) :   0.9101 B( 13-C , 26-H ) :   0.9114 

------------------------------------------
LOEWDIN REDUCED ORBITAL POPULATIONS PER MO
-------------------------------------------
THRESHOLD FOR PRINTING IS 0.1%%
                      0         1         2         3         4         5   
                 -480.94212 -61.78387 -55.71455 -55.71147 -55.71122 -18.73509
                   2.00000   2.00000   2.00000   2.00000   2.00000   2.00000
                  --------  --------  --------  --------  --------  --------
12 O  s               0.0       0.0       0.0       0.0       0.0      99.9
14 Br s             100.0     100.0       0.0       0.0       0.0       0.0
14 Br pz              0.0       0.0       0.2      96.3       3.5       0.0
14 Br px              0.0       0.0      83.3       0.2      16.6       0.0
14 Br py              0.0       0.0      16.6       3.5      79.9       0.0

                      6         7         8         9        10        11   
                 -18.73144 -14.06738 -14.05572 -10.03498 -10.00318  -9.98283
                   2.00000   2.00000   2.00000   2.00000   2.00000   2.00000
                  --------  --------  --------  --------  --------  --------
 5 N  s               0.0       0.0      99.7       0.0       0.0       0.0
 5 N  px              0.0       0.0       0.0       0.0       0.1       0.0
 5 N  py              0.0       0.0       0.0       0.2       0.0       0.0
 6 C  s               0.0       0.0       0.0       0.0      99.4       0.0
 7 O  s              99.9       0.0       0.0       0.0       0.0       0.0
 7 O  py              0.0       0.0       0.0       0.0       0.3       0.0
 8 C  py              0.0       0.0       0.0       0.0       0.0       0.2
 9 C  s               0.0       0.0       0.0       0.0       0.0      99.5
10 N  s               0.0      99.8       0.0       0.0       0.0       0.0
10 N  px              0.0       0.0       0.0       0.1       0.0       0.2
11 C  s               0.0       0.0       0.0      99.3       0.0       0.0
12 O  px              0.0       0.0       0.0       0.2       0.0       0.0

                     12        13        14        15        16        17   
                  -9.94964  -9.93182  -9.92409  -9.88593  -9.87387  -9.86543
                   2.00000   2.00000   2.00000   2.00000   2.00000   2.00000
                  --------  --------  --------  --------  --------  --------
 0 C  s               0.0       0.0       0.0       0.0       0.0      99.7
 1 C  s               0.0       0.0       0.0      99.6       0.0       0.0
 2 C  s               0.0      99.6       0.0       0.0       0.0       0.0
 4 C  s               0.0       0.0       0.0       0.0      99.7       0.0
 8 C  s              99.6       0.0       0.0       0.0       0.0       0.0
 9 C  py              0.2       0.0       0.1       0.0       0.0       0.0
13 C  s               0.0       0.0      99.7       0.0       0.0       0.0

                     18        19        20        21        22        23   
                  -8.40907  -6.29140  -6.27677  -6.27601  -2.49248  -2.48891
                   2.00000   2.00000   2.00000   2.00000   2.00000   2.00000
                  --------  --------  --------  --------  --------  --------
 8 C  px              0.1       0.0       0.0       0.0       0.0       0.0
14 Br s              99.8       0.0       0.0       0.0       0.0       0.0
14 Br pz              0.0       0.2      95.1       4.7       0.0       0.0
14 Br px              0.0      83.6       0.2      16.2       0.0       0.0
14 Br py              0.0      16.2       4.7      79.1       0.0       0.0
14 Br dz2             0.0       0.0       0.0       0.0      26.4       0.6
14 Br dxz             0.0       0.0       0.0       0.0       0.5      80.6
14 Br dyz             0.0       0.0       0.0       0.0       0.2      14.9
14 Br dx2y2           0.0       0.0       0.0       0.0      32.8       1.2
14 Br dxy             0.0       0.0       0.0       0.0      40.1       2.7

                     24        25        26        27        28        29   
                  -2.48841  -2.47740  -2.47738  -0.98818  -0.94814  -0.89863
                   2.00000   2.00000   2.00000   2.00000   2.00000   2.00000
                  --------  --------  --------  --------  --------  --------
 2 C  s               0.0       0.0       0.0       1.1       0.5       0.0
 2 C  px              0.0       0.0       0.0       0.7       0.7       0.0
 2 C  py              0.0       0.0       0.0       0.7       0.0       0.0
 3 H  s               0.0       0.0       0.0       0.2       0.5       0.0
 4 C  px              0.0       0.0       0.0       0.1       0.0       0.0
 5 N  s               0.0       0.0       0.0      11.0       3.0       0.1
 5 N  px              0.0       0.0       0.0       0.0       1.5       0.4
 5 N  py              0.0       0.0       0.0       1.1       1.9       0.1
 6 C  s               0.0       0.0       0.0       4.9      18.5       0.0
 6 C  pz              0.0       0.0       0.0       0.0       0.2       0.1
 6 C  px              0.0       0.0       0.0       0.6       0.0       0.0
 6 C  py              0.0       0.0       0.0       0.1       7.5       2.4
 6 C  dz2             0.0       0.0       0.0       0.1       0.5       0.0
 6 C  dx2y2           0.0       0.0       0.0       0.0       0.6       0.1
 7 O  s               0.0       0.0       0.0       3.1      35.8       2.1
 7 O  pz              0.0       0.0       0.0       0.0       0.1       0.0
 7 O  px              0.0       0.0       0.0       0.0       0.1       0.0
 7 O  py              0.0       0.0       0.0       0.6       5.3       0.2
 7 O  dx2y2           0.0       0.0       0.0       0.0       0.1       0.0
 8 C  s               0.0       0.0       0.0       1.3       1.4       2.0
 8 C  px              0.0       0.0       0.0       0.7       0.7       0.2
 8 C  py              0.0       0.0       0.0       0.0       1.5       2.0
 9 C  s               0.0       0.0       0.0       2.4       0.0      11.3
 9 C  px              0.0       0.0       0.0       1.8       0.1       3.8
 9 C  py              0.0       0.0       0.0       0.0       0.3       0.2
 9 C  dz2             0.0       0.0       0.0       0.1       0.0       0.2
 9 C  dx2y2           0.0       0.0       0.0       0.0       0.0       0.1
10 N  s               0.0       0.0       0.0      11.9       1.2      24.9
10 N  px              0.0       0.0       0.0       0.9       0.3       2.3
10 N  py              0.0       0.0       0.0       0.8       0.0       0.2
11 C  s               0.0       0.0       0.0      23.7       2.4       0.3
11 C  pz              0.0       0.0       0.0       0.0       0.1       0.0
11 C  px              0.0       0.0       0.0       0.7       1.6      18.6
11 C  py              0.0       0.0       0.0       0.3       2.6       0.1
11 C  dz2             0.0       0.0       0.0       0.6       0.1       0.0
11 C  dx2y2           0.0       0.0       0.0       0.1       0.2       0.1
11 C  dxy             0.0       0.0       0.0       0.1       0.0       0.8
12 O  s               0.0       0.0       0.0      21.6       8.2      17.9
12 O  px              0.0       0.0       0.0       3.6       1.0       1.1
12 O  py              0.0       0.0       0.0       0.7       0.2       0.5
13 C  s               0.0       0.0       0.0       0.1       0.0       1.3
13 C  px              0.0       0.0       0.0       0.2       0.0       0.9
13 C  py              0.0       0.0       0.0       0.1       0.0       0.3
14 Br s               0.0       0.0       0.0       0.1       0.2       0.1
14 Br px              0.0       0.0       0.0       0.0       0.1       0.0
14 Br dz2             0.0       0.5      72.4       0.0       0.0       0.0
14 Br dxz             2.5      15.8       0.6       0.0       0.0       0.0
14 Br dyz             1.4      83.1       0.4       0.0       0.0       0.0
14 Br dx2y2          53.7       0.0      12.3       0.0       0.0       0.0
14 Br dxy            42.4       0.5      14.3       0.0       0.0       0.0
20 H  s               0.0       0.0       0.0       0.1       0.0       0.1
23 H  s               0.0       0.0       0.0       2.0       0.3       3.6
24 H  s               0.0       0.0       0.0       0.0       0.0       0.3
25 H  s               0.0       0.0       0.0       0.0       0.0       0.2
26 H  s               0.0       0.0       0.0       0.0       0.0       0.2

                     30        31        32        33        34        35   
                  -0.85922  -0.76851  -0.72815  -0.70787  -0.66754  -0.64789
                   2.00000   2.00000   2.00000   2.00000   2.00000   2.00000
                  --------  --------  --------  --------  --------  --------
 0 C  s               0.1       0.0       4.1       2.1       7.7      13.6
 0 C  pz              0.0       0.0       0.4       0.1       0.1       0.0
 0 C  px              0.0       0.0       0.5       0.2       0.2       0.2
 0 C  py              0.0       0.0       0.4       0.2       0.3       0.3
 1 C  s               0.7       0.0      11.5       4.4       6.5       6.6
 1 C  pz              0.4       0.0       0.9       0.1       0.5       2.9
 1 C  px              0.2       0.0       0.0       0.0       0.7       1.1
 1 C  py              0.2       0.0       0.5       0.1       0.1       0.2
 2 C  s               6.0       0.1      15.3       3.1       0.1       3.9
 2 C  pz              0.1       0.0       0.2       0.1       1.0       5.8
 2 C  px              1.5       0.0       1.1       0.9       1.0       0.4
 2 C  py              1.6       0.0       0.1       0.1       0.8       0.3
 2 C  dxy             0.2       0.0       0.0       0.0       0.0       0.0
 3 H  s               0.6       0.0       3.0       0.5       0.0       1.1
 4 C  s               0.6       0.0       7.0       1.9       0.1      14.5
 4 C  pz              0.2       0.0       0.9       0.2       0.0       0.0
 4 C  px              0.4       0.0       0.7       0.1       0.1       0.3
 4 C  py              0.0       0.0       0.3       0.1       0.0       0.1
 5 N  s              30.0       0.0       0.3       0.6       1.5       0.4
 5 N  pz              0.0       0.0       0.2       0.0       0.1       0.6
 5 N  px              0.1       0.2       5.0       0.8       2.4       0.3
 5 N  py              0.0       0.0       3.9       0.0       0.0       2.1
 6 C  s               0.1       1.1       1.1       0.3       2.2       0.1
 6 C  pz              0.1       0.1       0.0       0.0       0.1       0.0
 6 C  px              6.7       2.6       0.1       0.7       1.6       0.3
 6 C  py              8.2       3.7       1.8       0.2       3.4       0.3
 6 C  dx2y2           0.7       0.1       0.0       0.0       0.0       0.0
 6 C  dxy             0.1       0.1       0.0       0.0       0.1       0.1
 7 O  s              10.2       1.3       0.2       0.0       0.4       0.1
 7 O  py              0.7       0.1       0.1       0.0       0.1       0.0
 8 C  s               0.1      20.8       0.5       0.1       6.1       1.7
 8 C  px              0.2       2.5       0.2       3.9       7.2       0.8
 8 C  py              0.0       0.1       1.4       3.8       0.7       0.3
 8 C  dz2             0.0       0.2       0.0       0.0       0.0       0.0
 8 C  dx2y2           0.0       0.0       0.0       0.1       0.1       0.0
 9 C  s               1.6       7.2       3.1       5.4       1.0       0.6
 9 C  pz              0.0       0.1       0.1       0.0       0.2       0.1
 9 C  px              0.3       4.2       0.9       2.6       1.5       1.4
 9 C  py              0.4       3.7       2.8       1.2       8.5       2.0
 9 C  dx2y2           0.0       0.2       0.0       0.0       0.1       0.0
 9 C  dxy             0.0       0.0       0.0       0.1       0.0       0.1
10 N  s               4.9       4.6       0.0       2.5       0.5       0.0
10 N  px              0.1       2.1       3.0       3.9       0.7       1.5
10 N  py              0.4       0.4       1.2       0.1       2.3       0.0
11 C  s               0.3       0.4       1.4       0.2       0.3       1.1
11 C  pz              0.5       0.0       0.0       0.0       0.0       0.0
11 C  px              0.5       2.3       1.8       1.6       0.1       0.6
11 C  py             13.5       0.3       0.2       1.1       0.2       0.5
11 C  dx2y2           0.6       0.0       0.0       0.0       0.1       0.1
11 C  dxy             0.0       0.2       0.0       0.2       0.1       0.0
12 O  s               3.2       1.3       0.3       0.8       0.6       0.4
12 O  px              0.3       0.1       0.1       0.1       0.1       0.1
13 C  s               0.3       3.9       6.9      13.3       6.7       4.8
13 C  px              0.2       0.1       0.4       0.3       0.1       0.2
13 C  py              0.1       0.9       0.1       0.1       0.2       0.1
14 Br s               0.1      28.3       1.0      28.1      15.7       1.6
14 Br px              0.0       1.5       0.0       0.1       0.4       0.1
14 Br py              0.0       0.5       0.0       0.0       0.0       0.0
14 Br dx2y2           0.0       0.1       0.0       0.0       0.0       0.0
14 Br dxy             0.0       0.2       0.0       0.0       0.0       0.0
15 H  s               0.0       0.0       0.8       0.3       1.6       2.8
16 H  s               0.0       0.0       0.7       0.4       1.7       3.3
17 H  s               0.0       0.0       0.8       0.4       1.6       2.6
18 H  s               0.1       0.0       2.1       0.9       1.5       1.4
19 H  s               0.1       0.0       2.0       0.8       1.3       1.7
20 H  s               0.1       0.0       1.4       0.3       0.0       2.8
21 H  s               0.1       0.0       1.3       0.4       0.0       3.2
22 H  s               0.1       0.0       1.2       0.3       0.1       3.6
23 H  s               1.3       1.4       0.2       0.9       1.3       0.0
24 H  s               0.1       0.5       1.6       2.9       2.1       1.4
25 H  s               0.0       0.8       1.3       2.6       1.7       1.4
26 H  s               0.0       1.0       1.2       2.4       1.8       1.4

                     36        37        38        39        40        41   
                  -0.61630  -0.59538  -0.57324  -0.53227  -0.52774  -0.48916
                   2.00000   2.00000   2.00000   2.00000   2.00000   2.00000
                  --------  --------  --------  --------  --------  --------
 0 C  s               0.4       0.1      10.7       5.1       1.1       1.2
 0 C  pz              0.0       0.0       0.3       0.7       0.1       0.2
 0 C  px              0.0       0.0       1.0       1.3       0.2       0.8
 0 C  py              0.0       0.0       0.7       1.0       0.5       1.5
 1 C  s               0.1       0.0       4.1       4.4       1.7       2.6
 1 C  pz              0.0       0.0       2.5       0.2       0.0       1.1
 1 C  px              0.6       0.1       3.8       0.5       0.0       0.0
 1 C  py              0.1       0.0       1.5       1.3       1.6       1.8
 2 C  s               0.4       0.0       4.0       0.2       0.5       4.7
 2 C  pz              1.2       1.0       2.7       1.9       0.0       0.7
 2 C  px              5.6       1.0       0.4       3.1       0.9       0.8
 2 C  py              0.6       0.5       3.2       0.1       3.4       0.0
 3 H  s               0.4       0.0       1.9       0.6       0.1       2.1
 4 C  s               8.7       4.3       5.3       0.0       1.0       1.9
 4 C  pz              0.0       0.1       0.5       0.1       0.3       1.2
 4 C  px              0.1       0.2       0.6       0.2       0.8       2.8
 4 C  py              0.0       0.1       0.6       0.0       0.1       0.3
 5 N  s               0.7       0.4       0.6       0.0       0.3       0.8
 5 N  pz              0.3       0.1       0.1       1.1       0.1       0.7
 5 N  px              1.8      10.5       1.7       0.0      13.2       3.3
 5 N  py             21.1       1.9       0.2       7.3       0.3       0.9
 5 N  dx2y2           0.2       0.1       0.0       0.0       0.0       0.0
 5 N  dxy             0.0       0.0       0.1       0.0       0.0       0.2
 6 C  s               1.8       5.5       0.6       1.3       0.1       0.1
 6 C  pz              0.0       0.1       0.0       0.3       0.0       0.1
 6 C  px              4.0       0.1       0.5       8.1       8.3       5.7
 6 C  py              1.1       4.6       0.2       1.4       0.0       0.3
 6 C  dx2y2           0.5       0.2       0.0       0.0       0.0       0.0
 6 C  dxy             0.0       0.0       0.1       0.0       0.2       0.2
 7 O  s               2.5       2.5       0.1       0.2       0.0       0.5
 7 O  px              0.6       0.0       0.0       1.9       1.2       0.7
 7 O  py              0.3       0.9       0.1       0.4       0.0       0.3
 8 C  s               0.0       0.6       1.1       0.0       6.5       0.0
 8 C  pz              0.0       0.1       0.1       0.2       0.0       0.3
 8 C  px              0.1       1.5       0.1       2.3       0.3       2.8
 8 C  py              0.5       4.3       1.3      11.8       0.4       6.8
 8 C  dx2y2           0.1       0.1       0.1       0.1       0.1       0.0
 8 C  dxy             0.0       0.3       0.0       0.1       0.1       0.0
 9 C  s               0.0       4.5       0.0       1.1       0.2       1.1
 9 C  pz              0.0       0.0       0.1       0.1       0.0       0.0
 9 C  px              1.0       3.5       2.0       2.5       3.5       7.6
 9 C  py              0.9       0.0       3.9       5.0       1.3       0.6
 9 C  dx2y2           0.0       0.1       0.0       0.0       0.3       0.2
 9 C  dxy             0.1       0.2       0.1       0.0       0.0       0.1
10 N  s               0.7       0.0       0.1       0.0       0.2       0.1
10 N  pz              0.3       0.0       0.1       0.1       0.4       0.5
10 N  px              2.7      15.8       7.8       5.0       3.0       1.0
10 N  py              9.6       1.6       3.2       3.4      16.9      10.8
10 N  dx2y2           0.0       0.0       0.0       0.0       0.2       0.1
10 N  dxy             0.1       0.1       0.0       0.0       0.0       0.0
11 C  s               5.9       0.0       1.1       0.0       0.0       0.0
11 C  pz              0.3       0.2       0.1       0.1       0.1       0.0
11 C  px              3.2       1.8       1.8       1.4       0.7       0.2
11 C  py              3.3       6.9       1.7       5.7       0.5       0.6
11 C  dx2y2           0.0       0.0       0.0       0.1       0.5       0.3
11 C  dxy             0.1       0.0       0.2       0.1       0.2       0.1
12 O  s               2.3       0.0       0.6       0.0       1.5       0.1
12 O  px              0.3       0.3       0.9       0.2       0.2       0.0
12 O  py              0.6       1.1       0.2       0.9       0.3       0.0
13 C  s               1.3       6.0       0.3       0.1       0.1       1.1
13 C  pz              0.0       0.0       0.0       0.1       0.0       0.2
13 C  px              0.4       1.9       0.8       0.3       0.0       1.2
13 C  py              0.0       0.9       0.2       2.5       0.2       6.1
13 C  dxy             0.0       0.1       0.0       0.0       0.0       0.1
14 Br s               0.7       0.9       1.4       0.0       6.3       0.1
14 Br px              0.0       0.2       0.3       0.2       4.0       0.0
14 Br py              0.0       0.0       0.2       0.4       0.5       0.7
14 Br dx2y2           0.0       0.0       0.0       0.1       0.1       0.0
14 Br dxy             0.0       0.0       0.0       0.0       0.1       0.1
15 H  s               0.1       0.0       3.6       1.9       0.6       1.0
16 H  s               0.1       0.0       3.6       2.2       0.4       0.5
17 H  s               0.2       0.0       3.9       2.1       0.4       0.7
18 H  s               0.0       0.0       1.5       2.2       1.4       2.1
19 H  s               0.1       0.0       1.7       1.7       0.8       2.0
20 H  s               2.2       0.8       2.6       0.0       0.3       1.2
21 H  s               2.4       1.6       1.6       0.0       1.0       1.7
22 H  s               2.2       1.2       2.0       0.0       0.3       1.0
23 H  s               3.4       1.4       0.7       1.0       8.8       5.0
24 H  s               0.1       2.3       0.0       1.3       0.1       2.5
25 H  s               0.5       2.4       0.2       0.0       0.1       0.8
26 H  s               0.5       2.5       0.3       0.0       0.0       0.5

                     42        43        44        45        46        47   
                  -0.45405  -0.43360  -0.41807  -0.41300  -0.40495  -0.39140
                   2.00000   2.00000   2.00000   2.00000   2.00000   2.00000
                  --------  --------  --------  --------  --------  --------
 0 C  s               0.0       0.3       0.0       0.0       0.1       0.0
 0 C  pz              0.0       0.2       3.4       0.0       6.4       1.3
 0 C  px              0.1       3.7       0.0       0.1       0.0       0.0
 0 C  py              1.2       0.3       3.2       0.1       0.0       0.0
 1 C  s               0.3       0.8       0.2       0.0       0.1       0.0
 1 C  pz              0.1       8.5       5.7       0.0       2.4       0.3
 1 C  px              1.0       2.6       0.0       0.4       2.3       0.2
 1 C  py              2.1       0.5       4.7       0.5       1.4       0.5
 2 C  s               0.0       1.8       0.2       0.0       0.0       0.0
 2 C  pz              2.3       3.1       4.8       0.3       1.9       0.9
 2 C  px              0.0       3.2       3.7       0.0       3.1       0.1
 2 C  py              0.4      12.3       0.1       0.1       4.0       0.5
 2 C  dxy             0.0       0.2       0.0       0.0       0.0       0.0
 3 H  s               0.5       6.7       0.7       0.3       3.6       0.5
 4 C  s               0.2       0.8       0.0       0.1       0.1       0.0
 4 C  pz              0.0       1.5       5.3       0.1       8.1       0.8
 4 C  px              1.0       0.4       2.1       0.1       0.1       0.7
 4 C  py              0.0       9.7       0.0       0.0       1.8       0.4
 5 N  s               0.0       0.1       0.0       0.0       0.0       0.0
 5 N  pz             14.2       0.1       4.1       0.7       2.5       0.0
 5 N  px              0.2       4.3       0.5       0.0       0.0       0.0
 5 N  py              1.4       5.2       0.0       0.9       0.1       0.3
 6 C  s               0.0       0.0       0.0       0.9       0.6       0.3
 6 C  pz              7.5       0.0       0.5       0.2       0.9       0.0
 6 C  px              0.0       0.1       0.4       0.4       0.0       0.8
 6 C  py              0.2       0.4       0.0       0.6       0.3       0.1
 6 C  dx2y2           0.0       0.0       0.0       0.1       0.0       0.0
 7 O  s               0.0       0.2       0.2       3.3       0.9       1.0
 7 O  pz              1.9       0.1       0.2       0.6       0.1       0.0
 7 O  px              0.0       0.1       0.0       0.1       0.1       0.1
 7 O  py              0.0       0.5       0.2       6.4       3.6       2.6
 8 C  s               0.0       0.1       0.0       0.3       0.5       0.7
 8 C  pz              4.8       0.2       0.8       0.3       0.0       0.2
 8 C  px              0.0       0.0       0.1       1.0       0.0       0.1
 8 C  py              0.1       0.0       1.1       4.4       0.2       1.7
 8 C  dxy             0.0       0.0       0.0       0.1       0.0       0.0
[...]
14 Br dx2y2           0.0       0.0       1.1       0.2       1.7       9.7
14 Br dxy             0.0       0.0       0.2       0.7       0.5      14.5
23 H  s               0.0       0.0       0.2       0.2       0.0       0.0

                    234       235       236       237       238       239   
                   3.40003   3.46554   3.52572   3.55692   3.61924   3.73513
                   0.00000   0.00000   0.00000   0.00000   0.00000   0.00000
                  --------  --------  --------  --------  --------  --------
 2 C  dx2y2           0.0       0.4       0.6       0.0       0.1       0.0
 2 C  dxy             0.0       0.0       0.0       0.0       0.3       0.0
 5 N  px              0.0       0.1       0.1       0.3       0.1       0.1
 5 N  py              0.0       0.6       0.3       0.1       0.0       0.0
 5 N  dxz             0.0       0.0       0.0       0.0       0.3       0.0
 5 N  dyz             0.0       0.3       0.3       0.0       0.0       0.0
 5 N  dx2y2           0.0       6.2       7.3       0.5       0.0       0.0
 5 N  dxy             0.0       0.3       0.2       0.1       7.3       0.0
 6 C  s               0.0       1.0       2.7       0.8       1.2       0.1
 6 C  px              0.0       0.2       0.0       0.0       0.1       0.1
 6 C  py              0.0       1.2       2.2       1.1       2.1       0.1
 6 C  dz2             0.0       0.1       0.3       0.1       0.1       0.0
 6 C  dxz             0.0       0.1       0.1       0.0       0.0       0.0
 6 C  dyz             0.1       0.1       0.0       0.1       0.2       0.0
 6 C  dx2y2           0.0       0.9       0.8       1.6       6.1       0.0
 6 C  dxy             0.0       3.3       5.8       1.3       0.3       0.1
 7 O  s               0.0       0.5       2.1       1.6       1.6       0.1
 7 O  px              0.0       0.2       0.1       0.2       0.0       0.0
 7 O  py              0.0       0.4       1.5       0.6       1.3       0.0
 7 O  dz2             0.0       1.8       4.4       2.4       2.9       0.0
 7 O  dxz             0.0       0.2       0.0       0.1       0.0       0.0
 7 O  dyz             0.2       0.4       1.8       0.5       0.9       0.0
 7 O  dx2y2           0.0       4.1      21.1       4.2      12.8       0.0
 7 O  dxy             0.0       8.0       1.4       4.4       0.8       0.0
 8 C  s               0.0       0.0       0.0       0.0       0.1       0.4
 8 C  pz              0.4       0.0       0.0       0.0       0.0       0.0
 8 C  px              0.0       0.2       0.0       0.2       0.0       2.1
 8 C  py              0.0       0.5       0.2       1.4       0.1       0.2
 8 C  dz2             0.0       0.0       0.0       0.0       0.0       0.1
 8 C  dxz             0.6       0.0       0.0       0.0       0.0       0.0
 8 C  dyz             0.1       0.0       0.0       0.0       0.1       0.0
 8 C  dx2y2           0.0       0.4       0.0       0.6       1.1       0.1
 8 C  dxy             0.0       0.1       1.0       0.4       0.6       0.2
 9 C  s               0.0       0.1       0.1       0.5       0.1       0.0
 9 C  px              0.0       0.2       0.1       0.0       0.0       0.0
 9 C  py              0.0       0.1       0.1       0.1       0.0       0.1
 9 C  dx2y2           0.0       0.4       0.7       0.2       0.1       0.0
 9 C  dxy             0.0       0.0       0.3       0.2       2.2       0.0
10 N  s               0.0       0.1       0.0       0.0       0.2       0.0
10 N  px              0.0       0.4       0.6       0.0       0.1       0.0
10 N  py              0.0       0.2       0.0       0.0       0.0       0.0
10 N  dz2             0.0       0.0       0.0       0.0       0.3       0.0
10 N  dxz             0.0       0.1       0.1       0.0       0.0       0.0
10 N  dx2y2           0.0       1.1       0.3       0.5       4.3       0.0
10 N  dxy             0.0       3.6       1.8       0.1       0.3       0.0
11 C  s               0.0       0.4       1.6       0.5       2.1       0.0
11 C  px              0.0       0.4       1.2       0.6       3.0       0.0
11 C  py              0.0       0.7       0.0       0.2       0.5       0.0
11 C  dz2             0.0       0.1       0.3       0.0       0.3       0.0
11 C  dxz             0.0       0.1       0.2       0.0       0.3       0.0
11 C  dyz             0.0       0.3       0.3       0.0       0.0       0.0
11 C  dx2y2           0.0       9.4       2.2       1.1       3.0       0.0
11 C  dxy             0.0       3.1       4.8       0.0       6.9       0.0
12 O  s               0.0       0.4       1.6       0.8       2.8       0.0
12 O  px              0.0       0.0       1.2       0.3       2.0       0.0
12 O  py              0.0       0.8       0.0       0.2       0.4       0.0
12 O  dz2             0.0       1.0       3.7       1.5       5.1       0.0
12 O  dxz             0.0       0.6       0.1       0.2       0.7       0.0
12 O  dyz             0.0       0.7       0.0       0.1       0.1       0.0
12 O  dx2y2           0.0       3.8      17.1       0.7       9.8       0.1
12 O  dxy             0.0      17.3       0.6       5.3      13.2       0.1
13 C  s               0.0       0.0       0.0       0.0       0.0       0.1
13 C  dxy             0.0       0.0       0.0       0.0       0.1       0.0
14 Br s               0.0       0.0       0.0       0.0       0.0       2.9
14 Br px              0.0       0.0       0.0       0.1       0.0       1.6
14 Br py              0.0       0.0       0.0       0.1       0.0       0.4
14 Br dz2             0.6       0.1       0.1       0.0       0.0      23.3
14 Br dxz            79.1       0.3       0.1       0.7       0.0       0.6
14 Br dyz            16.0       0.2       0.0       0.8       0.0       0.2
14 Br dx2y2           0.5      14.6       3.7      38.9       0.3      23.7
14 Br dxy             1.9       7.6       2.3      22.9       0.0      42.8



                      *****************************
                      * MAYER POPULATION ANALYSIS *
                      *****************************

  NA   - Mulliken gross atomic population
  ZA   - Total nuclear charge
  QA   - Mulliken gross atomic charge
  VA   - Mayer's total valence
  BVA  - Mayer's bonded valence
  FA   - Mayer's free valence

  ATOM       NA         ZA         QA         VA         BVA        FA
  0 C      6.2878     6.0000    -0.2878     4.0127     4.0127    -0.0000
  1 C      6.1558     6.0000    -0.1558     4.1170     4.1170    -0.0000
  2 C      6.0640     6.0000    -0.0640     4.1668     4.1668     0.0000
  3 H      0.8909     1.0000     0.1091     0.9913     0.9913    -0.0000
  4 C      6.2533     6.0000    -0.2533     3.9328     3.9328    -0.0000
  5 N      7.2453     7.0000    -0.2453     3.1694     3.1694     0.0000
  6 C      5.8138     6.0000     0.1862     4.2573     4.2573     0.0000
  7 O      8.1787     8.0000    -0.1787     2.3775     2.3775    -0.0000
  8 C      6.1885     6.0000    -0.1885     3.8614     3.8614     0.0000
  9 C      6.0026     6.0000    -0.0026     4.2134     4.2134     0.0000
 10 N      7.2005     7.0000    -0.2005     3.2902     3.2902    -0.0000
 11 C      5.8222     6.0000     0.1778     4.3203     4.3203    -0.0000
 12 O      8.2053     8.0000    -0.2053     2.3016     2.3016    -0.0000
 13 C      6.2018     6.0000    -0.2018     3.9257     3.9257     0.0000
 14 Br    34.9909    35.0000     0.0091     1.2435     1.2435    -0.0000
 15 H      0.8725     1.0000     0.1275     0.9812     0.9812    -0.0000
 16 H      0.9034     1.0000     0.0966     0.9483     0.9483    -0.0000
 17 H      0.8986     1.0000     0.1014     0.9610     0.9610    -0.0000
 18 H      0.9091     1.0000     0.0909     0.9476     0.9476    -0.0000
 19 H      0.9082     1.0000     0.0918     0.9574     0.9574    -0.0000
 20 H      0.8542     1.0000     0.1458     0.9914     0.9914     0.0000
 21 H      0.8965     1.0000     0.1035     0.9575     0.9575     0.0000
 22 H      0.9008     1.0000     0.0992     0.9562     0.9562     0.0000
 23 H      0.7520     1.0000     0.2480     0.9353     0.9353    -0.0000
 24 H      0.8961     1.0000     0.1039     0.9691     0.9691     0.0000
 25 H      0.8531     1.0000     0.1469     0.9565     0.9565     0.0000
 26 H      0.8540     1.0000     0.1460     0.9664     0.9664     0.0000

  Mayer bond orders larger than 0.100000
B(  0-C ,  1-C ) :   1.1575 B(  0-C , 15-H ) :   0.9383 B(  0-C , 16-H ) :   0.9465 
B(  0-C , 17-H ) :   0.9466 B(  1-C ,  2-C ) :   1.0968 B(  1-C , 18-H ) :   0.9214 
B(  1-C , 19-H ) :   0.9214 B(  2-C ,  3-H ) :   0.8688 B(  2-C ,  4-C ) :   1.1195 
B(  2-C ,  5-N ) :   0.9135 B(  4-C , 20-H ) :   0.9154 B(  4-C , 21-H ) :   0.9417 
B(  4-C , 22-H ) :   0.9441 B(  5-N ,  6-C ) :   1.0271 B(  5-N , 11-C ) :   1.0908 
B(  6-C ,  7-O ) :   2.0891 B(  6-C ,  8-C ) :   1.0516 B(  8-C ,  9-C ) :   1.5991 
B(  8-C , 14-Br) :   1.0915 B(  9-C , 10-N ) :   1.2121 B(  9-C , 13-C ) :   1.1629 
B( 10-N , 11-C ) :   1.0833 B( 10-N , 23-H ) :   0.8291 B( 11-C , 12-O ) :   2.0022 
B( 13-C , 24-H ) :   0.9221 B( 13-C , 25-H ) :   0.9151 B( 13-C , 26-H ) :   0.9124 


-------
TIMINGS
-------

Total SCF time: 0 days 0 hours 0 min 17 sec 

Total time                  ....      17.894 sec
Sum of individual times     ....      17.382 sec  ( 97.1%)

SCF preparation             ....       0.213 sec  (  1.2%)
Fock matrix formation       ....      16.071 sec  ( 89.8%)
  Startup                   ....       0.059 sec  (  0.4% of F)
  Split-RI-J                ....       7.700 sec  ( 47.9% of F)
  XC integration            ....       7.721 sec  ( 48.0% of F)
    Basis function eval.    ....       2.922 sec  ( 37.8% of XC)
    Density eval.           ....       1.405 sec  ( 18.2% of XC)
    XC-Functional eval.     ....       0.567 sec  (  7.3% of XC)
    XC-Potential eval.      ....       1.848 sec  ( 23.9% of XC)
Diagonalization             ....       0.000 sec  (  0.0%)
Density matrix formation    ....       0.226 sec  (  1.3%)
Total Energy calculation    ....       0.039 sec  (  0.2%)
Population analysis         ....       0.129 sec  (  0.7%)
Orbital Transformation      ....       0.069 sec  (  0.4%)
Orbital Orthonormalization  ....       0.000 sec  (  0.0%)
DIIS solution               ....       0.397 sec  (  2.2%)
  MO trafo                  ....       0.000 sec  (  0.0 % of DIIS)
  Orb grad                  ....       0.000 sec  (  0.0 % of DIIS)
  Energy W gradient         ....       0.000 sec  (  0.0 % of DIIS)
  DIIS error                ....       0.011 sec  (  2.7 % of DIIS)
  DIIS work                 ....       0.326 sec  ( 82.1 % of DIIS)
  Form Q                    ....       0.000 sec  (  0.0 % of DIIS)
  Form QpQm                 ....       0.000 sec  (  0.0 % of DIIS)
  Exp/Cayley                ....       0.000 sec  (  0.0 % of DIIS)
  Orb update                ....       0.000 sec  (  0.0 % of DIIS)
  Wake-sleep                ....       0.021 sec  (  5.3 % of DIIS)
SOSCF solution              ....       0.237 sec  (  1.3%)
  MO trafo                  ....       0.074 sec  ( 31.1 % of SOSCF)
  Orb grad                  ....       0.003 sec  (  1.1 % of SOSCF)
  Rot update                ....       0.105 sec  ( 44.5 % of SOSCF)
  Step                      ....       0.055 sec  ( 23.1 % of SOSCF)
Finished LeanSCF after  18.0 sec

Maximum memory used throughout the entire LEANSCF-calculation: 23.6 MB


-------------------------------------------------------------------------------
                          DFT DISPERSION CORRECTION                            
                                                                               
                                DFTD4 V3.4.0                                   
-------------------------------------------------------------------------------
The PBE functional is recognized
Active option DFTDOPT                   ...         5   

-------------------------   ----------------
Dispersion correction           -0.034104156
-------------------------   ----------------

------------------   -----------------
gCP correction             0.126197718
------------------   -----------------

-------------------------   --------------------
FINAL SINGLE POINT ENERGY     -3182.938903467907
-------------------------   --------------------


------------------------------------------------------------------------------
                              ORCA PROPERTY CALCULATIONS
------------------------------------------------------------------------------

GBWName                                 ... sp.gbw
Number of atoms                         ...     27
Number of basis functions               ...    240
Max core memory                         ...   1024 MB

Electric properties:
Dipole moment                           ... YES
Quadrupole moment                       ...  NO
Static polarizability (Dipole/Dipole)   ...  NO
Static polarizability (Dipole/Quad.)    ...  NO
Static polarizability (Quad./Quad.)     ...  NO
Static polarizability (Velocity)        ...  NO

Atomic electric properties:
Dipole moment                           ...  NO
Quadrupole moment                       ...  NO
Static polarizability                   ...  NO

Choice of electric origin               ... Center of mass
Position of electric origin             ...    -0.000095     0.000022    -0.000008

General magnetic properties:
Magnetizability                         ...  NO

EPR properties:
g-Tensor (aka g-matrix)                 ...  NO
Zero-Field splitting spin-orbit         ...  NO
Zero-field splitting spin-spin          ...  NO
Hyperfine couplings                     ...  NO (   0 nuclei)
Quadrupole couplings                    ...  NO (   0 nuclei)
Contact density                         ...  NO (   0 nuclei)

NMR properties:
Chemical shifts                         ...  NO (   0 nuclei)
Spin-rotation constants                 ...  NO (   0 nuclei)
Spin-spin couplings                     ...  NO (   0 nuclei,    0 pairs)

Choice of magnetic origin               ... GIAO
Position of magnetic origin             ...     0.000000     0.000000     0.000000

Properties with geometric perturbations:
SCF Hessian                             ...  NO
IR spectrum                             ...  NO
VCD spectrum                            ...  NO
X-ray spectroscopy properties:
SCF XES/XAS/RIXS spectra                ...  NO


-------------
DIPOLE MOMENT
-------------

Method             : SCF
Type of density    : Electron Density
Multiplicity       :   1
Irrep              :   0
Energy             : -3183.0309970302123475 Eh
Relativity type    : 
Basis              : AO
                                X                 Y                 Z
Electronic contribution:     50.335911770      -6.128995895       4.595682521
Nuclear contribution   :    -49.893460263       7.573905660      -4.800422103
                        -----------------------------------------
Total Dipole Moment    :      0.442451508       1.444909765      -0.204739582
                        -----------------------------------------
Magnitude (a.u.)       :      1.524941265
Magnitude (Debye)      :      3.876092658



--------------------
Rotational spectrum 
--------------------
 
Rotational constants in cm-1:             0.033009             0.010452             0.008697 
Rotational constants in MHz :           989.570454           313.345537           260.734326 

Dipole components along the rotational axes: 
x,y,z [a.u.] :    -0.473214     1.446729    -0.092145 
x,y,z [Debye]:    -1.202814     3.677292    -0.234214 

 

Dipole moment calculation done in   0.0 sec 

Maximum memory used throughout the entire PROP-calculation: 16.0 MB

--------------------------------
SUGGESTED CITATIONS FOR THIS RUN
--------------------------------

Below you find a list of papers that are relevant to this ORCA run
We neither can nor want to force you to cite these papers, but we appreciate if you do
You receive ORCA, which is the product of decades of hard work by many enthusiastic individuals, for free
The only thing we kindly ask in return is that you cite our papers,
We deeply appreciate it, if you show your appreciation for ORCA by not just citing the generic ORCA reference.

Please note that relegating all ORCA citations to the supporting information does *not* help us.
SI sections are not indexed - citations you put there will not count into any citation statistics
But we need these citations in order to attract the funding resources that allow us to do what we are doing

Therefore, if you are a happy ORCA user, please consider citing a few of the papers listed below in the main body of your paper

In addition to the list printed below, the program has created the file sp.bibtex that contains the list in bibtex format
You can import this file easily into all common literature databanks and citation aid programs


List of essential papers. We consider these as the minimum necessary citations

  1. Neese,F.
     Software update: the ORCA program system, version 5.0
     WIRES Comput. Molec. Sci., 2022 12(1)e1606
     doi.org/10.1002/wcms.1606

List of papers to cite with high priority. The work reported in these papers was absolutely
necessary for this run to complete.
Our perspective: the developers of density functionals and basis sets usually get cited in chemistry papers
Good! But without the algorithms to do something with them, the functionals or basis sets would not do anything.
Hence, in our opinion, the algorithm design and method developments papers are equally worthy of getting cited

  1. Neese,F.
     An improvement of the resolution of the identity approximation for the formation of the Coulomb matrix
     J. Comp. Chem., 2003 24(14)1740-1747
     doi.org/10.1002/jcc.10318
  2. Neese,F.
     The SHARK Integral Generation and Digestion System
     J. Comp. Chem., 2022  1-16
     doi.org/10.1002/jcc.26942
  3. Caldeweyher,E.; Bannwarth,C.; Grimme,S.
     Extension of the D3 dispersion coefficient model
     J. Chem. Phys., 2017 147 034112-XXXX
     doi.org/10.1063/1.4993215
  4. Caldeweyher,E.; Ehlert,S.; Hansen,A.; Neugebauer,H.; Spicher,S.; Bannwarth,C.; Grimme,S.
     A generally applicable atomic-charge dependent London dispersion correction
     J. Chem. Phys., 2019 150 154122-XXXX
     doi.org/10.1063/1.5090222
  5. Caldeweyher,E.; Mewes,J.; Ehlert,S.; Grimme,S.
     Extension and evaluation of the D4 London-dispersion model for periodic systems
     Phys. Chem. Chem. Phys., 2020 22(16)8499-8512
     doi.org/10.1039/D0CP00502A

List of suggested additional citations. These are papers that are important in the 'surrounding' of 
of this run, or papers that preceded the highly important papers. If you like your results we are grateful for a citation.

  1. Neese,F.
     The ORCA program system
     WIRES Comput. Molec. Sci., 2012 2(1)73-78
     doi.org/10.1002/wcms.81
  2. Neese,F.
     Software update: the ORCA program system, version 4.0
     WIRES Comput. Molec. Sci., 2018 8(1)1-6
     doi.org/10.1002/wcms.1327
  3. Neese,F.; Wennmohs,F.; Becker,U.; Riplinger,C.
     The ORCA quantum chemistry program package
     J. Chem. Phys., 2020 152 Art. No. L224108
     doi.org/10.1063/5.0004608

List of optional additional citations

  1. Neese,F.
     Approximate second-order SCF convergence for spin unrestricted wavefunctions
     Chem. Phys. Lett., 2000 325(1-3)93-98
     doi.org/10.1016/s0009-2614(00)00662-x

Timings for individual modules:

Sum of individual times          ...       21.335 sec (=   0.356 min)
Startup calculation              ...        1.572 sec (=   0.026 min)   7.4 %
SCF iterations                   ...       19.635 sec (=   0.327 min)  92.0 %
Property calculations            ...        0.127 sec (=   0.002 min)   0.6 %
                             ****ORCA TERMINATED NORMALLY****
TOTAL RUN TIME: 0 days 0 hours 0 minutes 22 seconds 148 msec
