      -----------------------------------------------------------      
     |                   =====================                   |     
     |                           x T B                           |     
     |                   =====================                   |     
     |                         S. Grimme                         |     
     |          Mulliken Center for Theoretical Chemistry        |     
     |                    University of Bonn                     |     
      -----------------------------------------------------------      

   * xtb version 6.7.1 (edcfbbe) compiled by 'albert@albert-system' on 2024-07-22

   xtb is free software: you can redistribute it and/or modify it under
   the terms of the GNU Lesser General Public License as published by
   the Free Software Foundation, either version 3 of the License, or
   (at your option) any later version.
   
   xtb is distributed in the hope that it will be useful,
   but WITHOUT ANY WARRANTY; without even the implied warranty of
   MERCHANTABILITY or FITNESS FOR A PARTICULAR PURPOSE.  See the
   GNU Lesser General Public License for more details.
   
   Cite this work as:
   * C. Bannwarth, E. Caldeweyher, S. Ehlert, A. Hansen, P. Pracht,
     J. Seibert, S. Spicher, S. Grimme, WIREs Comput. Mol. Sci., 2020, 11,
     e01493. DOI: 10.1002/wcms.1493
   
   for GFN2-xTB:
   * C. Bannwarth, S. Ehlert and S. Grimme., J. Chem. Theory Comput., 2019,
     15, 1652-1671. DOI: 10.1021/acs.jctc.8b01176
   for GFN1-xTB:
   * S. Grimme, C. Bannwarth, P. Shushkov, J. Chem. Theory Comput., 2017,
     13, 1989-2009. DOI: 10.1021/acs.jctc.7b00118
   for GFN0-xTB:
   * P. Pracht, E. Caldeweyher, S. Ehlert, S. Grimme, ChemRxiv, 2019, preprint.
     DOI: 10.26434/chemrxiv.8326202.v1
   for GFN-FF:
   * S. Spicher and S. Grimme, Angew. Chem. Int. Ed., 2020, 59, 15665-15673.
     DOI: 10.1002/anie.202004239
   
   for ALPB and GBSA implicit solvation:
   * S. Ehlert, M. Stahn, S. Spicher, S. Grimme, J. Chem. Theory Comput.,
     2021, 17, 4250-4261. DOI: 10.1021/acs.jctc.1c00471
   
   for ddCOSMO and CPCM-X implicit solvation:
   * M. Stahn, S. Ehlert, S. Grimme, J. Phys. Chem. A,
     2023, XX, XXXX-XXXX. DOI: 10.1021/acs.jpca.3c04382
   
   for DFT-D4:
   * E. Caldeweyher, C. Bannwarth and S. Grimme, J. Chem. Phys., 2017,
     147, 034112. DOI: 10.1063/1.4993215
   * E. Caldeweyher, S. Ehlert, A. Hansen, H. Neugebauer, S. Spicher,
     C. Bannwarth and S. Grimme, J. Chem. Phys., 2019, 150, 154122.
     DOI: 10.1063/1.5090222
   * E. Caldeweyher, J.-M. Mewes, S. Ehlert and S. Grimme, Phys. Chem. Chem. Phys.
     2020, 22, 8499-8512. DOI: 10.1039/D0CP00502A
   
   for sTDA-xTB:
   * S. Grimme and C. Bannwarth, J. Chem. Phys., 2016, 145, 054103.
     DOI: 10.1063/1.4959605
   
   in the mass-spec context:
   * V. Asgeirsson, C. Bauer and S. Grimme, Chem. Sci., 2017, 8, 4879.
     DOI: 10.1039/c7sc00601b
   * J. Koopman and S. Grimme, ACS Omega 2019, 4, 12, 15120-15133.
     DOI: 10.1021/acsomega.9b02011
   
   for metadynamics refer to:
   * S. Grimme, J. Chem. Theory Comput., 2019, 155, 2847-2862
     DOI: 10.1021/acs.jctc.9b00143
   
   for SPH calculations refer to:
   * S. Spicher and S. Grimme, J. Chem. Theory Comput., 2021, 17, 1701-1714
     DOI: 10.1021/acs.jctc.0c01306
   
   for ONIOM refer to:
   * C. Plett, A. Katbashev, S. Ehlert, S. Grimme, M. Bursch,
     Phys. Chem. Chem. Phys., 2023, 25, 17860-17868. DOI: 10.1039/D3CP02178E
   
   for DIPRO refer to:
   * J. Kohn, N. Gildemeister, S. Grimme, D. Fazzi, A. Hansen,
     J. Chem. Phys., 2023, just accepted.
   
   for PTB refer to:
   * S. Grimme, M. Mueller, A. Hansen, J. Chem. Phys., 2023, 158, 124111.
     DOI: 10.1063/5.0137838
   
   with help from (in alphabetical order)
   P. Atkinson, C. Bannwarth, F. Bohle, G. Brandenburg, E. Caldeweyher
   M. Checinski, S. Dohm, S. Ehlert, S. Ehrlich, I. Gerasimov, C. Hölzer
   A. Katbashev, J. Kohn, J. Koopman, C. Lavigne, S. Lehtola, F. März, M. Müller,
   F. Musil, H. Neugebauer, J. Pisarek, C. Plett, P. Pracht, F. Pultar,
   J. Seibert, P. Shushkov, S. Spicher, M. Stahn, M. Steiner, T. Strunk,
   J. Stückrath, T. Rose, and J. Unsleber
   
 * started run on 2025/04/11 at 12:40:56.352     
   ID    Z sym.   atoms
    1    6 C      1-3, 5, 6
    2    1 H      4, 8-18
    3    8 O      7

           -------------------------------------------------
          |                Calculation Setup                |
           -------------------------------------------------

          program call               : /srv/scratch/z5358697/.xtb/bin/xtb xtb_rrho.coord --gfn2 --ohess vtight --chrg 0 --enso --norestart -I rrho-xcontrol-inp --parallel 1 --alpb water
          hostname                   : k114
          coordinate file            : xtb_rrho.coord
          omp threads                :                     1


           -------------------------------------------------
          |                 G F N 2 - x T B                 |
           -------------------------------------------------

        Reference                      10.1021/acs.jctc.8b01176
      * Hamiltonian:
        H0-scaling (s, p, d)           1.850000    2.230000    2.230000
        zeta-weighting                 0.500000
      * Dispersion:
        s8                             2.700000
        a1                             0.520000
        a2                             5.000000
        s9                             5.000000
      * Repulsion:
        kExp                           1.500000    1.000000
        rExp                           1.000000
      * Coulomb:
        alpha                          2.000000
        third order                    shell-resolved
        anisotropic                    true
        a3                             3.000000
        a5                             4.000000
        cn-shift                       1.200000
        cn-exp                         4.000000
        max-rad                        5.000000

      * Solvation model:               ALPB
        Solvent                        water
        Parameter file                 internal GFN2-xTB/ALPB
        Dielectric constant                8.0200E+01
        Reference state                gsolv [1 M gas/solution]
        Free energy shift                  1.0808E-03 Eh       6.7819E-01 kcal/mol
        Temperature                        2.9815E+02 K
        Density                            1.0000E+00 kg/L
        Solvent mass                       1.8000E+01 g/mol
        Interaction kernel             P16
        Born radius scaling (c1)           1.4744E+00
        Born radii integrator          GBOBC
        Born offset                        0.0000E+00 a0       0.0000E+00 AA
        H-bond correction              true
        Ion screening                  false
        Surface tension                    1.0000E-05 Eh       1.5569E+01 dyn/cm
        Grid points                               974 per atom

          ...................................................
          :                      SETUP                      :
          :.................................................:
          :  # basis functions                  36          :
          :  # atomic orbitals                  36          :
          :  # shells                           24          :
          :  # electrons                        38          :
          :  max. iterations                   250          :
          :  Hamiltonian                  GFN2-xTB          :
          :  restarted?                      false          :
          :  GBSA solvation                   true          :
          :  PC potential                    false          :
          :  electronic temp.          300.0000000     K    :
          :  accuracy                    1.0000000          :
          :  -> integral cutoff          0.2500000E+02      :
          :  -> integral neglect         0.1000000E-07      :
          :  -> SCF convergence          0.1000000E-05 Eh   :
          :  -> wf. convergence          0.1000000E-03 e    :
          :  Broyden damping             0.4000000          :
          :  net charge                          0          :
          :  unpaired electrons                  0          :
          ...................................................

 iter      E             dE          RMSdq      gap      omega  full diag
   1    -21.1133170 -0.211133E+02  0.303E+00   11.94       0.0  T
   2    -21.1429384 -0.296214E-01  0.157E+00   11.79       1.0  T
   3    -21.1437967 -0.858336E-03  0.594E-01   11.78       1.0  T
   4    -21.1439520 -0.155262E-03  0.106E-01   11.77       1.0  T
   5    -21.1439641 -0.120970E-04  0.579E-02   11.78       1.0  T
   6    -21.1439659 -0.179971E-05  0.953E-03   11.79       2.5  T
   7    -21.1439661 -0.214694E-06  0.429E-03   11.79       5.5  T
   8    -21.1439662 -0.433894E-07  0.187E-03   11.79      12.6  T
   9    -21.1439662 -0.492181E-08  0.517E-04   11.79      45.6  T
  10    -21.1439662 -0.102509E-08  0.149E-04   11.79     158.6  T

   *** convergence criteria satisfied after 10 iterations ***

         #    Occupation            Energy/Eh            Energy/eV
      -------------------------------------------------------------
         1        2.0000           -0.6815367             -18.5456
       ...           ...                  ...                  ...
        13        2.0000           -0.4703882             -12.7999
        14        2.0000           -0.4518012             -12.2941
        15        2.0000           -0.4446611             -12.0998
        16        2.0000           -0.4315258             -11.7424
        17        2.0000           -0.4309853             -11.7277
        18        2.0000           -0.4213008             -11.4642
        19        2.0000           -0.4054013             -11.0315 (HOMO)
        20                          0.0276947               0.7536 (LUMO)
        21                          0.0754211               2.0523
        22                          0.0848817               2.3097
        23                          0.0995513               2.7089
        24                          0.1211018               3.2953
       ...                                ...                  ...
        36                          0.2922669               7.9530
      -------------------------------------------------------------
                  HL-Gap            0.4330959 Eh           11.7851 eV
             Fermi-level           -0.1888533 Eh           -5.1390 eV

 SCC (total)                   0 d,  0 h,  0 min,  0.012 sec
 SCC setup                      ...        0 min,  0.001 sec (  9.744%)
 Dispersion                     ...        0 min,  0.000 sec (  0.885%)
 classical contributions        ...        0 min,  0.000 sec (  0.188%)
 integral evaluation            ...        0 min,  0.001 sec ( 10.290%)
 iterations                     ...        0 min,  0.005 sec ( 46.090%)
 molecular gradient             ...        0 min,  0.004 sec ( 31.340%)
 printout                       ...        0 min,  0.000 sec (  1.323%)

         :::::::::::::::::::::::::::::::::::::::::::::::::::::
         ::                     SUMMARY                     ::
         :::::::::::::::::::::::::::::::::::::::::::::::::::::
         :: total energy             -20.891909943470 Eh    ::
         :: total w/o Gsasa/hb       -20.889245357030 Eh    ::
         :: gradient norm              0.029512158483 Eh/a0 ::
         :: HOMO-LUMO gap             11.785139587203 eV    ::
         ::.................................................::
         :: SCC energy               -21.143930284169 Eh    ::
         :: -> isotropic ES            0.035758259846 Eh    ::
         :: -> anisotropic ES          0.005042825486 Eh    ::
         :: -> anisotropic XC          0.008409082820 Eh    ::
         :: -> dispersion             -0.010226190960 Eh    ::
         :: -> Gsolv                  -0.007205477887 Eh    ::
         ::    -> Gelec               -0.004540891447 Eh    ::
         ::    -> Gsasa                0.000480066095 Eh    ::
         ::    -> Ghb                 -0.004225412233 Eh    ::
         ::    -> Gshift               0.001080759698 Eh    ::
         :: repulsion energy           0.252020340698 Eh    ::
         :: add. restraining           0.000000000000 Eh    ::
         :: total charge              -0.000000000000 e     ::
         :::::::::::::::::::::::::::::::::::::::::::::::::::::

      ----------------------------------------------------------- 
     |                   =====================                   |
     |                        A N C O P T                        |
     |                   =====================                   |
     |               Approximate Normal Coordinate               |
     |                Rational Function Optimizer                |
      ----------------------------------------------------------- 
      ----------------------------------------------------------- 
     |                   =====================                   |
     |                        A N C O P T                        |
     |                   =====================                   |
     |               Approximate Normal Coordinate               |
     |                Rational Function Optimizer                |
      ----------------------------------------------------------- 

          ...................................................
          :                      SETUP                      :
          :.................................................:
          :   optimization level         verytight          :
          :   max. optcycles                   360          :
          :   ANC micro-cycles                  20          :
          :   degrees of freedom                48          :
          :.................................................:
          :   RF solver                   davidson          :
          :   write xtbopt.log                true          :
          :   linear?                        false          :
          :   energy convergence         0.1000000E-06 Eh   :
          :   grad. convergence          0.2000000E-03 Eh/α :
          :   maxmium RF displ.          1.0000000          :
          :   Hlow (freq-cutoff)         0.1000000E-01      :
          :   Hmax (freq-cutoff)         5.0000000          :
          :   S6 in model hess.         20.0000000          :
          ...................................................

generating ANC from exact Hessian ...
Using Lindh-Hessian (1995)
 Shifting diagonal of input Hessian by   7.305704137204041E-003
 Lowest  eigenvalues of input Hessian
    0.000000    0.000000    0.000000    0.000000    0.000000    0.000000
    0.010000    0.011682    0.013184    0.015060    0.015924    0.017961
    0.020496    0.025359    0.037346    0.048630    0.055092    0.058361
 Highest eigenvalues
    1.148097    1.183067    1.209483    1.271814    1.286525    1.413077
 

........................................................................
.............................. CYCLE    1 ..............................
........................................................................

 iter      E             dE          RMSdq      gap      omega  full diag
   1    -21.1439662 -0.211440E+02  0.905E-05   11.79       0.0  T
   2    -21.1439662 -0.947864E-11  0.610E-05   11.79     386.4  T
   3    -21.1439662 -0.820677E-11  0.122E-05   11.79    1937.8  T
     SCC iter.                  ...        0 min,  0.001 sec
     gradient                   ...        0 min,  0.004 sec
 * total energy  :   -20.8919099 Eh     change       -0.6468426E-10 Eh
   gradient norm :     0.0295129 Eh/α   predicted     0.0000000E+00 (-100.00%)
   displ. norm   :     0.1210600 α      lambda       -0.1483748E-02
   maximum displ.:     0.0470923 α      in ANC's #9, #12, #8, ...

........................................................................
.............................. CYCLE    2 ..............................
........................................................................

 iter      E             dE          RMSdq      gap      omega  full diag
   1    -21.1517662 -0.211518E+02  0.112E-01   12.11       0.0  T
   2    -21.1517754 -0.918234E-05  0.651E-02   12.11       1.0  T
   3    -21.1517758 -0.430888E-06  0.119E-02   12.11       2.0  T
   4    -21.1517763 -0.491755E-06  0.317E-03   12.11       7.4  T
   5    -21.1517763 -0.383687E-07  0.157E-03   12.11      15.0  T
   6    -21.1517763 -0.544382E-08  0.685E-04   12.11      34.4  T
   7    -21.1517763 -0.112367E-08  0.239E-04   12.11      98.6  T
     SCC iter.                  ...        0 min,  0.002 sec
     gradient                   ...        0 min,  0.004 sec
 * total energy  :   -20.8928601 Eh     change       -0.9501304E-03 Eh
   gradient norm :     0.0137574 Eh/α   predicted    -0.7527466E-03 ( -20.77%)
   displ. norm   :     0.0839475 α      lambda       -0.3434821E-03
   maximum displ.:     0.0496883 α      in ANC's #2, #1, #5, ...

........................................................................
.............................. CYCLE    3 ..............................
........................................................................

 iter      E             dE          RMSdq      gap      omega  full diag
   1    -21.1552229 -0.211552E+02  0.445E-02   12.34       0.0  T
   2    -21.1552280 -0.515444E-05  0.262E-02   12.34       1.0  T
   3    -21.1552283 -0.328275E-06  0.105E-02   12.34       2.2  T
   4    -21.1552286 -0.216198E-06  0.241E-03   12.34       9.8  T
   5    -21.1552286 -0.179513E-07  0.120E-03   12.34      19.7  T
   6    -21.1552286 -0.322871E-08  0.578E-04   12.34      40.8  T
   7    -21.1552286 -0.770640E-09  0.205E-04   12.34     115.1  T
     SCC iter.                  ...        0 min,  0.002 sec
     gradient                   ...        0 min,  0.004 sec
 * total energy  :   -20.8930680 Eh     change       -0.2079399E-03 Eh
   gradient norm :     0.0037297 Eh/α   predicted    -0.1729510E-03 ( -16.83%)
   displ. norm   :     0.0778780 α      lambda       -0.7999233E-04
   maximum displ.:     0.0484136 α      in ANC's #2, #1, #5, ...

........................................................................
.............................. CYCLE    4 ..............................
........................................................................

 iter      E             dE          RMSdq      gap      omega  full diag
   1    -21.1551509 -0.211552E+02  0.250E-02   12.41       0.0  T
   2    -21.1551515 -0.606873E-06  0.148E-02   12.41       1.6  T
   3    -21.1551515 -0.141512E-07  0.395E-03   12.41       6.0  T
   4    -21.1551515 -0.624284E-07  0.892E-04   12.41      26.4  T
   5    -21.1551515 -0.217002E-08  0.400E-04   12.41      58.9  T
     SCC iter.                  ...        0 min,  0.002 sec
     gradient                   ...        0 min,  0.004 sec
 * total energy  :   -20.8931274 Eh     change       -0.5939404E-04 Eh
   gradient norm :     0.0020420 Eh/α   predicted    -0.4023955E-04 ( -32.25%)
   displ. norm   :     0.1169082 α      lambda       -0.6896473E-04
   maximum displ.:     0.0755695 α      in ANC's #1, #2, #5, ...

........................................................................
.............................. CYCLE    5 ..............................
........................................................................

 iter      E             dE          RMSdq      gap      omega  full diag
   1    -21.1542635 -0.211543E+02  0.322E-02   12.45       0.0  T
   2    -21.1542638 -0.251779E-06  0.190E-02   12.45       1.2  T
   3    -21.1542638 -0.524876E-08  0.238E-03   12.45       9.9  T
   4    -21.1542638 -0.395718E-07  0.748E-04   12.45      31.5  T
   5    -21.1542638 -0.905228E-09  0.284E-04   12.45      83.1  T
     SCC iter.                  ...        0 min,  0.002 sec
     gradient                   ...        0 min,  0.004 sec
 * total energy  :   -20.8931776 Eh     change       -0.5017828E-04 Eh
   gradient norm :     0.0033635 Eh/α   predicted    -0.3495444E-04 ( -30.34%)
   displ. norm   :     0.1024429 α      lambda       -0.4262063E-04
   maximum displ.:     0.0713749 α      in ANC's #1, #2, #5, ...

........................................................................
.............................. CYCLE    6 ..............................
........................................................................

 iter      E             dE          RMSdq      gap      omega  full diag
   1    -21.1536923 -0.211537E+02  0.253E-02   12.44       0.0  T
   2    -21.1536924 -0.457762E-07  0.150E-02   12.44       1.6  T
   3    -21.1536924 -0.109837E-07  0.684E-04   12.44      34.4  T
   4    -21.1536924 -0.609361E-09  0.360E-04   12.44      65.5  T
     SCC iter.                  ...        0 min,  0.001 sec
     gradient                   ...        0 min,  0.004 sec
 * total energy  :   -20.8932127 Eh     change       -0.3508342E-04 Eh
   gradient norm :     0.0033881 Eh/α   predicted    -0.2153396E-04 ( -38.62%)
   displ. norm   :     0.1122732 α      lambda       -0.4542976E-04
   maximum displ.:     0.0812798 α      in ANC's #1, #2, #5, ...

........................................................................
.............................. CYCLE    7 ..............................
........................................................................

 iter      E             dE          RMSdq      gap      omega  full diag
   1    -21.1535724 -0.211536E+02  0.274E-02   12.42       0.0  T
   2    -21.1535725 -0.100778E-06  0.163E-02   12.42       1.4  T
   3    -21.1535725 -0.709662E-09  0.137E-03   12.42      17.2  T
   4    -21.1535725 -0.177914E-07  0.477E-04   12.42      49.4  T
   5    -21.1535725 -0.204231E-09  0.204E-04   12.42     115.7  T
     SCC iter.                  ...        0 min,  0.002 sec
     gradient                   ...        0 min,  0.004 sec
 * total energy  :   -20.8932497 Eh     change       -0.3707817E-04 Eh
   gradient norm :     0.0024245 Eh/α   predicted    -0.2300183E-04 ( -37.96%)
   displ. norm   :     0.1140633 α      lambda       -0.3963229E-04
   maximum displ.:     0.0881453 α      in ANC's #1, #2, #5, ...

........................................................................
.............................. CYCLE    8 ..............................
........................................................................

 iter      E             dE          RMSdq      gap      omega  full diag
   1    -21.1538742 -0.211539E+02  0.286E-02   12.39       0.0  T
   2    -21.1538743 -0.989210E-07  0.171E-02   12.39       1.4  T
   3    -21.1538743 -0.564501E-09  0.143E-03   12.39      16.5  T
   4    -21.1538743 -0.191982E-07  0.490E-04   12.39      48.1  T
   5    -21.1538743 -0.182350E-09  0.166E-04   12.39     142.2  T
     SCC iter.                  ...        0 min,  0.002 sec
     gradient                   ...        0 min,  0.004 sec
 * total energy  :   -20.8932813 Eh     change       -0.3152151E-04 Eh
   gradient norm :     0.0016094 Eh/α   predicted    -0.2007427E-04 ( -36.32%)
   displ. norm   :     0.1386720 α      lambda       -0.2704091E-04
   maximum displ.:     0.1157478 α      in ANC's #1, #2, #4, ...

........................................................................
.............................. CYCLE    9 ..............................
........................................................................

 iter      E             dE          RMSdq      gap      omega  full diag
   1    -21.1544816 -0.211545E+02  0.366E-02   12.36       0.0  T
   2    -21.1544817 -0.124722E-06  0.218E-02   12.36       1.1  T
   3    -21.1544818 -0.155101E-07  0.143E-03   12.36      16.5  T
   4    -21.1544818 -0.145344E-07  0.627E-04   12.36      37.6  T
   5    -21.1544818 -0.407759E-09  0.264E-04   12.36      89.2  T
     SCC iter.                  ...        0 min,  0.002 sec
     gradient                   ...        0 min,  0.004 sec
 * total energy  :   -20.8933127 Eh     change       -0.3141941E-04 Eh
   gradient norm :     0.0017357 Eh/α   predicted    -0.1363650E-04 ( -56.60%)
   displ. norm   :     0.0965403 α      lambda       -0.1886584E-04
   maximum displ.:     0.0854855 α      in ANC's #1, #2, #4, ...

........................................................................
.............................. CYCLE   10 ..............................
........................................................................

 iter      E             dE          RMSdq      gap      omega  full diag
   1    -21.1547791 -0.211548E+02  0.280E-02   12.36       0.0  T
   2    -21.1547791 -0.655209E-07  0.168E-02   12.36       1.4  T
   3    -21.1547792 -0.226052E-07  0.883E-04   12.36      26.7  T
   4    -21.1547792 -0.138450E-08  0.516E-04   12.36      45.7  T
     SCC iter.                  ...        0 min,  0.001 sec
     gradient                   ...        0 min,  0.004 sec
 * total energy  :   -20.8933386 Eh     change       -0.2589715E-04 Eh
   gradient norm :     0.0015755 Eh/α   predicted    -0.9470374E-05 ( -63.43%)
   displ. norm   :     0.1121000 α      lambda       -0.2401609E-04
   maximum displ.:     0.0985438 α      in ANC's #1, #4, #6, ...

........................................................................
.............................. CYCLE   11 ..............................
........................................................................

 iter      E             dE          RMSdq      gap      omega  full diag
   1    -21.1547850 -0.211548E+02  0.360E-02   12.38       0.0  T
   2    -21.1547851 -0.912483E-07  0.216E-02   12.38       1.1  T
   3    -21.1547852 -0.442048E-07  0.125E-03   12.38      18.8  T
   4    -21.1547852 -0.385551E-08  0.767E-04   12.38      30.7  T
   5    -21.1547852 -0.118738E-08  0.271E-04   12.38      87.0  T
     SCC iter.                  ...        0 min,  0.002 sec
     gradient                   ...        0 min,  0.004 sec
 * total energy  :   -20.8933708 Eh     change       -0.3223161E-04 Eh
   gradient norm :     0.0010917 Eh/α   predicted    -0.1207534E-04 ( -62.54%)
   displ. norm   :     0.1249489 α      lambda       -0.2293097E-04
   maximum displ.:     0.1115150 α      in ANC's #1, #4, #6, ...

........................................................................
.............................. CYCLE   12 ..............................
........................................................................

 iter      E             dE          RMSdq      gap      omega  full diag
   1    -21.1545840 -0.211546E+02  0.411E-02   12.39       0.0  T
   2    -21.1545841 -0.928468E-07  0.247E-02   12.39       1.0  T
   3    -21.1545841 -0.567103E-07  0.134E-03   12.39      17.6  T
   4    -21.1545841 -0.297817E-08  0.817E-04   12.39      28.8  T
   5    -21.1545841 -0.149155E-08  0.233E-04   12.39     101.1  T
     SCC iter.                  ...        0 min,  0.002 sec
     gradient                   ...        0 min,  0.004 sec
 * total energy  :   -20.8934003 Eh     change       -0.2948069E-04 Eh
   gradient norm :     0.0005238 Eh/α   predicted    -0.1154720E-04 ( -60.83%)
   displ. norm   :     0.1031345 α      lambda       -0.1460510E-04
   maximum displ.:     0.0948183 α      in ANC's #1, #4, #6, ...

........................................................................
.............................. CYCLE   13 ..............................
........................................................................

 iter      E             dE          RMSdq      gap      omega  full diag
   1    -21.1545088 -0.211545E+02  0.343E-02   12.40       0.0  T
   2    -21.1545089 -0.552912E-07  0.205E-02   12.40       1.1  T
   3    -21.1545089 -0.345895E-07  0.104E-03   12.40      22.6  T
   4    -21.1545089 -0.179224E-08  0.650E-04   12.40      36.3  T
   5    -21.1545089 -0.948308E-09  0.139E-04   12.40     169.9  T
     SCC iter.                  ...        0 min,  0.002 sec
     gradient                   ...        0 min,  0.004 sec
 * total energy  :   -20.8934195 Eh     change       -0.1917127E-04 Eh
   gradient norm :     0.0005148 Eh/α   predicted    -0.7337173E-05 ( -61.73%)
   displ. norm   :     0.0774902 α      lambda       -0.9905169E-05
   maximum displ.:     0.0738752 α      in ANC's #1, #4, #6, ...

........................................................................
.............................. CYCLE   14 ..............................
........................................................................

 iter      E             dE          RMSdq      gap      omega  full diag
   1    -21.1545443 -0.211545E+02  0.250E-02   12.40       0.0  T
   2    -21.1545443 -0.339607E-07  0.150E-02   12.40       1.6  T
   3    -21.1545443 -0.192037E-07  0.763E-04   12.40      30.9  T
   4    -21.1545443 -0.906393E-09  0.480E-04   12.40      49.1  T
     SCC iter.                  ...        0 min,  0.001 sec
     gradient                   ...        0 min,  0.004 sec
 * total energy  :   -20.8934328 Eh     change       -0.1330838E-04 Eh
   gradient norm :     0.0006825 Eh/α   predicted    -0.4966033E-05 ( -62.68%)
   displ. norm   :     0.0660286 α      lambda       -0.8034328E-05
   maximum displ.:     0.0633454 α      in ANC's #1, #4, #3, ...

........................................................................
.............................. CYCLE   15 ..............................
........................................................................

 iter      E             dE          RMSdq      gap      omega  full diag
   1    -21.1545483 -0.211545E+02  0.206E-02   12.40       0.0  T
   2    -21.1545483 -0.219206E-07  0.123E-02   12.40       1.9  T
   3    -21.1545483 -0.111728E-07  0.629E-04   12.40      37.5  T
   4    -21.1545483 -0.960064E-09  0.399E-04   12.40      59.1  T
     SCC iter.                  ...        0 min,  0.001 sec
     gradient                   ...        0 min,  0.004 sec
 * total energy  :   -20.8934440 Eh     change       -0.1119714E-04 Eh
   gradient norm :     0.0005406 Eh/α   predicted    -0.4025602E-05 ( -64.05%)
   displ. norm   :     0.0702398 α      lambda       -0.8198396E-05
   maximum displ.:     0.0677993 α      in ANC's #1, #5, #4, ...

........................................................................
.............................. CYCLE   16 ..............................
........................................................................

 iter      E             dE          RMSdq      gap      omega  full diag
   1    -21.1546611 -0.211547E+02  0.208E-02   12.40       0.0  T
   2    -21.1546611 -0.214332E-07  0.125E-02   12.40       1.9  T
   3    -21.1546611 -0.109116E-07  0.628E-04   12.40      37.5  T
   4    -21.1546611 -0.106124E-08  0.395E-04   12.40      59.7  T
     SCC iter.                  ...        0 min,  0.001 sec
     gradient                   ...        0 min,  0.004 sec
 * total energy  :   -20.8934553 Eh     change       -0.1130400E-04 Eh
   gradient norm :     0.0003952 Eh/α   predicted    -0.4107302E-05 ( -63.67%)
   displ. norm   :     0.0775484 α      lambda       -0.7863537E-05
   maximum displ.:     0.0733853 α      in ANC's #1, #2, #5, ...

........................................................................
.............................. CYCLE   17 ..............................
........................................................................

 iter      E             dE          RMSdq      gap      omega  full diag
   1    -21.1545122 -0.211545E+02  0.227E-02   12.39       0.0  T
   2    -21.1545123 -0.234066E-07  0.136E-02   12.39       1.7  T
   3    -21.1545123 -0.136154E-07  0.659E-04   12.39      35.8  T
   4    -21.1545123 -0.678433E-09  0.411E-04   12.39      57.3  T
     SCC iter.                  ...        0 min,  0.001 sec
     gradient                   ...        0 min,  0.004 sec
 * total energy  :   -20.8934654 Eh     change       -0.1016948E-04 Eh
   gradient norm :     0.0004659 Eh/α   predicted    -0.3941990E-05 ( -61.24%)
   displ. norm   :     0.1539417 α      lambda       -0.1311436E-04
   maximum displ.:     0.1483719 α      in ANC's #1, #5, #2, ...

........................................................................
.............................. CYCLE   18 ..............................
........................................................................

 iter      E             dE          RMSdq      gap      omega  full diag
   1    -21.1545714 -0.211546E+02  0.443E-02   12.38       0.0  T
   2    -21.1545715 -0.101521E-06  0.265E-02   12.38       1.0  T
   3    -21.1545715 -0.464723E-07  0.137E-03   12.38      17.2  T
   4    -21.1545715 -0.631392E-08  0.848E-04   12.38      27.8  T
   5    -21.1545715 -0.135110E-08  0.264E-04   12.38      89.2  T
     SCC iter.                  ...        0 min,  0.002 sec
     gradient                   ...        0 min,  0.004 sec
 * total energy  :   -20.8934798 Eh     change       -0.1434124E-04 Eh
   gradient norm :     0.0005494 Eh/α   predicted    -0.6627047E-05 ( -53.79%)
   displ. norm   :     0.1446723 α      lambda       -0.6951378E-05
   maximum displ.:     0.1382934 α      in ANC's #1, #2, #4, ...

........................................................................
.............................. CYCLE   19 ..............................
........................................................................

 iter      E             dE          RMSdq      gap      omega  full diag
   1    -21.1542754 -0.211543E+02  0.437E-02   12.38       0.0  T
   2    -21.1542755 -0.797796E-07  0.261E-02   12.38       1.0  T
   3    -21.1542755 -0.469424E-07  0.121E-03   12.38      19.5  T
   4    -21.1542755 -0.190662E-08  0.739E-04   12.38      31.9  T
   5    -21.1542755 -0.106360E-08  0.161E-04   12.38     146.7  T
     SCC iter.                  ...        0 min,  0.002 sec
     gradient                   ...        0 min,  0.004 sec
 * total energy  :   -20.8934852 Eh     change       -0.5439720E-05 Eh
   gradient norm :     0.0010962 Eh/α   predicted    -0.3506557E-05 ( -35.54%)
   displ. norm   :     0.0446685 α      lambda       -0.2877446E-05
   maximum displ.:     0.0425016 α      in ANC's #1, #32, #4, ...

........................................................................
.............................. CYCLE   20 ..............................
........................................................................

 iter      E             dE          RMSdq      gap      omega  full diag
   1    -21.1546687 -0.211547E+02  0.145E-02   12.38       0.0  T
   2    -21.1546688 -0.358970E-07  0.865E-03   12.38       2.7  T
   3    -21.1546688 -0.683820E-08  0.603E-04   12.38      39.1  T
   4    -21.1546688 -0.879094E-09  0.308E-04   12.38      76.5  T
     SCC iter.                  ...        0 min,  0.001 sec
     gradient                   ...        0 min,  0.004 sec
 * total energy  :   -20.8934877 Eh     change       -0.2462268E-05 Eh
   gradient norm :     0.0004987 Eh/α   predicted    -0.1438659E-05 ( -41.57%)
   displ. norm   :     0.0293547 α      lambda       -0.1389203E-05
   maximum displ.:     0.0247966 α      in ANC's #1, #4, #2, ...
 * RMSD in coord.:     0.4103127 α      energy gain  -0.1577748E-02 Eh

generating ANC from exact Hessian ...
Using Lindh-Hessian (1995)
 Shifting diagonal of input Hessian by   7.209138095684270E-003
 Lowest  eigenvalues of input Hessian
    0.000000    0.000000    0.000000    0.000000    0.000000    0.000000
    0.010000    0.011708    0.013325    0.015099    0.015945    0.018386
    0.020728    0.024720    0.039002    0.050462    0.057782    0.059909
 Highest eigenvalues
    1.180443    1.191143    1.228286    1.273768    1.291589    1.487560
 

........................................................................
.............................. CYCLE   21 ..............................
........................................................................

 iter      E             dE          RMSdq      gap      omega  full diag
   1    -21.1547493 -0.211547E+02  0.999E-03   12.39       0.0  T
   2    -21.1547493 -0.919565E-08  0.600E-03   12.39       3.9  T
   3    -21.1547493 -0.381704E-08  0.394E-04   12.39      59.8  T
   4    -21.1547493 -0.476632E-09  0.234E-04   12.39     100.9  T
     SCC iter.                  ...        0 min,  0.001 sec
     gradient                   ...        0 min,  0.004 sec
 * total energy  :   -20.8934892 Eh     change       -0.1533639E-05 Eh
   gradient norm :     0.0003049 Eh/α   predicted     0.0000000E+00 (-100.00%)
   displ. norm   :     0.0095728 α      lambda       -0.8161163E-06
   maximum displ.:     0.0056391 α      in ANC's #2, #4, #3, ...

........................................................................
.............................. CYCLE   22 ..............................
........................................................................

 iter      E             dE          RMSdq      gap      omega  full diag
   1    -21.1546922 -0.211547E+02  0.322E-03   12.39       0.0  T
   2    -21.1546922 -0.115048E-08  0.192E-03   12.39      12.3  T
   3    -21.1546922 -0.119549E-09  0.134E-04   12.39     176.3  T
   4    -21.1546922 -0.897344E-10  0.523E-05   12.39     450.3  T
     SCC iter.                  ...        0 min,  0.001 sec
     gradient                   ...        0 min,  0.004 sec
 * total energy  :   -20.8934902 Eh     change       -0.9265747E-06 Eh
   gradient norm :     0.0001454 Eh/α   predicted    -0.4070213E-06 ( -56.07%)
   displ. norm   :     0.0260124 α      lambda       -0.1429135E-05
   maximum displ.:     0.0160796 α      in ANC's #2, #4, #3, ...

........................................................................
.............................. CYCLE   23 ..............................
........................................................................

 iter      E             dE          RMSdq      gap      omega  full diag
   1    -21.1546368 -0.211546E+02  0.686E-03   12.39       0.0  T
   2    -21.1546369 -0.236426E-08  0.414E-03   12.39       5.7  T
   3    -21.1546369 -0.976335E-09  0.186E-04   12.39     126.4  T
   4    -21.1546369 -0.394138E-10  0.940E-05   12.39     250.6  T
     SCC iter.                  ...        0 min,  0.001 sec
     gradient                   ...        0 min,  0.004 sec
 * total energy  :   -20.8934915 Eh     change       -0.1340490E-05 Eh
   gradient norm :     0.0003066 Eh/α   predicted    -0.7157012E-06 ( -46.61%)
   displ. norm   :     0.0141843 α      lambda       -0.4396545E-06
   maximum displ.:     0.0094379 α      in ANC's #2, #4, #8, ...

........................................................................
.............................. CYCLE   24 ..............................
........................................................................

 iter      E             dE          RMSdq      gap      omega  full diag
   1    -21.1546870 -0.211547E+02  0.407E-03   12.39       0.0  T
   2    -21.1546870 -0.886281E-09  0.245E-03   12.39       9.6  T
   3    -21.1546870 -0.324743E-09  0.105E-04   12.39     224.4  T
   4    -21.1546870 -0.118021E-10  0.597E-05   12.39     394.6  T
     SCC iter.                  ...        0 min,  0.001 sec
     gradient                   ...        0 min,  0.004 sec
 * total energy  :   -20.8934919 Eh     change       -0.4123522E-06 Eh
   gradient norm :     0.0001439 Eh/α   predicted    -0.2217517E-06 ( -46.22%)
   displ. norm   :     0.0073035 α      lambda       -0.1488657E-06
   maximum displ.:     0.0053490 α      in ANC's #2, #1, #4, ...

........................................................................
.............................. CYCLE   25 ..............................
........................................................................

 iter      E             dE          RMSdq      gap      omega  full diag
   1    -21.1547094 -0.211547E+02  0.214E-03   12.39       0.0  T
   2    -21.1547094 -0.200853E-09  0.128E-03   12.39      18.5  T
   3    -21.1547094 -0.796945E-10  0.556E-05   12.39     424.3  T
   4    -21.1547094 -0.588329E-11  0.327E-05   12.39     719.9  T
     SCC iter.                  ...        0 min,  0.001 sec
     gradient                   ...        0 min,  0.004 sec
 * total energy  :   -20.8934921 Eh     change       -0.1540775E-06 Eh
   gradient norm :     0.0000434 Eh/α   predicted    -0.7493428E-07 ( -51.37%)
   displ. norm   :     0.0059328 α      lambda       -0.9280304E-07
   maximum displ.:     0.0040376 α      in ANC's #1, #2, #5, ...

........................................................................
.............................. CYCLE   26 ..............................
........................................................................

 iter      E             dE          RMSdq      gap      omega  full diag
   1    -21.1547137 -0.211547E+02  0.133E-03   12.39       0.0  T
   2    -21.1547137 -0.788241E-10  0.797E-04   12.39      29.6  T
   3    -21.1547137 -0.293561E-10  0.341E-05   12.39     691.1  T
     SCC iter.                  ...        0 min,  0.001 sec
     gradient                   ...        0 min,  0.004 sec
 * total energy  :   -20.8934922 Eh     change       -0.1111066E-06 Eh
   gradient norm :     0.0000824 Eh/α   predicted    -0.4499085E-07 ( -59.51%)
   displ. norm   :     0.0071072 α      lambda       -0.9838664E-07
   maximum displ.:     0.0051160 α      in ANC's #1, #2, #5, ...

........................................................................
.............................. CYCLE   27 ..............................
........................................................................

 iter      E             dE          RMSdq      gap      omega  full diag
   1    -21.1547122 -0.211547E+02  0.185E-03   12.39       0.0  T
   2    -21.1547122 -0.146379E-09  0.110E-03   12.39      21.4  T
   3    -21.1547122 -0.631672E-10  0.506E-05   12.39     465.5  T
   4    -21.1547122 -0.267519E-11  0.280E-05   12.39     843.3  T
     SCC iter.                  ...        0 min,  0.001 sec
     gradient                   ...        0 min,  0.004 sec
 * total energy  :   -20.8934923 Eh     change       -0.1198118E-06 Eh
   gradient norm :     0.0000836 Eh/α   predicted    -0.4841704E-07 ( -59.59%)
   displ. norm   :     0.0084103 α      lambda       -0.8443865E-07
   maximum displ.:     0.0061273 α      in ANC's #1, #2, #5, ...

........................................................................
.............................. CYCLE   28 ..............................
........................................................................

 iter      E             dE          RMSdq      gap      omega  full diag
   1    -21.1547033 -0.211547E+02  0.207E-03   12.39       0.0  T
   2    -21.1547033 -0.187725E-09  0.124E-03   12.39      19.0  T
   3    -21.1547033 -0.818119E-10  0.559E-05   12.39     421.7  T
   4    -21.1547033 -0.201084E-11  0.220E-05   12.39    1071.4  T
     SCC iter.                  ...        0 min,  0.001 sec
     gradient                   ...        0 min,  0.004 sec
 * total energy  :   -20.8934924 Eh     change       -0.9931331E-07 Eh
   gradient norm :     0.0000393 Eh/α   predicted    -0.4324599E-07 ( -56.45%)
   displ. norm   :     0.0064434 α      lambda       -0.4019569E-07
   maximum displ.:     0.0048358 α      in ANC's #1, #2, #3, ...

   *** GEOMETRY OPTIMIZATION CONVERGED AFTER 28 ITERATIONS ***

------------------------------------------------------------------------
 total energy gain   :        -0.0015824 Eh       -0.9930 kcal/mol
 total RMSD          :         0.4187583 a0        0.2216 Å
 total power (kW/mol):        -0.1483825 (step)  -17.1040 (real)
------------------------------------------------------------------------

 ANCopt (total)                0 d,  0 h,  0 min,  0.243 sec
 optimizer setup                ...        0 min,  0.000 sec (  0.123%)
 model hessian                  ...        0 min,  0.017 sec (  7.202%)
 ANC generation                 ...        0 min,  0.001 sec (  0.337%)
 coordinate transformation      ...        0 min,  0.000 sec (  0.080%)
 single point calculation       ...        0 min,  0.212 sec ( 87.122%)
 optimization log               ...        0 min,  0.007 sec (  3.042%)
 hessian update                 ...        0 min,  0.000 sec (  0.077%)
 rational function              ...        0 min,  0.004 sec (  1.472%)

================
 final structure:
================
$coord
       -3.39854216909087        2.72566906686378        0.59464204755717      C
       -2.15293791666644        0.63541541144705       -0.94685996176041      C
       -0.47181790045780       -1.11173565742362        0.64024892011160      C
       -1.45258545969963       -1.56978839500271        2.40413263926701      H
        0.05857884426590       -3.57086423395674       -0.78368659012780      C
        2.00980039857155        0.20261314025970        1.38799000635605      C
        3.46922180649859        1.03573115660030       -0.68236408312111      O
       -1.99057919308349        3.98452325149753        1.40201643896006      H
       -4.64063202545019        3.84198211197031       -0.60221713112854      H
       -4.51502690973948        1.92714935214840        2.12523025102791      H
       -1.00327222058446        1.47870779477434       -2.43932575554713      H
       -3.62559703551369       -0.49879751551450       -1.84279172151837      H
        1.37267504044381       -4.75142008588192        0.26809444210318      H
        0.84568574851723       -3.18069628317222       -2.64208860869468      H
       -1.68515379728568       -4.62425328228738       -1.04650217527260      H
        3.13008113675280       -1.07522656818329        2.58198972218626      H
        1.60512731610330        1.90412029450052        2.48313160004730      H
        3.99824927480156       -0.42192275741715       -1.64809269636055      H
$end
 
 Bond Distances (Angstroems)
 ---------------------------
C1-C2=1.5243         C1-H8=1.0869         C1-H9=1.0873         C1-H10=1.0880        C2-C1=1.5243         C2-C3=1.5335         
C2-H11=1.0923        C2-H12=1.0919        C3-C2=1.5335         C3-H4=1.0952         C3-C5=1.5297         C3-C6=1.5378         
H4-C3=1.0952         C5-C3=1.5297         C5-H13=1.0879        C5-H14=1.0878        C5-H15=1.0870        C6-C3=1.5378         
C6-O7=1.4111         C6-H16=1.0991        C6-H17=1.0920        O7-C6=1.4111         O7-H18=0.9667        H8-C1=1.0869         
H9-C1=1.0873         H10-C1=1.0880        H11-C2=1.0923        H12-C2=1.0919        H13-C5=1.0879        H14-C5=1.0878        
H15-C5=1.0870        H16-C6=1.0991        H17-C6=1.0920        H18-O7=0.9667        
 C  H  Rav=1.0905 sigma=0.0038  Rmin=1.0869  Rmax=1.0991    11
 C  C  Rav=1.5313 sigma=0.0050  Rmin=1.5243  Rmax=1.5378     4
 O  H  Rav=0.9667 sigma=0.0000  Rmin=0.9667  Rmax=0.9667     1
 O  C  Rav=1.4111 sigma=0.0000  Rmin=1.4111  Rmax=1.4111     1
 
 selected bond angles (degree)
 --------------------
H8-C1-C2=111.02                H9-C1-C2=110.12                H9-C1-H8=108.08                H10-C1-C2=110.57               
H10-C1-H8=108.52               H10-C1-H9=108.45               C3-C2-C1=113.28                H11-C2-C1=109.35               
H11-C2-C3=108.62               H12-C2-C1=108.82               H12-C2-C3=108.69               H12-C2-H11=107.95              
H4-C3-C2=108.98                C5-C3-C2=110.46                C5-C3-H4=108.57                C6-C3-C2=111.32                
C6-C3-H4=106.59                C6-C3-C5=110.78                H13-C5-C3=110.72               H14-C5-C3=110.74               
H14-C5-H13=109.07              H15-C5-C3=110.09               H15-C5-H13=108.28              H15-C5-H14=107.86              
O7-C6-C3=114.14                H16-C6-C3=109.29               H16-C6-O7=110.08               H17-C6-C3=110.00               
H17-C6-O7=105.17               H17-C6-H16=107.94              H18-O7-C6=108.64               
 
 selected dihedral angles (degree)
 ---------------------------------
C3-C2-C1-H8= 63.30            C3-C2-C1-H9=182.96            C3-C2-C1-H10=302.79           H11-C2-C1-H8=302.01           
H11-C2-C1-H9= 61.67           H11-C2-C1-H10=181.50          H12-C2-C1-H8=184.32           H12-C2-C1-H9=303.98           
H12-C2-C1-H10= 63.80          H4-C3-C2-C1= 43.60            H4-C3-C2-H11=165.31           H4-C3-C2-H12=282.51           
C5-C3-C2-C1=162.80            C5-C3-C2-H11=284.51           C5-C3-C2-H12= 41.71           C6-C3-C2-C1=286.31            
C6-C3-C2-H11= 48.02           C6-C3-C2-H12=165.23           H13-C5-C3-C2=175.42           H13-C5-C3-H4=294.87           
H13-C5-C3-C6= 51.59           H14-C5-C3-C2= 54.31           H14-C5-C3-H4=173.75           H14-C5-C3-C6=290.48           
H15-C5-C3-C2=295.11           H15-C5-C3-H4= 54.56           H15-C5-C3-C6=171.28           O7-C6-C3-C2=301.55            
O7-C6-C3-H4=182.82            O7-C6-C3-C5= 64.88            H16-C6-C3-C2=177.81           H16-C6-C3-H4= 59.08           
H16-C6-C3-C5=301.14           H17-C6-C3-C2= 59.48           H17-C6-C3-H4=300.75           H17-C6-C3-C5=182.81           
H18-O7-C6-C3=296.09           H18-O7-C6-H16= 59.40          H18-O7-C6-H17=175.44          
           -------------------------------------------------
          |                Final Singlepoint                |
           -------------------------------------------------

          ...................................................
          :                      SETUP                      :
          :.................................................:
          :  # basis functions                  36          :
          :  # atomic orbitals                  36          :
          :  # shells                           24          :
          :  # electrons                        38          :
          :  max. iterations                   250          :
          :  Hamiltonian                  GFN2-xTB          :
          :  restarted?                      false          :
          :  GBSA solvation                   true          :
          :  PC potential                    false          :
          :  electronic temp.          300.0000000     K    :
          :  accuracy                    1.0000000          :
          :  -> integral cutoff          0.2500000E+02      :
          :  -> integral neglect         0.1000000E-07      :
          :  -> SCF convergence          0.1000000E-05 Eh   :
          :  -> wf. convergence          0.1000000E-03 e    :
          :  Broyden damping             0.4000000          :
          :  net charge                          0          :
          :  unpaired electrons                  0          :
          ...................................................

 iter      E             dE          RMSdq      gap      omega  full diag
   1    -21.1547033 -0.211547E+02  0.599E-06   12.39       0.0  T
   2    -21.1547033 -0.852651E-13  0.352E-06   12.39    6704.7  T
   3    -21.1547033 -0.390799E-13  0.168E-06   12.39   14034.3  T

   *** convergence criteria satisfied after 3 iterations ***

         #    Occupation            Energy/Eh            Energy/eV
      -------------------------------------------------------------
         1        2.0000           -0.6858135             -18.6619
       ...           ...                  ...                  ...
        13        2.0000           -0.4706039             -12.8058
        14        2.0000           -0.4521651             -12.3040
        15        2.0000           -0.4422730             -12.0349
        16        2.0000           -0.4332045             -11.7881
        17        2.0000           -0.4300287             -11.7017
        18        2.0000           -0.4204384             -11.4407
        19        2.0000           -0.4042267             -10.9996 (HOMO)
        20                          0.0510661               1.3896 (LUMO)
        21                          0.0842231               2.2918
        22                          0.0908208               2.4714
        23                          0.1025857               2.7915
        24                          0.1305336               3.5520
       ...                                ...                  ...
        36                          0.3063172               8.3353
      -------------------------------------------------------------
                  HL-Gap            0.4552929 Eh           12.3891 eV
             Fermi-level           -0.1765803 Eh           -4.8050 eV

 SCC (total)                   0 d,  0 h,  0 min,  0.008 sec
 SCC setup                      ...        0 min,  0.001 sec ( 14.605%)
 Dispersion                     ...        0 min,  0.000 sec (  0.881%)
 classical contributions        ...        0 min,  0.000 sec (  0.238%)
 integral evaluation            ...        0 min,  0.001 sec ( 15.843%)
 iterations                     ...        0 min,  0.001 sec ( 17.445%)
 molecular gradient             ...        0 min,  0.004 sec ( 49.035%)
 printout                       ...        0 min,  0.000 sec (  1.746%)

         :::::::::::::::::::::::::::::::::::::::::::::::::::::
         ::                     SUMMARY                     ::
         :::::::::::::::::::::::::::::::::::::::::::::::::::::
         :: total energy             -20.893492389024 Eh    ::
         :: total w/o Gsasa/hb       -20.890695171787 Eh    ::
         :: gradient norm              0.000039397128 Eh/a0 ::
         :: HOMO-LUMO gap             12.389149530554 eV    ::
         ::.................................................::
         :: SCC energy               -21.154667501389 Eh    ::
         :: -> isotropic ES            0.034935967438 Eh    ::
         :: -> anisotropic ES          0.004380179759 Eh    ::
         :: -> anisotropic XC          0.007843770307 Eh    ::
         :: -> dispersion             -0.010192565234 Eh    ::
         :: -> Gsolv                  -0.007139685348 Eh    ::
         ::    -> Gelec               -0.004342468111 Eh    ::
         ::    -> Gsasa                0.000474547263 Eh    ::
         ::    -> Ghb                 -0.004352524199 Eh    ::
         ::    -> Gshift               0.001080759698 Eh    ::
         :: repulsion energy           0.261175112365 Eh    ::
         :: add. restraining           0.000000000000 Eh    ::
         :: total charge              -0.000000000000 e     ::
         :::::::::::::::::::::::::::::::::::::::::::::::::::::

           ------------------------------------------------- 
          |                Numerical Hessian                |
           ------------------------------------------------- 
step length          :   0.00500
SCC accuracy         :   0.30000
Hessian scale factor :   1.00000
frozen atoms in %    :   0.00000    0
RMS gradient         :   0.00004
estimated CPU  time      0.01 min
estimated wall time      0.01 min

writing file <hessian>.

 projected vibrational frequencies (cm⁻¹)
eigval :       -0.00     0.00     0.00     0.00     0.00     0.00
eigval :       55.67   117.85   212.77   222.28   260.56   271.24
eigval :      323.97   376.64   437.46   591.06   797.83   841.98
eigval :      910.83   950.45   990.13  1023.89  1051.75  1073.93
eigval :     1100.11  1145.71  1173.34  1198.29  1249.25  1293.85
eigval :     1300.94  1325.64  1339.35  1364.15  1406.90  1411.94
eigval :     1475.67  1482.28  1496.89  1498.92  1505.79  1507.67
eigval :     2869.62  2930.96  2967.17  2981.44  2982.33  3023.63
eigval :     3024.00  3025.96  3031.08  3041.80  3042.58  3502.95
           -------------------------------------------------
          |                Property Printout                |
           -------------------------------------------------

    * Orbital Energies and Occupations

         #    Occupation            Energy/Eh            Energy/eV
      -------------------------------------------------------------
         1        2.0000           -0.6858135             -18.6619
       ...           ...                  ...                  ...
         7        2.0000           -0.5441069             -14.8059
         8        2.0000           -0.5288133             -14.3897
         9        2.0000           -0.5146445             -14.0042
        10        2.0000           -0.4941446             -13.4464
        11        2.0000           -0.4861223             -13.2281
        12        2.0000           -0.4807868             -13.0829
        13        2.0000           -0.4706039             -12.8058
        14        2.0000           -0.4521651             -12.3040
        15        2.0000           -0.4422730             -12.0349
        16        2.0000           -0.4332045             -11.7881
        17        2.0000           -0.4300287             -11.7017
        18        2.0000           -0.4204384             -11.4407
        19        2.0000           -0.4042267             -10.9996 (HOMO)
        20                          0.0510661               1.3896 (LUMO)
        21                          0.0842231               2.2918
        22                          0.0908208               2.4714
        23                          0.1025857               2.7915
        24                          0.1305336               3.5520
        25                          0.1422776               3.8716
        26                          0.1511575               4.1132
        27                          0.1780640               4.8454
        28                          0.1904208               5.1816
        29                          0.2047738               5.5722
        30                          0.2145546               5.8383
       ...                                ...                  ...
        36                          0.3063172               8.3353
      -------------------------------------------------------------
                  HL-Gap            0.4552929 Eh           12.3891 eV
             Fermi-level           -0.1765803 Eh           -4.8050 eV

     #   Z          covCN         q      C6AA      α(0)
     1   6 C        3.751    -0.111    22.687     6.793
     2   6 C        3.803    -0.063    21.700     6.632
     3   6 C        3.848    -0.030    21.080     6.531
     4   1 H        0.924     0.034     2.526     2.485
     5   6 C        3.755    -0.117    22.788     6.807
     6   6 C        3.676     0.079    19.487     6.325
     7   8 O        1.655    -0.508    23.061     6.483
     8   1 H        0.925     0.035     2.523     2.484
     9   1 H        0.925     0.039     2.459     2.452
    10   1 H        0.925     0.036     2.496     2.471
    11   1 H        0.924     0.042     2.426     2.436
    12   1 H        0.924     0.037     2.495     2.470
    13   1 H        0.925     0.041     2.437     2.441
    14   1 H        0.925     0.042     2.419     2.432
    15   1 H        0.925     0.043     2.410     2.428
    16   1 H        0.923     0.017     2.779     2.607
    17   1 H        0.924     0.040     2.443     2.444
    18   1 H        0.805     0.343     0.604     1.220

 Mol. C6AA /au·bohr⁶  :       2119.922768
 Mol. C8AA /au·bohr⁸  :      43687.205069
 Mol. α(0) /au        :         67.940152


Wiberg/Mayer (AO) data.
largest (>0.10) Wiberg bond orders for each atom

 ---------------------------------------------------------------------------
     #   Z sym  total        # sym  WBO       # sym  WBO       # sym  WBO
 ---------------------------------------------------------------------------
     1   6 C    3.997 --     2 C    1.020    10 H    0.987     9 H    0.987
                             8 H    0.986
     2   6 C    3.997 --     1 C    1.020     3 C    0.997    12 H    0.977
                            11 H    0.976
     3   6 C    3.995 --     5 C    1.009     2 C    0.997     6 C    0.984
                             4 H    0.967
     4   1 H    0.999 --     3 C    0.967
     5   6 C    3.996 --     3 C    1.009    15 H    0.986    13 H    0.986
                            14 H    0.984
     6   6 C    3.952 --     7 O    0.996     3 C    0.984    17 H    0.971
                            16 H    0.970
     7   8 O    1.923 --     6 C    0.996    18 H    0.866
     8   1 H    0.999 --     1 C    0.986
     9   1 H    0.998 --     1 C    0.987
    10   1 H    0.999 --     1 C    0.987
    11   1 H    0.998 --     2 C    0.976
    12   1 H    0.999 --     2 C    0.977
    13   1 H    0.998 --     5 C    0.986
    14   1 H    0.998 --     5 C    0.984
    15   1 H    0.998 --     5 C    0.986
    16   1 H    1.000 --     6 C    0.970
    17   1 H    0.998 --     6 C    0.971
    18   1 H    0.882 --     7 O    0.866
 ---------------------------------------------------------------------------

Topologies differ in total number of bonds
Writing topology from bond orders to xtbtopo.mol

molecular dipole:
                 x           y           z       tot (Debye)
 q only:       -0.213      -0.668      -0.031
   full:       -0.203      -0.833       0.005       2.180
molecular quadrupole (traceless):
                xx          xy          yy          xz          yz          zz
 q only:       -0.676      -3.655      -0.536      -0.818       1.249       1.212
  q+dip:       -0.594      -4.460      -0.856      -0.302       1.269       1.450
   full:       -0.750      -4.620      -0.759      -0.671       1.474       1.509

           -------------------------------------------------
          |                Geometry Summary                 |
           -------------------------------------------------

      molecular mass/u    :       88.1483734
   center of mass at/Å    :       -0.0001215       0.0007379       0.0051150
  moments of inertia/u·Å² :        0.1217617E+03   0.1902406E+03   0.2579214E+03
rotational constants/cm⁻¹ :        0.1384477E+00   0.8861217E-01   0.6535957E-01

 * 17 selected distances

     #   Z          #   Z                                           value/Å
     1   6 C        2   6 C                                       1.5242619
     2   6 C        3   6 C                                       1.5334838
     3   6 C        4   1 H                                       1.0951544
     3   6 C        5   6 C                                       1.5297000
     3   6 C        6   6 C                                       1.5378094 (max)
     6   6 C        7   8 O                                       1.4110651
     1   6 C        8   1 H                                       1.0869315
     1   6 C        9   1 H                                       1.0872518
     1   6 C       10   1 H                                       1.0879545
     2   6 C       11   1 H                                       1.0922515
     2   6 C       12   1 H                                       1.0919349
     5   6 C       13   1 H                                       1.0879458
     5   6 C       14   1 H                                       1.0877684
     5   6 C       15   1 H                                       1.0869801
     6   6 C       16   1 H                                       1.0990514
     6   6 C       17   1 H                                       1.0919816
     7   8 O       18   1 H                                       0.9667095 (min)

 * 4 distinct bonds (by element types)

   Z      Z             #   av. dist./Å        max./Å        min./Å
   1 H    6 C          11     1.0904733     1.0990514     1.0869315
   6 C    6 C           4     1.5313138     1.5378094     1.5242619
   1 H    8 O           1     0.9667095     0.9667095     0.9667095
   6 C    8 O           1     1.4110651     1.4110651     1.4110651

           -------------------------------------------------
          |               Frequency Printout                |
           -------------------------------------------------
 projected vibrational frequencies (cm⁻¹)
eigval :       -0.00     0.00     0.00     0.00     0.00     0.00
eigval :       55.67   117.85   212.77   222.28   260.56   271.24
eigval :      323.97   376.64   437.46   591.06   797.83   841.98
eigval :      910.83   950.45   990.13  1023.89  1051.75  1073.93
eigval :     1100.11  1145.71  1173.34  1198.29  1249.25  1293.85
eigval :     1300.94  1325.64  1339.35  1364.15  1406.90  1411.94
eigval :     1475.67  1482.28  1496.89  1498.92  1505.79  1507.67
eigval :     2869.62  2930.96  2967.17  2981.44  2982.33  3023.63
eigval :     3024.00  3025.96  3031.08  3041.80  3042.58  3502.95
 reduced masses (amu)
   1: 10.37   2: 11.09   3: 10.18   4: 12.50   5: 10.73   6:  9.37   7:  8.77   8:  7.70
   9:  3.54  10:  4.11  11:  7.91  12:  7.74  13:  4.13  14:  5.89  15:  8.30  16:  8.95
  17:  5.77  18:  5.44  19:  5.90  20:  5.54  21:  3.04  22:  7.88  23:  5.76  24:  6.32
  25:  7.49  26:  6.78  27:  7.09  28:  5.52  29:  3.53  30:  3.02  31:  3.53  32:  4.98
  33:  3.31  34:  5.18  35:  3.19  36:  3.18  37:  1.79  38:  1.85  39:  1.60  40:  1.57
  41:  1.55  42:  1.58  43:  1.75  44:  1.75  45:  1.96  46:  1.65  47:  1.52  48:  1.87
  49:  1.85  50:  1.89  51:  1.92  52:  1.40  53:  1.36  54:  1.87
 IR intensities (km·mol⁻¹)
   1:  0.80   2:  0.07   3:  0.66   4:  0.08   5:  0.29   6:  0.53   7:  1.45   8:  2.64
   9:  0.10  10: 12.60  11:  0.41  12:  0.91  13:142.35  14: 67.06  15: 18.08  16: 10.68
  17:  8.53  18:  4.20  19: 37.87  20:  2.07  21: 10.32  22: 59.46  23: 38.02  24: 21.94
  25: 34.63  26:  7.24  27: 21.58  28: 17.18  29:  0.82  30: 13.74  31: 34.67  32: 16.29
  33: 49.19  34:  0.75  35:  0.85  36:  0.65  37:  4.58  38:  0.11  39:  1.36  40:  1.12
  41:  2.39  42:  0.04  43:127.62  44: 76.39  45: 68.13  46: 89.87  47: 20.68  48: 60.36
  49: 85.63  50: 77.15  51: 83.50  52: 85.09  53: 11.85  54: 65.81
 Raman intensities (Ä⁴*amu⁻¹)
   1:  0.00   2:  0.00   3:  0.00   4:  0.00   5:  0.00   6:  0.00   7:  0.00   8:  0.00
   9:  0.00  10:  0.00  11:  0.00  12:  0.00  13:  0.00  14:  0.00  15:  0.00  16:  0.00
  17:  0.00  18:  0.00  19:  0.00  20:  0.00  21:  0.00  22:  0.00  23:  0.00  24:  0.00
  25:  0.00  26:  0.00  27:  0.00  28:  0.00  29:  0.00  30:  0.00  31:  0.00  32:  0.00
  33:  0.00  34:  0.00  35:  0.00  36:  0.00  37:  0.00  38:  0.00  39:  0.00  40:  0.00
  41:  0.00  42:  0.00  43:  0.00  44:  0.00  45:  0.00  46:  0.00  47:  0.00  48:  0.00
  49:  0.00  50:  0.00  51:  0.00  52:  0.00  53:  0.00  54:  0.00
 output can be read by thermo (or use thermo option).
 writing <g98.out> molden fake output.
 recommended (thermochemical) frequency scaling factor: 1.0
           -------------------------------------------------
          |             Thermodynamic Functions             |
           -------------------------------------------------

Molecule has no symmetry elements
It seems to be the C1 point group
c1  symmetry found (for desy threshold:  0.10E+00) used in thermo

          ...................................................
          :                      SETUP                      :
          :.................................................:
          :  # frequencies                          48      :
          :  # imaginary freq.                       0      :
          :  linear?                             false      :
          :  only rotor calc.                    false      :
          :  symmetry                               c1      :
          :  rotational number                       1      :
          :  scaling factor                  1.0000000      :
          :  rotor cutoff                    0.0000000 cm⁻¹ :
          :  imag. cutoff                 -100.0000000 cm⁻¹ :
          :.................................................:

    mode    ω/cm⁻¹     T·S(HO)/kcal·mol⁻¹    T·S(FR)/kcal·mol⁻¹   T·S(vib)
   ------------------------------------------------------------------------
       1     55.67    -1.37299 (100.00%)    -1.02425 (  0.00%)    -1.37299
       2    117.85    -0.93477 (100.00%)    -0.80232 (  0.00%)    -0.93477
       3    212.77    -0.60219 (100.00%)    -0.62741 (  0.00%)    -0.60219
       4    222.28    -0.57854 (100.00%)    -0.61446 (  0.00%)    -0.57854
       5    260.56    -0.49434 (100.00%)    -0.56741 (  0.00%)    -0.49434
       6    271.24    -0.47355 (100.00%)    -0.55552 (  0.00%)    -0.47355
   ------------------------------------------------------------------------

   temp. (K)  partition function   enthalpy   heat capacity  entropy
                                   cal/mol     cal/K/mol   cal/K/mol   J/K/mol
 298.15  VIB   91.4                 3292.545     22.599     20.016
         ROT  0.187E+06              888.752      2.981     27.101
         INT  0.171E+08             4181.297     25.580     47.117
         TR   0.801E+27             1481.254      4.968     39.324
         TOT                        5662.5510    30.5479    86.4416   361.6717

       T/K    H(0)-H(T)+PV         H(T)/Eh          T*S/Eh         G(T)/Eh
   ------------------------------------------------------------------------
    298.15    0.902385E-02    0.171253E+00    0.410712E-01    0.130182E+00
   ------------------------------------------------------------------------

         :::::::::::::::::::::::::::::::::::::::::::::::::::::
         ::                  THERMODYNAMIC                  ::
         :::::::::::::::::::::::::::::::::::::::::::::::::::::
         :: total free energy         -20.763310243872 Eh   ::
         ::.................................................::
         :: total energy              -20.893492389122 Eh   ::
         :: zero point energy           0.162229496467 Eh   ::
         :: G(RRHO) w/o ZPVE           -0.032047351218 Eh   ::
         :: G(RRHO) contrib.            0.130182145249 Eh   ::
         :::::::::::::::::::::::::::::::::::::::::::::::::::::

optimized geometry written to: xtbopt.coord


           -------------------------------------------------
          | TOTAL ENERGY              -20.893492389122 Eh   |
          | TOTAL ENTHALPY            -20.722239043274 Eh   |
          | TOTAL FREE ENERGY         -20.763310243872 Eh   |
          | GRADIENT NORM               0.000039396529 Eh/α |
          | HOMO-LUMO GAP              12.389149480674 eV   |
           -------------------------------------------------

------------------------------------------------------------------------
 * finished run on 2025/04/11 at 12:40:57.562     
------------------------------------------------------------------------
 total:
 * wall-time:     0 d,  0 h,  0 min,  1.210 sec
 *  cpu-time:     0 d,  0 h,  0 min,  1.130 sec
 * ratio c/w:     0.934 speedup
 SCF:
 * wall-time:     0 d,  0 h,  0 min,  0.012 sec
 *  cpu-time:     0 d,  0 h,  0 min,  0.012 sec
 * ratio c/w:     0.990 speedup
 ANC optimizer:
 * wall-time:     0 d,  0 h,  0 min,  0.262 sec
 *  cpu-time:     0 d,  0 h,  0 min,  0.246 sec
 * ratio c/w:     0.942 speedup
 analytical hessian:
 * wall-time:     0 d,  0 h,  0 min,  0.874 sec
 *  cpu-time:     0 d,  0 h,  0 min,  0.860 sec
 * ratio c/w:     0.984 speedup

