
                                 *****************
                                 * O   R   C   A *
                                 *****************

                                            #,                                       
                                            ###                                      
                                            ####                                     
                                            #####                                    
                                            ######                                   
                                           ########,                                 
                                     ,,################,,,,,                         
                               ,,#################################,,                 
                          ,,##########################################,,             
                       ,#########################################, ''#####,          
                    ,#############################################,,   '####,        
                  ,##################################################,,,,####,       
                ,###########''''           ''''###############################       
              ,#####''   ,,,,##########,,,,          '''####'''          '####       
            ,##' ,,,,###########################,,,                        '##       
           ' ,,###''''                  '''############,,,                           
         ,,##''                                '''############,,,,        ,,,,,,###''
      ,#''                                            '''#######################'''  
     '                                                          ''''####''''         
             ,#######,   #######,   ,#######,      ##                                
            ,#'     '#,  ##    ##  ,#'     '#,    #''#        ,####,   ,####,        
            ##       ##  ##   ,#'  ##            #'  '#       #'       #'  '#        
            ##       ##  #######   ##           ,######,      #####,   #    #        
            '#,     ,#'  ##    ##  '#,     ,#' ,#      #,     #,   #   #,  ,#        
             '#######'   ##     ##  '#######'  #'      '#     '####' # '####'        



                #########################################################
                #                        -***-                          #
                #          Department of theory and spectroscopy        #
                #                                                       #
                #                      Frank Neese                      #
                #                                                       #
                #     Directorship, Architecture, Infrastructure        #
                #                    SHARK, DRIVERS                     #
                #        Core code/Algorithms in most modules           #
                #                                                       #
                #        Max Planck Institute fuer Kohlenforschung      #
                #                Kaiser Wilhelm Platz 1                 #
                #                 D-45470 Muelheim/Ruhr                 #
                #                      Germany                          #
                #                                                       #
                #                  All rights reserved                  #
                #                        -***-                          #
                #########################################################


                         Program Version 6.0.0  -   RELEASE  -


 With contributions from (in alphabetic order):
   Daniel Aravena         : Magnetic Suceptibility
   Michael Atanasov       : Ab Initio Ligand Field Theory (pilot matlab implementation)
   Alexander A. Auer      : GIAO ZORA, VPT2 properties, NMR spectrum
   Ute Becker             : All parallelization in ORCA, NUMFREQ, NUMCALC
   Giovanni Bistoni       : ED, misc. LED, open-shell LED, HFLD
   Martin Brehm           : Molecular dynamics
   Dmytro Bykov           : pre 5.0 version of the SCF Hessian
   Marcos Casanova-Páez   : Triplet and SCS-CIS(D). UHF-(DLPNO)-IP/EA/STEOM-CCSD. UHF-CVS-IP/STEOM-CCSD
   Vijay G. Chilkuri      : MRCI spin determinant printing, contributions to CSF-ICE
   Pauline Colinet        : FMM embedding
   Dipayan Datta          : RHF DLPNO-CCSD density
   Achintya Kumar Dutta   : EOM-CC, STEOM-CC
   Nicolas Foglia         : Exact transition moments, OPA infrastructure, MCD improvements
   Dmitry Ganyushin       : Spin-Orbit,Spin-Spin,Magnetic field MRCI
   Miquel Garcia          : C-PCM and meta-GGA Hessian, CCSD/C-PCM, Gaussian charge scheme
   Tiago L. C. Gouveia    : GS-ROHF, GS-ROCIS
   Yang Guo               : DLPNO-NEVPT2, F12-NEVPT2, CIM, IAO-localization
   Andreas Hansen         : Spin unrestricted coupled pair/coupled cluster methods
   Ingolf Harden          : AUTO-CI MPn and infrastructure 
   Benjamin Helmich-Paris : MC-RPA, TRAH-(SCF,CASSCF), AVAS, COSX integrals, SCF dyn. polar.
   Lee Huntington         : MR-EOM, pCC
   Robert Izsak           : Overlap fitted RIJCOSX, COSX-SCS-MP3, EOM
   Riya Kayal             : Wick's Theorem for AUTO-CI, AUTO-CI UHF-CCSDT
   Emily Kempfer          : AUTO-CI, RHF CISDT and CCSDT
   Christian Kollmar      : KDIIS, OOCD, Brueckner-CCSD(T), CCSD density, CASPT2, CASPT2-K, improved NEVPT2
   Axel Koslowski         : Symmetry handling
   Simone Kossmann        : Meta GGA functionals, TD-DFT gradient, OOMP2, (MP2 Hessian; deprecated post 5.0)
   Lucas Lang             : DCDCAS
   Marvin Lechner         : AUTO-CI (C++ implementation), FIC-MRCC
   Spencer Leger          : CASSCF response
   Dagmar Lenk            : GEPOL surface, SMD, ORCA-2-JSON
   Dimitrios Liakos       : Extrapolation schemes; Compound Job, initial MDCI parallelization
   Dimitrios Manganas     : Further ROCIS development; embedding schemes. LFT, Crystal Embedding
   Dimitrios Pantazis     : SARC Basis sets
   Anastasios Papadopoulos: AUTO-CI, single reference methods and gradients
   Taras Petrenko         : pre 6.0 DFT Hessian and TD-DFT gradient, (ASA, deprecated), ECA, 1-Electron XAS/XES, NRVS
   Peter Pinski           : DLPNO-MP2, DLPNO-MP2 Gradient
   Christoph Reimann      : Effective Core Potentials
   Marius Retegan         : Local ZFS, SOC
   Christoph Riplinger    : Optimizer, TS searches, QM/MM, DLPNO-CCSD(T), (RO)-DLPNO pert. Triples
   Michael Roemelt        : Original ROCIS implementation
   Masaaki Saitow         : Open-shell DLPNO-CCSD energy and density
   Barbara Sandhoefer     : DKH picture change effects
   Kantharuban Sivalingam : CASSCF convergence/infrastructure, NEVPT2 and variants, FIC-MRCI
   Bernardo de Souza      : ESD, SOC TD-DFT
   Georgi Stoychev        : AutoAux, RI-MP2 NMR, DLPNO-MP2 response, X2C
   Van Anh Tran           : RI-MP2 g-tensors
   Willem Van den Heuvel  : Paramagnetic NMR
   Zikuan Wang            : NOTCH, Electric field optimization 
   Frank Wennmohs         : Technical directorship and infrastructure
   Hang Xu                : AUTO-CI-Response properties 


 We gratefully acknowledge several colleagues who have allowed us to
 interface, adapt or use parts of their codes:
   Stefan Grimme, W. Hujo, H. Kruse, P. Pracht,  : VdW corrections, initial TS optimization,
                  C. Bannwarth, S. Ehlert,         DFT functionals, gCP, sTDA/sTD-DF
                  L. Wittmann, M. Mueller
   Ed Valeev, F. Pavosevic, A. Kumar             : LibInt (2-el integral package), F12 methods
   Garnet Chan, S. Sharma, J. Yang, R. Olivares  : DMRG
   Ulf Ekstrom                                   : XCFun DFT Library
   Mihaly Kallay                                 : mrcc  (arbitrary order and MRCC methods)
   Frank Weinhold                                : gennbo (NPA and NBO analysis)
   Simon Mueller                                 : openCOSMO-RS
   Christopher J. Cramer and Donald G. Truhlar   : smd solvation model
   Lars Goerigk                                  : TD-DFT with DH, B97 family of functionals
   V. Asgeirsson, H. Jonsson                     : NEB implementation
   FAccTs GmbH                                   : IRC, NEB, NEB-TS, DLPNO-Multilevel, CI-OPT
                                                   MM, QMMM, 2- and 3-layer-ONIOM, Crystal-QMMM,
                                                   LR-CPCM, SF, NACMEs, symmetry and pop. for TD-DFT,
                                                   nearIR, NL-DFT gradient (VV10), updates on ESD,
                                                   ML-optimized integration grids, MBIS, APM,
                                                   GOAT, DOCKER, SOLVATOR, interface openCOSMO-RS
   S Lehtola, MJT Oliveira, MAL Marques          : LibXC Library
   Liviu Ungur et al                             : ANISO software


 Your calculation uses the libint2 library for the computation of 2-el integrals
 For citations please refer to: http://libint.valeyev.net

 Your ORCA version has been built with support for libXC version: 6.2.2
 For citations please refer to: https://libxc.gitlab.io

 This ORCA versions uses:
   CBLAS   interface :  Fast vector & matrix operations
   LAPACKE interface :  Fast linear algebra routines
   SCALAPACK package :  Parallel linear algebra routines
   Shared memory     :  Shared parallel matrices
   BLAS/LAPACK       :  OpenBLAS 0.3.27  USE64BITINT DYNAMIC_ARCH NO_AFFINITY SkylakeX SINGLE_THREADED
        Core in use  :  SkylakeX
   Copyright (c) 2011-2014, The OpenBLAS Project


Your calculation utilizes the geometrical counterpoise correction gCP
Please cite in your paper:
H.Kruse, S. Grimme J.Chem.Phys., 136, (2012), 154101 
   

Your calculation utilizes the atom-pairwise dispersion correction
based on EEQ partial charges (D4)


================================================================================

----- Orbital basis set information -----
Your calculation utilizes the basis: def2-mTZVPP
   Stefan Grimme, Andreas Hansen, Sebastian Ehlert, and Jan-Michael Mewes 
   J. Chem. Phys. 154, 064103 (2021). DOI: 10.1063/5.0040021

----- AuxJ basis set information -----
Your calculation utilizes the auxiliary basis: def2/J
   F. Weigend, Phys. Chem. Chem. Phys. 8, 1057 (2006).

================================================================================
                                        WARNINGS
                       Please study these warnings very carefully!
================================================================================

Using LibXC functional ID 497 : Re-regularized SCAN exchange by Furness et al
[ 1]  J. W. Furness, A. D. Kaplan, J. Ning, J. P. Perdew, and J. Sun.,  J. Phys. Chem. Lett. 11, 8208-8215 (2020)
[ 2]  J. W. Furness, A. D. Kaplan, J. Ning, J. P. Perdew, and J. Sun.,  J. Phys. Chem. Lett. 11, 9248-9248 (2020)
Using LibXC functional ID 498 : Re-regularized SCAN correlation by Furness et al
[ 1]  J. W. Furness, A. D. Kaplan, J. Ning, J. P. Perdew, and J. Sun.,  J. Phys. Chem. Lett. 11, 8208-8215 (2020)
[ 2]  J. W. Furness, A. D. Kaplan, J. Ning, J. P. Perdew, and J. Sun.,  J. Phys. Chem. Lett. 11, 9248-9248 (2020)
Using LibXC functional ID 497 : Re-regularized SCAN exchange by Furness et al
[ 1]  J. W. Furness, A. D. Kaplan, J. Ning, J. P. Perdew, and J. Sun.,  J. Phys. Chem. Lett. 11, 8208-8215 (2020)
[ 2]  J. W. Furness, A. D. Kaplan, J. Ning, J. P. Perdew, and J. Sun.,  J. Phys. Chem. Lett. 11, 9248-9248 (2020)
Using LibXC functional ID 498 : Re-regularized SCAN correlation by Furness et al
[ 1]  J. W. Furness, A. D. Kaplan, J. Ning, J. P. Perdew, and J. Sun.,  J. Phys. Chem. Lett. 11, 8208-8215 (2020)
[ 2]  J. W. Furness, A. D. Kaplan, J. Ning, J. P. Perdew, and J. Sun.,  J. Phys. Chem. Lett. 11, 9248-9248 (2020)

================================================================================
                                       INPUT FILE
================================================================================
NAME = sp_gas.inp
|  1> ! r2scan-3c def2/J RI DEFGRID2 scfconv6 printgap
|  2> %output
|  3>     printlevel normal
|  4> end
|  5> * xyz 0 1
|  6> C 2.3515383463 -0.2890183828 -0.0553991638
|  7> C 0.8495815953 -0.5429132168 0.0052319819
|  8> C 0.0642334931 0.7642685991 -0.0468486552
|  9> C -1.4253733338 0.6216634721 0.0082647275
| 10> C -2.1130460081 -0.5018926418 0.0941152182
| 11> H 2.6686247257 0.3278152335 0.7827376421
| 12> H 2.6150814678 0.2244552398 -0.977549277
| 13> H 2.8991842026 -1.2274853564 -0.0168849772
| 14> H 0.5558752823 -1.1757826339 -0.8345085964
| 15> H 0.6097536928 -1.0729868807 0.9290360654
| 16> H 0.3196817942 1.3016666303 -0.9659371232
| 17> H 0.3744217837 1.4041749719 0.785676004
| 18> H -1.9561388392 1.5658318473 -0.0292461501
| 19> H -3.1893992081 -0.4996043662 0.1279063136
| 20> H -1.6432006882 -1.4690074754 0.1348507727
| 21> *
| 22> 
| 23>                          ****END OF INPUT****
================================================================================

                       ****************************
                       * Single Point Calculation *
                       ****************************

---------------------------------
CARTESIAN COORDINATES (ANGSTROEM)
---------------------------------
  C      2.351538   -0.289018   -0.055399
  C      0.849582   -0.542913    0.005232
  C      0.064233    0.764269   -0.046849
  C     -1.425373    0.621663    0.008265
  C     -2.113046   -0.501893    0.094115
  H      2.668625    0.327815    0.782738
  H      2.615081    0.224455   -0.977549
  H      2.899184   -1.227485   -0.016885
  H      0.555875   -1.175783   -0.834509
  H      0.609754   -1.072987    0.929036
  H      0.319682    1.301667   -0.965937
  H      0.374422    1.404175    0.785676
  H     -1.956139    1.565832   -0.029246
  H     -3.189399   -0.499604    0.127906
  H     -1.643201   -1.469007    0.134851

----------------------------
CARTESIAN COORDINATES (A.U.)
----------------------------
  NO LB      ZA    FRAG     MASS         X           Y           Z
   0 C     6.0000    0    12.011    4.443763   -0.546166   -0.104689
   1 C     6.0000    0    12.011    1.605477   -1.025957    0.009887
   2 C     6.0000    0    12.011    0.121384    1.444258   -0.088531
   3 C     6.0000    0    12.011   -2.693565    1.174774    0.015618
   4 C     6.0000    0    12.011   -3.993078   -0.948440    0.177852
   5 H     1.0000    0     1.008    5.042970    0.619481    1.479160
   6 H     1.0000    0     1.008    4.941788    0.424159   -1.847300
   7 H     1.0000    0     1.008    5.478664   -2.319611   -0.031908
   8 H     1.0000    0     1.008    1.050452   -2.221907   -1.576993
   9 H     1.0000    0     1.008    1.152267   -2.027651    1.755624
  10 H     1.0000    0     1.008    0.604111    2.459793   -1.825357
  11 H     1.0000    0     1.008    0.707555    2.653506    1.484712
  12 H     1.0000    0     1.008   -3.696567    2.958993   -0.055267
  13 H     1.0000    0     1.008   -6.027091   -0.944115    0.241708
  14 H     1.0000    0     1.008   -3.105199   -2.776022    0.254831

--------------------------------
INTERNAL COORDINATES (ANGSTROEM)
--------------------------------
 C      0   0   0     0.000000000000     0.00000000     0.00000000
 C      1   0   0     1.524471319650     0.00000000     0.00000000
 C      2   1   0     1.525846759740   111.28816394     0.00000000
 C      3   2   1     1.497431870219   115.41459179   180.05642181
 C      4   3   2     1.320091797874   126.98845692   359.90918063
 H      1   2   3     1.087888223855   110.54576927    59.95457427
 H      1   2   3     1.087874519083   110.54847439   299.98432153
 H      1   2   3     1.087253230407   110.55423614   179.96462868
 H      2   1   3     1.091765238611   109.32938324   120.94032817
 H      2   1   3     1.091746077011   109.32621113   239.07104650
 H      3   2   1     1.094885423450   109.21141036    58.13822819
 H      3   2   1     1.094894629520   109.20332407   301.94988375
 H      4   3   2     1.083777194994   113.76198696   179.92786731
 H      5   4   3     1.076885920367   121.39279830   180.00105181
 H      5   4   3     1.075976352622   122.68344151     0.00000000

---------------------------
INTERNAL COORDINATES (A.U.)
---------------------------
 C      0   0   0     0.000000000000     0.00000000     0.00000000
 C      1   0   0     2.880833293156     0.00000000     0.00000000
 C      2   1   0     2.883432498240   111.28816394     0.00000000
 C      3   2   1     2.829736138919   115.41459179   180.05642181
 C      4   3   2     2.494611969618   126.98845692   359.90918063
 H      1   2   3     2.055810807404   110.54576927    59.95457427
 H      1   2   3     2.055784909139   110.54847439   299.98432153
 H      1   2   3     2.054610843690   110.55423614   179.96462868
 H      2   1   3     2.063137303511   109.32938324   120.94032817
 H      2   1   3     2.063101093334   109.32621113   239.07104650
 H      3   2   1     2.069033598343   109.21141036    58.13822819
 H      3   2   1     2.069050995294   109.20332407   301.94988375
 H      4   3   2     2.048042088728   113.76198696   179.92786731
 H      5   4   3     2.035019466969   121.39279830   180.00105181
 H      5   4   3     2.033300633031   122.68344151     0.00000000

---------------------
BASIS SET INFORMATION
---------------------
There are 2 groups of distinct atoms

 Group   1 Type C   : 11s6p1d contracted to 5s3p1d pattern {62111/411/1}
 Group   2 Type H   : 4s1p contracted to 2s1p pattern {31/1}

Atom   0C    basis set group =>   1
Atom   1C    basis set group =>   1
Atom   2C    basis set group =>   1
Atom   3C    basis set group =>   1
Atom   4C    basis set group =>   1
Atom   5H    basis set group =>   2
Atom   6H    basis set group =>   2
Atom   7H    basis set group =>   2
Atom   8H    basis set group =>   2
Atom   9H    basis set group =>   2
Atom  10H    basis set group =>   2
Atom  11H    basis set group =>   2
Atom  12H    basis set group =>   2
Atom  13H    basis set group =>   2
Atom  14H    basis set group =>   2
---------------------------------
AUXILIARY/J BASIS SET INFORMATION
---------------------------------
There are 2 groups of distinct atoms

 Group   1 Type C   : 12s5p4d2f1g contracted to 6s4p3d1f1g pattern {711111/2111/211/2/1}
 Group   2 Type H   : 5s2p1d contracted to 3s1p1d pattern {311/2/1}

Atom   0C    basis set group =>   1
Atom   1C    basis set group =>   1
Atom   2C    basis set group =>   1
Atom   3C    basis set group =>   1
Atom   4C    basis set group =>   1
Atom   5H    basis set group =>   2
Atom   6H    basis set group =>   2
Atom   7H    basis set group =>   2
Atom   8H    basis set group =>   2
Atom   9H    basis set group =>   2
Atom  10H    basis set group =>   2
Atom  11H    basis set group =>   2
Atom  12H    basis set group =>   2
Atom  13H    basis set group =>   2
Atom  14H    basis set group =>   2

Checking for AutoStart:
The File: sp_gas.gbw exists
Trying to determine its content:
     ... Fine, the file contains calculation information
     ... Fine, the calculation information was read
     ... Fine, the file contains a basis set
     ... Fine, the basis set was read
     ... Fine, the file contains a geometry
     ... Fine, the geometry was read
     ... Fine, the file contains a set of orbitals
     ... Fine, the orbitals can be read
     => possible old guess file was deleted
     => GBW file was renamed to GES file
     => GES file is set as startup file
     => Guess is set to MORead
     ... now leaving AutoStart

------------------------------------------------------------------------------
                             ORCA STARTUP CALCULATIONS
                           -- RI-GTO INTEGRALS CHOSEN --
------------------------------------------------------------------------------
------------------------------------------------------------------------------
                   ___                                                        
                  /   \      - P O W E R E D   B Y -                         
                 /     \                                                     
                 |  |  |   _    _      __       _____    __    __             
                 |  |  |  | |  | |    /  \     |  _  \  |  |  /  |          
                  \  \/   | |  | |   /    \    | | | |  |  | /  /          
                 / \  \   | |__| |  /  /\  \   | |_| |  |  |/  /          
                |  |  |   |  __  | /  /__\  \  |    /   |      \           
                |  |  |   | |  | | |   __   |  |    \   |  |\   \          
                \     /   | |  | | |  |  |  |  | |\  \  |  | \   \       
                 \___/    |_|  |_| |__|  |__|  |_| \__\ |__|  \__/        
                                                                              
                      - O R C A' S   B I G   F R I E N D -                    
                                      &                                       
                       - I N T E G R A L  F E E D E R -                       
                                                                              
 v1 FN, 2020, v2 2021, v3 2022-2024                                           
------------------------------------------------------------------------------


----------------------
SHARK INTEGRAL PACKAGE
----------------------

Number of atoms                             ...     15
Number of basis functions                   ...    145
Number of shells                            ...     75
Maximum angular momentum                    ...      2
Integral batch strategy                     ... SHARK/LIBINT Hybrid
RI-J (if used) integral strategy            ... SPLIT-RIJ (Revised 2003 algorithm where possible)
Printlevel                                  ...      1
Contraction scheme used                     ... SEGMENTED contraction
Prescreening option                         ... SCHWARTZ
   Thresh                                   ... 1.000e-10
   Tcut                                     ... 1.000e-11
   Tpresel                                  ... 1.000e-11 
Coulomb Range Separation                    ... NOT USED
Exchange Range Separation                   ... NOT USED
Multipole approximations                    ... NOT USED
Finite Nucleus Model                        ... NOT USED
CABS basis                                  ... NOT available
Auxiliary Coulomb fitting basis             ... AVAILABLE
   # of basis functions in Aux-J            ...    355
   # of shells in Aux-J                     ...    125
   Maximum angular momentum in Aux-J        ...      4
Auxiliary J/K fitting basis                 ... NOT available
Auxiliary Correlation fitting basis         ... NOT available
Auxiliary 'external' fitting basis          ... NOT available

Checking pre-screening integrals            ... done (  0.0 sec) Dimension = 75
Check shell pair data                       ... done (  0.0 sec)
Shell pair information
Shell pair cut-off parameter TPreSel        ...   1.0e-11
Total number of shell pairs                 ...      2850
Shell pairs after pre-screening             ...      2671
Total number of primitive shell pairs       ...     10010
Primitive shell pairs kept                  ...      7120
          la=0 lb=0:    964 shell pairs
          la=1 lb=0:   1054 shell pairs
          la=1 lb=1:    307 shell pairs
          la=2 lb=0:    212 shell pairs
          la=2 lb=1:    119 shell pairs
          la=2 lb=2:     15 shell pairs

Calculating one electron integrals          ... done (  0.0 sec)
Calculating RI/J V-Matrix + Cholesky decomp.... done (  0.0 sec)
Calculating Nuclear repulsion               ... done (  0.0 sec) ENN=    172.873876313443 Eh

Diagonalization of the overlap matrix:
Smallest eigenvalue                        ... 1.477e-04
Time for diagonalization                   ...    0.005 sec
Threshold for overlap eigenvalues          ... 1.000e-07
Number of eigenvalues below threshold      ... 0
Time for construction of square roots      ...    0.017 sec
Total time needed                          ...    0.032 sec

-------------------
DFT GRID GENERATION
-------------------

General Integration Accuracy     IntAcc      ... 4.388
Radial Grid Type                 RadialGrid  ... OptM3 with GC (2021)
Angular Grid (max. ang.)         AngularGrid ... 4 (Lebedev-302)
Angular grid pruning method      GridPruning ... 4 (adaptive)
Weight generation scheme         WeightScheme... mBecke (2022)
Basis function cutoff            BFCut       ... 1.0000e-10
Integration weight cutoff        WCut        ... 1.0000e-14
Partially contracted basis set               ... off
Rotationally invariant grid construction     ... off
Angular grids for H and He will be reduced by one unit

Total number of grid points                  ...    62328
Total number of batches                      ...      981
Average number of points per batch           ...       63
Average number of grid points per atom       ...     4155
Initializing property integral containers    ... done (  0.0 sec)

SHARK setup successfully completed in   0.8 seconds

Maximum memory used throughout the entire STARTUP-calculation: 25.7 MB
-------------------------------------------------------------------------------
                                 ORCA GUESS
                   Start orbitals & Density for SCF / CASSCF
-------------------------------------------------------------------------------

------------
SCF SETTINGS
------------
Hamiltonian:
 Density Functional     Method          .... DFT(GTOs)
  Functional kind                       .... Exchange
  Functional name                       .... Re-regularized SCAN exchange by Furness et al
  Functional family                     .... MGGA
  Functional refs                              
    [ 0] J. W. Furness, A. D. Kaplan, J. Ning, J. P. Perdew, and J. Sun.,  J. Phys. Chem. Lett. 11, 8208-8215 (2020), doi: 10.1021/acs.jpclett.0c02405
    [ 1] J. W. Furness, A. D. Kaplan, J. Ning, J. P. Perdew, and J. Sun.,  J. Phys. Chem. Lett. 11, 9248-9248 (2020), doi: 10.1021/acs.jpclett.0c03077
  Functional external parameters        .... 6
    Parameter  0 _c1        =  6.670000e-01 : c1 parameter        
    Parameter  1 _c2        =  8.000000e-01 : c2 parameter        
    Parameter  2 _d         =  1.240000e+00 : d parameter         
    Parameter  3 _k1        =  6.500000e-02 : k1 parameter        
    Parameter  4 _eta       =  1.000000e-03 : eta parameter       
    Parameter  5 _dp2       =  3.610000e-01 : dp2 parameter       
  Functional kind                       .... Correlation
  Functional name                       .... Re-regularized SCAN correlation by Furness et al
  Functional family                     .... MGGA
  Functional refs                              
    [ 0] J. W. Furness, A. D. Kaplan, J. Ning, J. P. Perdew, and J. Sun.,  J. Phys. Chem. Lett. 11, 8208-8215 (2020), doi: 10.1021/acs.jpclett.0c02405
    [ 1] J. W. Furness, A. D. Kaplan, J. Ning, J. P. Perdew, and J. Sun.,  J. Phys. Chem. Lett. 11, 9248-9248 (2020), doi: 10.1021/acs.jpclett.0c03077
  Functional external parameters        .... 1
    Parameter  0 _eta       =  1.000000e-03 : Regularization parameter
 Gradients option       PostSCFGGA      .... off
 RI-approximation to the Coulomb term is turned on
   Number of AuxJ basis functions       .... 355


General Settings:
 Integral files         IntName         .... sp_gas
 Hartree-Fock type      HFTyp           .... RHF
 Total Charge           Charge          ....    0
 Multiplicity           Mult            ....    1
 Number of Electrons    NEL             ....   40
 Basis Dimension        Dim             ....  145
 Nuclear Repulsion      ENuc            ....    172.8738763134 Eh

Convergence Acceleration:
 AO-DIIS                CNVDIIS         .... on
   Start iteration      DIISMaxIt       ....    12
   Startup error        DIISStart       ....  0.200000
   # of expansion vecs  DIISMaxEq       ....     5
   Bias factor          DIISBfac        ....   1.050
   Max. coefficient     DIISMaxC        ....  10.000
 MO-DIIS                CNVKDIIS        .... off
 Trust-Rad. Augm. Hess. CNVTRAH         .... auto
   Auto Start mean grad. ratio tolernc. ....  1.125000
   Auto Start start iteration           ....     1
   Auto Start num. interpolation iter.  ....    10
   Max. Number of Micro iterations      ....    24
   Max. Number of Macro iterations      .... Maxiter - #DIIS iter
   Number of Davidson start vectors     ....     2
   Converg. threshold    (grad. norm)   ....   3.330e-04
   Grad. Scal. Fac. for Micro threshold ....   0.100
   Minimum threshold for Micro iter.    ....   1.000e-02
   NR start threshold (gradient norm)   ....   1.000e-04
   Initial trust radius                 ....   0.400
   Minimum AH scaling param. (alpha)    ....   1.000
   Maximum AH scaling param. (alpha)    .... 1000.000
   Quad. conv. algorithm                .... NR
   White noise on init. David. guess    .... on
   Maximum white noise                  ....   0.010
   Pseudo random numbers                .... off
   Inactive MOs                         .... canonical
   Orbital update algorithm             .... Taylor
   Preconditioner                       .... Diag
   Full preconditioner red. dimension   ....   250
   COSX micro iterations for RIJONX calc.... off
 SOSCF                  CNVSOSCF        .... on
   Start iteration      SOSCFMaxIt      ....   150
   Startup grad/error   SOSCFStart      ....  0.003300
   Hessian update       SOSCFHessUp     .... L-BFGS
 Level Shifting         CNVShift        .... on
   Level shift para.    LevelShift      ....    0.2500
   Turn off err/grad.   ShiftErr        ....    0.0010
 Zerner damping         CNVZerner       .... off
 Static damping         CNVDamp         .... on
   Fraction old density DampFac         ....    0.7000
   Max. Damping (<1)    DampMax         ....    0.9800
   Min. Damping (>=0)   DampMin         ....    0.0000
   Turn off err/grad.   DampErr         ....    0.1000

SCF Procedure:
 Maximum # iterations   MaxIter         ....   125
 SCF integral mode      SCFMode         .... Direct
   Integral package                     .... SHARK and LIBINT hybrid scheme
 Reset frequency        DirectResetFreq ....    20
 Integral Threshold     Thresh          ....  1.000e-10 Eh
 Primitive CutOff       TCut            ....  1.000e-11 Eh

Convergence Tolerance:
 Convergence Check Mode ConvCheckMode   .... Total+1el-Energy
 Convergence forced     ConvForced      .... 0
 Energy Change          TolE            ....  1.000e-06 Eh
 1-El. energy change                    ....  1.000e-03 Eh
 Orbital Gradient       TolG            ....  3.330e-04
 Orbital Rotation angle TolX            ....  3.330e-04
 DIIS Error             TolErr          ....  1.000e-06

---------------------
INITIAL GUESS: MOREAD
---------------------
Guess MOs are being read from file: sp_gas.ges
Input Geometry matches current geometry (good)
Atom 0: N(Shells)= 9 and 6 - projection required
Input basis set needs projection
NBasis(read)= 90
NBasis(calc)= 145
Basis set overlap was calculated
Using GuessMode=FMatrix for the initial guess
C*T matrix was formed
Effective Fockian was calculated
Effective Fockian was diagonalized
Initial density was built
                      ------------------
                      INITIAL GUESS DONE (   0.0 sec)
                      ------------------
             **** ENERGY FILE WAS UPDATED (sp_gas.en.tmp) ****
Finished Guess after   0.2 sec
Maximum memory used throughout the entire GUESS-calculation: 10.0 MB

-------------------------------------------------------------------------------------------
                                      ORCA LEAN-SCF
                              memory conserving SCF solver
-------------------------------------------------------------------------------------------

----------------------------------------D-I-I-S--------------------------------------------
Iteration    Energy (Eh)           Delta-E    RMSDP     MaxDP     DIISErr   Damp  Time(sec)
-------------------------------------------------------------------------------------------
               ***  Starting incremental Fock matrix formation  ***
    1    -196.3596039669049844     0.00e+00  5.17e-03  1.62e-01  2.80e-01  0.700   1.6
    2    -196.3895507452610616    -2.99e-02  3.99e-03  1.04e-01  1.97e-01  0.700   1.3
                               ***Turning on AO-DIIS***
    3    -196.4107602665083334    -2.12e-02  2.90e-03  6.84e-02  1.38e-01  0.700   1.2
    4    -196.4256579714242719    -1.49e-02  2.06e-03  4.68e-02  9.64e-02  0.700   1.2
    5    -196.4361116564224119    -1.05e-02  4.83e-03  1.08e-01  6.75e-02  0.000   1.1
                              *** Initializing SOSCF ***
---------------------------------------S-O-S-C-F--------------------------------------
Iteration    Energy (Eh)           Delta-E    RMSDP     MaxDP     MaxGrad    Time(sec)
--------------------------------------------------------------------------------------
    6    -196.4605936199606333    -2.45e-02  4.80e-05  1.02e-03  2.43e-04     1.3
               *** Restarting incremental Fock matrix formation ***
    7    -196.4605941474794975    -5.28e-07  2.13e-05  3.46e-04  1.48e-04     1.3
    8    -196.4605937332782730     4.14e-07  9.55e-06  2.12e-04  3.31e-04     1.1
                 **** Energy Check signals convergence ****

               *****************************************************
               *                     SUCCESS                       *
               *           SCF CONVERGED AFTER   8 CYCLES          *
               *****************************************************

             **** ENERGY FILE WAS UPDATED (sp_gas.en.tmp) ****

----------------
TOTAL SCF ENERGY
----------------

Total Energy       :       -196.46059373327827 Eh           -5345.96454 eV

Components:
Nuclear Repulsion  :        172.87387631344265 Eh            4704.13733 eV
Electronic Energy  :       -369.33447004672098 Eh          -10050.10187 eV
One Electron Energy:       -604.87613090413981 Eh          -16459.51631 eV
Two Electron Energy:        235.54166085741886 Eh            6409.41444 eV

Virial components:
Potential Energy   :       -392.03079855579597 Eh          -10667.70036 eV
Kinetic Energy     :        195.57020482251772 Eh            5321.73583 eV
Virial Ratio       :          2.00455278405813

DFT components:
N(Alpha)           :       19.999994390405 electrons
N(Beta)            :       19.999994390405 electrons
N(Total)           :       39.999988780810 electrons
E(X)               :      -29.561609870703 Eh       
E(C)               :       -1.224195771513 Eh       
E(XC)              :      -30.785805642215 Eh       

---------------
SCF CONVERGENCE
---------------

  Last Energy change         ...   -4.1420e-07  Tolerance :   1.0000e-06
  Last MAX-Density change    ...    2.1154e-04  Tolerance :   1.0000e-05
  Last RMS-Density change    ...    9.5515e-06  Tolerance :   1.0000e-06
  Last DIIS Error            ...    2.4347e-04  Tolerance :   1.0000e-06
  Last Orbital Gradient      ...    3.3109e-04  Tolerance :   3.3300e-04
  Last Orbital Rotation      ...    4.4689e-04  Tolerance :   3.3300e-04


----------------
ORBITAL ENERGIES
----------------

  NO   OCC          E(Eh)            E(eV) 
   0   2.0000     -10.032020      -272.9851 
   1   2.0000     -10.031284      -272.9651 
   2   2.0000     -10.026142      -272.8252 
   3   2.0000     -10.017496      -272.5899 
   4   2.0000     -10.014714      -272.5142 
   5   2.0000      -0.775914       -21.1137 
   6   2.0000      -0.719323       -19.5738 
   7   2.0000      -0.645992       -17.5783 
   8   2.0000      -0.572626       -15.5820 
   9   2.0000      -0.505302       -13.7500 
  10   2.0000      -0.436808       -11.8862 
  11   2.0000      -0.434854       -11.8330 
  12   2.0000      -0.405932       -11.0460 
  13   2.0000      -0.364219        -9.9109 
  14   2.0000      -0.357763        -9.7352 
  15   2.0000      -0.342272        -9.3137 
  16   2.0000      -0.308635        -8.3984 
  17   2.0000      -0.303989        -8.2720 
  18   2.0000      -0.290366        -7.9012 
  19   2.0000      -0.234858        -6.3908 
  20   0.0000      -0.006637        -0.1806 
  21   0.0000       0.095671         2.6033 
  22   0.0000       0.113530         3.0893 
  23   0.0000       0.125244         3.4081 
  24   0.0000       0.146984         3.9996 
  25   0.0000       0.151640         4.1263 
  26   0.0000       0.159877         4.3505 
  27   0.0000       0.164692         4.4815 
  28   0.0000       0.170527         4.6403 
  29   0.0000       0.183361         4.9895 
  30   0.0000       0.194627         5.2961 
*Only the first 10 virtual orbitals were printed.

                    ********************************
                    * MULLIKEN POPULATION ANALYSIS *
                    ********************************

-----------------------
MULLIKEN ATOMIC CHARGES
-----------------------
   0 C :   -0.462819
   1 C :   -0.286211
   2 C :   -0.214891
   3 C :   -0.144175
   4 C :   -0.324510
   5 H :    0.140250
   6 H :    0.140281
   7 H :    0.147616
   8 H :    0.146613
   9 H :    0.146709
  10 H :    0.142754
  11 H :    0.142671
  12 H :    0.147699
  13 H :    0.137896
  14 H :    0.140117
Sum of atomic charges:    0.0000000

--------------------------------
MULLIKEN REDUCED ORBITAL CHARGES
--------------------------------
  0 C s       :     3.325336  s :     3.325336
      pz      :     1.074029  p :     3.110323
      px      :     0.942998
      py      :     1.093296
      dz2     :     0.004935  d :     0.027160
      dxz     :     0.004529
      dyz     :     0.005411
      dx2y2   :     0.005361
      dxy     :     0.006925

  1 C s       :     3.252235  s :     3.252235
      pz      :     1.091117  p :     2.997237
      px      :     0.937975
      py      :     0.968145
      dz2     :     0.005742  d :     0.036738
      dxz     :     0.004938
      dyz     :     0.008927
      dx2y2   :     0.008370
      dxy     :     0.008759

  2 C s       :     3.222526  s :     3.222526
      pz      :     1.062884  p :     2.954622
      px      :     0.933812
      py      :     0.957926
      dz2     :     0.005537  d :     0.037743
      dxz     :     0.005112
      dyz     :     0.009197
      dx2y2   :     0.009821
      dxy     :     0.008075

  3 C s       :     3.183241  s :     3.183241
      pz      :     0.959862  p :     2.922805
      px      :     0.930211
      py      :     1.032732
      dz2     :     0.003016  d :     0.038129
      dxz     :     0.005382
      dyz     :     0.004582
      dx2y2   :     0.012443
      dxy     :     0.012706

  4 C s       :     3.249972  s :     3.249972
      pz      :     1.039979  p :     3.048203
      px      :     1.022792
      py      :     0.985432
      dz2     :     0.002671  d :     0.026335
      dxz     :     0.001421
      dyz     :     0.003700
      dx2y2   :     0.010752
      dxy     :     0.007792

  5 H s       :     0.841480  s :     0.841480
      pz      :     0.007912  p :     0.018270
      px      :     0.004276
      py      :     0.006082

  6 H s       :     0.841448  s :     0.841448
      pz      :     0.008829  p :     0.018271
      px      :     0.004071
      py      :     0.005370

  7 H s       :     0.834067  s :     0.834067
      pz      :     0.003765  p :     0.018317
      px      :     0.005582
      py      :     0.008970

  8 H s       :     0.835454  s :     0.835454
      pz      :     0.007848  p :     0.017933
      px      :     0.004041
      py      :     0.006044

  9 H s       :     0.835358  s :     0.835358
      pz      :     0.008798  p :     0.017934
      px      :     0.003851
      py      :     0.005284

 10 H s       :     0.839246  s :     0.839246
      pz      :     0.008766  p :     0.018000
      px      :     0.003848
      py      :     0.005385

 11 H s       :     0.839331  s :     0.839331
      pz      :     0.007826  p :     0.017999
      px      :     0.004043
      py      :     0.006130

 12 H s       :     0.833204  s :     0.833204
      pz      :     0.004000  p :     0.019097
      px      :     0.005525
      py      :     0.009571

 13 H s       :     0.842257  s :     0.842257
      pz      :     0.004549  p :     0.019847
      px      :     0.011998
      py      :     0.003300

 14 H s       :     0.839784  s :     0.839784
      pz      :     0.004544  p :     0.020099
      px      :     0.005229
      py      :     0.010326


------------------------
MULLIKEN OVERLAP CHARGES
------------------------
B(  0-C ,  1-C ) :   0.5310 B(  0-C ,  2-C ) :  -0.2219 B(  0-C ,  5-H ) :   0.8497 
B(  0-C ,  6-H ) :   0.8497 B(  0-C ,  7-H ) :   0.8165 B(  0-C ,  8-H ) :  -0.0607 
B(  0-C ,  9-H ) :  -0.0610 B(  1-C ,  2-C ) :   0.4786 B(  1-C ,  3-C ) :  -0.0709 
B(  1-C ,  5-H ) :  -0.0860 B(  1-C ,  6-H ) :  -0.0859 B(  1-C ,  7-H ) :  -0.0892 
B(  1-C ,  8-H ) :   0.8477 B(  1-C ,  9-H ) :   0.8487 B(  1-C , 10-H ) :  -0.0879 
B(  1-C , 11-H ) :  -0.0885 B(  2-C ,  3-C ) :   0.4743 B(  2-C ,  4-C ) :  -0.1463 
B(  2-C ,  8-H ) :  -0.0848 B(  2-C ,  9-H ) :  -0.0858 B(  2-C , 10-H ) :   0.8551 
B(  2-C , 11-H ) :   0.8561 B(  2-C , 12-H ) :  -0.0650 B(  3-C ,  4-C ) :   1.2378 
B(  3-C , 10-H ) :  -0.0828 B(  3-C , 11-H ) :  -0.0833 B(  3-C , 12-H ) :   0.7916 
B(  3-C , 13-H ) :  -0.0678 B(  3-C , 14-H ) :  -0.1017 B(  4-C , 13-H ) :   0.8118 
B(  4-C , 14-H ) :   0.8554 B(  5-H ,  6-H ) :  -0.0543 B(  8-H ,  9-H ) :  -0.0561 
B( 10-H , 11-H ) :  -0.0649 B( 13-H , 14-H ) :  -0.0554 


                     *******************************
                     * LOEWDIN POPULATION ANALYSIS *
                     *******************************

----------------------
LOEWDIN ATOMIC CHARGES
----------------------
   0 C :   -0.423411
   1 C :   -0.315548
   2 C :   -0.302015
   3 C :   -0.192199
   4 C :   -0.325828
   5 H :    0.149978
   6 H :    0.149982
   7 H :    0.150617
   8 H :    0.154580
   9 H :    0.154588
  10 H :    0.164195
  11 H :    0.164167
  12 H :    0.158846
  13 H :    0.156345
  14 H :    0.155703

-------------------------------
LOEWDIN REDUCED ORBITAL CHARGES
-------------------------------
  0 C s       :     2.973429  s :     2.973429
      pz      :     1.156262  p :     3.386411
      px      :     1.075913
      py      :     1.154236
      dz2     :     0.012448  d :     0.063571
      dxz     :     0.009163
      dyz     :     0.013897
      dx2y2   :     0.012554
      dxy     :     0.015509

  1 C s       :     2.936014  s :     2.936014
      pz      :     1.146045  p :     3.299945
      px      :     1.059484
      py      :     1.094416
      dz2     :     0.013593  d :     0.079588
      dxz     :     0.009286
      dyz     :     0.020490
      dx2y2   :     0.018010
      dxy     :     0.018209

  2 C s       :     2.927271  s :     2.927271
      pz      :     1.132883  p :     3.293230
      px      :     1.066687
      py      :     1.093659
      dz2     :     0.013281  d :     0.081515
      dxz     :     0.009957
      dyz     :     0.020483
      dx2y2   :     0.020664
      dxy     :     0.017130

  3 C s       :     2.935618  s :     2.935618
      pz      :     0.949657  p :     3.174839
      px      :     1.083783
      py      :     1.141399
      dz2     :     0.005199  d :     0.081743
      dxz     :     0.009154
      dyz     :     0.007806
      dx2y2   :     0.029331
      dxy     :     0.030253

  4 C s       :     2.975235  s :     2.975235
      pz      :     1.031742  p :     3.288687
      px      :     1.126729
      py      :     1.130217
      dz2     :     0.004316  d :     0.061906
      dxz     :     0.002400
      dyz     :     0.006378
      dx2y2   :     0.027684
      dxy     :     0.021128

  5 H s       :     0.806738  s :     0.806738
      pz      :     0.019336  p :     0.043283
      px      :     0.009649
      py      :     0.014299

  6 H s       :     0.806733  s :     0.806733
      pz      :     0.021735  p :     0.043285
      px      :     0.009139
      py      :     0.012411

  7 H s       :     0.805973  s :     0.805973
      pz      :     0.008102  p :     0.043410
      px      :     0.013053
      py      :     0.022255

  8 H s       :     0.802120  s :     0.802120
      pz      :     0.019323  p :     0.043299
      px      :     0.009490
      py      :     0.014487

  9 H s       :     0.802111  s :     0.802111
      pz      :     0.021722  p :     0.043301
      px      :     0.009012
      py      :     0.012568

 10 H s       :     0.792685  s :     0.792685
      pz      :     0.021539  p :     0.043121
      px      :     0.008911
      py      :     0.012670

 11 H s       :     0.792716  s :     0.792716
      pz      :     0.019147  p :     0.043117
      px      :     0.009397
      py      :     0.014573

 12 H s       :     0.796904  s :     0.796904
      pz      :     0.008605  p :     0.044250
      px      :     0.013162
      py      :     0.022482

 13 H s       :     0.798193  s :     0.798193
      pz      :     0.009820  p :     0.045462
      px      :     0.028493
      py      :     0.007150

 14 H s       :     0.798122  s :     0.798122
      pz      :     0.009797  p :     0.046176
      px      :     0.012226
      py      :     0.024152


---------------------------------
LOEWDIN BOND ORDERS (THRESH 0.050000)
---------------------------------
B(  0-C ,  1-C ) :   1.1459 B(  0-C ,  2-C ) :   0.0762 B(  0-C ,  5-H ) :   0.9293 
B(  0-C ,  6-H ) :   0.9293 B(  0-C ,  7-H ) :   0.9306 B(  1-C ,  2-C ) :   1.0983 
B(  1-C ,  3-C ) :   0.0644 B(  1-C ,  8-H ) :   0.8938 B(  1-C ,  9-H ) :   0.8938 
B(  2-C ,  3-C ) :   1.1356 B(  2-C ,  4-C ) :   0.0930 B(  2-C , 10-H ) :   0.8752 
B(  2-C , 11-H ) :   0.8752 B(  3-C ,  4-C ) :   2.0689 B(  3-C , 12-H ) :   0.8773 
B(  3-C , 13-H ) :   0.0675 B(  3-C , 14-H ) :   0.0586 B(  4-C , 12-H ) :   0.0590 
B(  4-C , 13-H ) :   0.9159 B(  4-C , 14-H ) :   0.9102 

------------------------------------------
LOEWDIN REDUCED ORBITAL POPULATIONS PER MO
-------------------------------------------
THRESHOLD FOR PRINTING IS 0.1%%
                      0         1         2         3         4         5   
                 -10.03202 -10.03128 -10.02614 -10.01750 -10.01471  -0.77591
                   2.00000   2.00000   2.00000   2.00000   2.00000   2.00000
                  --------  --------  --------  --------  --------  --------
 0 C  s               0.0       0.0       0.0      99.7       0.0       6.3
 0 C  px              0.0       0.0       0.1       0.0       0.0       2.1
 1 C  s               0.0       0.0      99.7       0.0       0.0      16.5
 1 C  px              0.0       0.0       0.0       0.1       0.0       0.2
 1 C  py              0.0       0.1       0.0       0.0       0.0       1.8
 2 C  s               1.3      98.4       0.0       0.0       0.0      22.3
 2 C  px              0.1       0.0       0.0       0.0       0.0       0.3
 2 C  py              0.0       0.0       0.1       0.0       0.0       1.3
 3 C  s              98.3       1.3       0.0       0.0       0.1      17.5
 3 C  px              0.0       0.1       0.0       0.0       0.0       1.5
 3 C  py              0.0       0.0       0.0       0.0       0.1       0.5
 3 C  dz2             0.0       0.0       0.0       0.0       0.0       0.1
 4 C  s               0.1       0.0       0.0       0.0      99.6       8.2
 4 C  px              0.0       0.0       0.0       0.0       0.0       1.3
 4 C  py              0.1       0.0       0.0       0.0       0.0       1.7
 5 H  s               0.0       0.0       0.0       0.0       0.0       0.8
 6 H  s               0.0       0.0       0.0       0.0       0.0       0.8
 7 H  s               0.0       0.0       0.0       0.0       0.0       0.8
 8 H  s               0.0       0.0       0.0       0.0       0.0       2.1
 8 H  pz              0.0       0.0       0.0       0.0       0.0       0.1
 9 H  s               0.0       0.0       0.0       0.0       0.0       2.1
 9 H  pz              0.0       0.0       0.0       0.0       0.0       0.1
10 H  s               0.0       0.0       0.0       0.0       0.0       2.9
10 H  pz              0.0       0.0       0.0       0.0       0.0       0.2
11 H  s               0.0       0.0       0.0       0.0       0.0       2.9
11 H  pz              0.0       0.0       0.0       0.0       0.0       0.2
12 H  s               0.0       0.0       0.0       0.0       0.0       2.1
12 H  py              0.0       0.0       0.0       0.0       0.0       0.1
13 H  s               0.0       0.0       0.0       0.0       0.0       0.9
14 H  s               0.0       0.0       0.0       0.0       0.0       1.1

                      6         7         8         9        10        11   
                  -0.71932  -0.64599  -0.57263  -0.50530  -0.43681  -0.43485
                   2.00000   2.00000   2.00000   2.00000   2.00000   2.00000
                  --------  --------  --------  --------  --------  --------
 0 C  s              16.8      14.3       9.9       0.1       0.0       0.4
 0 C  pz              0.0       0.0       0.0       0.0      14.4       0.0
 0 C  px              1.1       0.6       7.0       0.7       0.0       5.5
 0 C  py              0.0       0.1       0.7       2.1       0.1       0.2
 0 C  dx2y2           0.0       0.0       0.1       0.0       0.0       0.1
 1 C  s              12.6       0.0      13.5       2.6       0.0       0.9
 1 C  pz              0.0       0.0       0.0       0.0      29.2       0.0
 1 C  px              3.7       6.4       4.5       0.0       0.0       2.9
 1 C  py              0.0       2.2       2.8       7.3       0.1       0.5
 1 C  dx2y2           0.0       0.2       0.1       0.0       0.0       0.0
 1 C  dxy             0.0       0.1       0.0       0.0       0.0       0.0
 2 C  s               0.0      16.4       1.1       4.4       0.0       0.1
 2 C  pz              0.0       0.0       0.0       0.0      23.3       0.0
 2 C  px              7.5       0.0       2.6       6.3       0.0       8.0
 2 C  py              0.9       0.8       7.8       2.3       0.1       4.1
 2 C  dz2             0.0       0.0       0.0       0.1       0.0       0.0
 2 C  dx2y2           0.1       0.0       0.2       0.1       0.0       0.0
 2 C  dxy             0.1       0.0       0.1       0.0       0.0       0.1
 3 C  s              15.1       0.3       3.7       8.8       0.0       0.3
 3 C  pz              0.0       0.1       0.0       0.0       2.8       0.0
 3 C  px              1.7      11.3       0.5       1.0       0.0      13.9
 3 C  py              1.4       4.7       5.5       4.9       0.0      10.7
 3 C  dx2y2           0.0       0.2       0.0       0.0       0.0       0.0
 3 C  dxy             0.1       0.1       0.0       0.1       0.0       0.0
 4 C  s              15.6      14.0       2.7       7.2       0.0       0.2
 4 C  pz              0.0       0.0       0.0       0.1       0.5       0.0
 4 C  px              0.4       0.2       0.1       2.4       0.0      24.6
 4 C  py              1.9       0.2       2.4      13.0       0.0       2.7
 4 C  dxy             0.1       0.0       0.0       0.1       0.0       0.0
 5 H  s               2.8       3.3       4.4       0.5       3.1       0.3
 5 H  pz              0.1       0.2       0.2       0.0       0.0       0.0
 6 H  s               2.8       3.3       4.4       0.5       3.1       0.3
 6 H  pz              0.2       0.2       0.3       0.0       0.0       0.0
 7 H  s               2.8       3.9       3.8       0.0       0.0       1.5
 7 H  py              0.2       0.2       0.3       0.0       0.0       0.1
 8 H  s               1.9       0.0       5.9       2.4       5.9       0.0
 8 H  pz              0.1       0.0       0.3       0.1       0.0       0.0
 8 H  py              0.1       0.0       0.1       0.0       0.2       0.0
 9 H  s               1.9       0.0       5.9       2.4       5.9       0.0
 9 H  pz              0.1       0.0       0.4       0.1       0.1       0.0
 9 H  py              0.0       0.0       0.1       0.0       0.2       0.0
10 H  s               0.0       4.3       1.0       3.7       5.1       1.1
10 H  pz              0.0       0.3       0.1       0.2       0.0       0.1
10 H  py              0.0       0.1       0.0       0.0       0.1       0.0
11 H  s               0.0       4.3       1.0       3.7       5.1       1.1
11 H  pz              0.0       0.2       0.1       0.2       0.0       0.1
11 H  py              0.0       0.1       0.0       0.1       0.1       0.0
12 H  s               2.4       0.0       2.6       8.2       0.0       6.5
12 H  px              0.0       0.0       0.1       0.1       0.0       0.0
12 H  py              0.2       0.0       0.1       0.4       0.0       0.2
13 H  s               2.4       3.6       1.0       5.3       0.0       9.4
13 H  px              0.2       0.3       0.1       0.3       0.0       0.3
14 H  s               2.0       2.9       2.1       7.4       0.0       3.1
14 H  px              0.0       0.0       0.0       0.2       0.0       0.0
14 H  py              0.2       0.2       0.1       0.3       0.0       0.2

                     12        13        14        15        16        17   
                  -0.40593  -0.36422  -0.35776  -0.34227  -0.30863  -0.30399
                   2.00000   2.00000   2.00000   2.00000   2.00000   2.00000
                  --------  --------  --------  --------  --------  --------
 0 C  s               0.0       0.0       0.0       0.2       0.8       0.0
 0 C  pz              0.0      29.2       0.1       0.0       0.1      13.9
 0 C  px              1.4       0.0       0.1      19.7      10.6       0.0
 0 C  py             15.9       0.1      27.7       0.1       5.5       0.0
 0 C  dz2             0.0       0.0       0.2       0.0       0.1       0.0
 0 C  dxz             0.0       0.0       0.0       0.0       0.0       0.4
 0 C  dyz             0.0       0.2       0.0       0.0       0.0       0.4
 0 C  dx2y2           0.0       0.0       0.0       0.1       0.1       0.0
 0 C  dxy             0.0       0.0       0.2       0.0       0.1       0.0
 1 C  s               0.1       0.0       0.2       0.0       0.6       0.0
 1 C  pz              0.0       1.7       0.0       0.0       0.1      26.2
 1 C  px              0.0       0.0       1.3      20.3       7.7       0.0
 1 C  py             14.3       0.0       0.2       0.0      14.3       0.1
 1 C  dz2             0.1       0.0       0.0       0.0       0.3       0.0
 1 C  dxz             0.0       0.2       0.0       0.0       0.0       0.3
 1 C  dyz             0.0       0.1       0.0       0.0       0.0       0.8
 1 C  dx2y2           0.0       0.0       0.0       0.1       0.4       0.0
 1 C  dxy             0.0       0.0       0.1       0.2       0.2       0.0
 2 C  s               0.1       0.0       0.6       0.9       0.7       0.0
 2 C  pz              0.0      24.5       0.0       0.0       0.1       4.9
 2 C  px              6.4       0.0       2.8       0.9       5.2       0.0
 2 C  py              6.2       0.1       2.6       9.3      12.2       0.0
 2 C  dz2             0.0       0.0       0.1       0.0       0.2       0.0
 2 C  dyz             0.0       0.3       0.0       0.0       0.0       0.5
 2 C  dx2y2           0.0       0.0       0.1       0.1       0.4       0.0
 2 C  dxy             0.0       0.0       0.2       0.0       0.2       0.0
 3 C  s               0.3       0.0       0.3       0.2       0.4       0.0
 3 C  pz              0.1       6.5       0.1       0.0       0.0       2.0
 3 C  px              4.1       0.0       1.6       0.9       8.3       0.0
 3 C  py             10.6       0.0      12.8       0.3       0.3       0.0
 3 C  dx2y2           0.0       0.0       0.0       0.5       0.2       0.0
 3 C  dxy             0.0       0.0       0.4       0.0       0.0       0.0
 4 C  s               0.5       0.0       0.4       0.1       0.0       0.0
 4 C  pz              0.1       1.2       0.0       0.0       0.0       0.3
 4 C  px              3.3       0.0       0.4      17.1       3.5       0.0
 4 C  py             14.6       0.0      12.3       3.5       0.8       0.0
 4 C  dx2y2           0.0       0.0       0.0       0.5       0.2       0.0
 4 C  dxy             0.2       0.0       0.2       0.0       0.0       0.0
 5 H  s               1.0       8.9       3.9       0.8       2.2       7.8
 5 H  pz              0.1       0.0       0.2       0.0       0.1       0.0
 5 H  px              0.0       0.0       0.0       0.1       0.1       0.0
 5 H  py              0.0       0.2       0.0       0.0       0.0       0.1
 6 H  s               1.0       9.0       3.8       0.8       2.2       7.9
 6 H  pz              0.1       0.0       0.2       0.0       0.0       0.0
 6 H  px              0.0       0.0       0.0       0.1       0.1       0.0
 6 H  py              0.0       0.2       0.0       0.0       0.0       0.1
 7 H  s               6.5       0.0      11.3       2.1       0.4       0.0
 7 H  pz              0.0       0.2       0.0       0.0       0.0       0.1
 7 H  px              0.1       0.0       0.2       0.1       0.1       0.0
 7 H  py              0.1       0.0       0.1       0.1       0.0       0.0
 8 H  s               1.4       0.5       0.1       0.4       5.0      13.5
 8 H  pz              0.1       0.0       0.0       0.0       0.1       0.0
 8 H  px              0.0       0.0       0.0       0.1       0.0       0.0
 8 H  py              0.0       0.0       0.0       0.0       0.0       0.1
 9 H  s               1.4       0.5       0.1       0.4       5.0      13.6
 9 H  pz              0.1       0.0       0.0       0.0       0.1       0.0
 9 H  px              0.0       0.0       0.0       0.1       0.0       0.0
 9 H  py              0.0       0.0       0.0       0.0       0.0       0.1
10 H  s               0.3       7.9       2.1       0.7       3.8       3.3
10 H  py              0.0       0.1       0.0       0.0       0.0       0.0
11 H  s               0.3       7.8       2.2       0.7       3.8       3.3
11 H  py              0.0       0.1       0.0       0.0       0.0       0.0
12 H  s               1.2       0.0       5.7       0.8       0.2       0.0
12 H  px              0.1       0.0       0.2       0.0       0.1       0.0
13 H  s               2.2       0.0       0.1       9.6       2.3       0.0
13 H  px              0.0       0.0       0.0       0.1       0.0       0.0
13 H  py              0.1       0.0       0.1       0.0       0.0       0.0
14 H  s               4.5       0.0       4.6       7.4       0.3       0.0
14 H  px              0.1       0.0       0.1       0.0       0.1       0.0
14 H  py              0.0       0.0       0.0       0.2       0.0       0.0

                     18        19        20        21        22        23   
                  -0.29037  -0.23486  -0.00664   0.09567   0.11353   0.12524
                   2.00000   2.00000   0.00000   0.00000   0.00000   0.00000
                  --------  --------  --------  --------  --------  --------
 0 C  s               0.1       0.0       0.0       9.4      20.0       8.1
 0 C  pz              0.0       0.1       0.1       0.0       0.0       0.0
 0 C  px              5.0       0.0       0.0       4.6       4.3       7.2
 0 C  py              5.2       0.0       0.0       0.2       0.4       1.1
 0 C  dz2             0.1       0.0       0.0       0.2       0.0       0.0
 0 C  dx2y2           0.0       0.0       0.0       0.6       0.0       0.3
 0 C  dxy             0.4       0.0       0.0       0.2       0.0       0.0
 1 C  s               0.1       0.0       0.0      16.2       1.1       4.7
 1 C  pz              0.0       0.0       0.2       0.0       0.0       0.1
 1 C  px              5.7       0.0       0.0       0.2      10.2       2.8
 1 C  py             11.1       0.0       0.0       1.2       3.4      13.5
 1 C  dz2             0.0       0.0       0.0       0.1       0.1       0.6
 1 C  dx2y2           0.1       0.0       0.0       0.0       1.5       0.0
 1 C  dxy             0.2       0.0       0.0       0.0       0.1       0.0
 2 C  s               0.0       0.0       0.0      11.6       3.7       8.0
 2 C  pz              0.0       3.7       0.1       0.0       0.0       0.0
 2 C  px             13.2       0.0       0.0       1.6       5.7       0.4
 2 C  py              7.0       0.0       0.0       3.9       3.1       6.1
 2 C  dz2             0.0       0.0       0.0       0.4       0.1       0.0
 2 C  dxz             0.0       0.4       1.1       0.0       0.0       0.0
 2 C  dyz             0.0       0.2       0.2       0.0       0.0       0.0
 2 C  dx2y2           0.2       0.0       0.0       0.1       1.4       0.1
 2 C  dxy             0.3       0.0       0.0       0.6       0.0       0.1
 3 C  s               0.2       0.0       0.0       5.7      10.5       0.3
 3 C  pz              0.0      36.0      44.2       0.0       0.0       0.0
 3 C  px              9.1       0.0       0.0       1.6       0.7       3.4
 3 C  py              4.9       0.1       0.1       1.2       6.8       2.0
 3 C  dz2             0.0       0.0       0.0       0.2       0.1       0.0
 3 C  dxz             0.0       0.3       0.2       0.0       0.0       0.0
 3 C  dyz             0.0       0.4       0.8       0.0       0.0       0.0
 3 C  dx2y2           0.3       0.0       0.0       0.0       0.1       0.9
 3 C  dxy             0.7       0.0       0.0       0.8       0.1       0.0
 4 C  s               0.1       0.0       0.0       8.6       1.9       8.2
 4 C  pz              0.0      49.5      42.7       0.0       0.0       0.0
 4 C  px              3.0       0.0       0.0       0.2       0.8       0.4
 4 C  py              3.1       0.2       0.1       0.1       1.3       6.9
 4 C  dz2             0.0       0.0       0.0       0.0       0.0       0.4
 4 C  dxz             0.0       0.1       0.3       0.0       0.0       0.0
 4 C  dyz             0.0       0.3       1.0       0.0       0.0       0.0
 4 C  dx2y2           0.5       0.0       0.0       0.4       0.5       0.2
 4 C  dxy             0.2       0.0       0.0       0.0       0.1       0.2
 5 H  s               0.6       0.0       0.0       1.7       1.3       1.2
 5 H  pz              0.0       0.0       0.0       0.7       0.5       0.6
 5 H  px              0.1       0.0       0.0       0.1       0.1       0.2
 5 H  py              0.0       0.0       0.0       0.3       0.5       0.1
 6 H  s               0.6       0.0       0.0       1.7       1.3       1.2
 6 H  pz              0.0       0.0       0.0       0.8       0.7       0.7
 6 H  px              0.1       0.0       0.0       0.2       0.1       0.1
 6 H  py              0.0       0.0       0.0       0.2       0.4       0.0
 7 H  s               7.2       0.0       0.0       1.8       2.2       0.1
 7 H  px              0.0       0.0       0.0       0.0       0.3       0.3
 7 H  py              0.1       0.0       0.0       1.0       1.3       0.0
 8 H  s               0.7       0.1       0.0       2.0       0.3       0.2
 8 H  pz              0.0       0.0       0.0       1.0       0.2       0.0
 8 H  px              0.1       0.0       0.0       0.1       0.4       0.2
 8 H  py              0.1       0.0       0.0       0.3       0.3       0.7
 9 H  s               0.7       0.1       0.0       2.0       0.3       0.2
 9 H  pz              0.0       0.0       0.0       1.2       0.2       0.1
 9 H  px              0.1       0.0       0.0       0.1       0.4       0.2
 9 H  py              0.1       0.0       0.0       0.1       0.2       0.7
10 H  s               0.1       3.5       2.2       3.2       0.8       0.9
10 H  pz              0.0       0.0       0.0       1.4       0.4       0.6
10 H  px              0.1       0.0       0.1       0.2       0.1       0.0
10 H  py              0.1       0.0       0.0       0.0       0.4       0.3
11 H  s               0.1       3.5       2.2       3.2       0.9       0.9
11 H  pz              0.0       0.0       0.0       1.3       0.4       0.5
11 H  px              0.1       0.0       0.1       0.3       0.1       0.0
11 H  py              0.1       0.0       0.0       0.0       0.5       0.4
12 H  s              10.1       0.0       0.0       1.1       3.1       0.4
12 H  pz              0.0       0.4       1.3       0.0       0.0       0.0
12 H  px              0.0       0.0       0.0       0.2       0.4       0.1
12 H  py              0.1       0.0       0.0       0.3       1.6       0.6
13 H  s               3.2       0.0       0.0       1.7       1.2       0.4
13 H  pz              0.0       0.5       1.2       0.0       0.0       0.0
13 H  px              0.0       0.0       0.0       0.8       0.3       0.4
13 H  py              0.0       0.0       0.0       0.0       0.1       0.2
14 H  s               4.6       0.0       0.0       0.5       0.1       7.6
14 H  pz              0.0       0.5       1.2       0.0       0.0       0.0
14 H  px              0.0       0.0       0.0       0.2       0.3       0.9
14 H  py              0.0       0.0       0.0       0.1       0.1       2.6

                     24        25        26        27        28        29   
                   0.14698   0.15164   0.15988   0.16469   0.17053   0.18336
                   0.00000   0.00000   0.00000   0.00000   0.00000   0.00000
                  --------  --------  --------  --------  --------  --------
 0 C  s               1.0       0.0       2.4       0.1       0.0       1.2
 0 C  pz              0.0      16.0       0.0       0.0       0.1       0.0
 0 C  px              2.2       0.0      12.3      14.9       0.8      12.3
 0 C  py              7.4       0.1       1.6       1.5      20.1       2.5
 0 C  dz2             1.0       0.0       0.0       0.8       0.2       0.0
 0 C  dxz             0.0       0.7       0.0       0.0       0.0       0.0
 0 C  dyz             0.0       0.1       0.0       0.0       0.0       0.0
 0 C  dx2y2           0.2       0.0       0.7       1.3       0.0       0.1
 0 C  dxy             0.1       0.0       1.0       0.2       1.1       0.2
 1 C  s               4.1       0.0       0.7       3.5       1.8       1.9
 1 C  pz              0.0      16.2       0.0       0.0       0.0       0.0
 1 C  px              1.9       0.0       4.0       3.3       0.7       1.0
 1 C  py              8.7       0.1       1.2       5.4      12.1       2.5
 1 C  dz2             1.6       0.0       0.0       0.5       0.2       0.3
 1 C  dxz             0.0       0.3       0.0       0.0       0.0       0.0
 1 C  dyz             0.0       2.6       0.0       0.0       0.0       0.0
 1 C  dx2y2           0.0       0.0       0.2       0.0       0.1       0.4
 1 C  dxy             0.0       0.0       0.5       0.8       1.1       0.1
 2 C  s               0.5       0.0       7.6       3.8       0.1       1.6
 2 C  pz              0.1      18.5       0.0       0.0       0.0       0.0
 2 C  px             10.0       0.0       3.3       2.0       0.4       6.4
 2 C  py             13.9       0.1       7.2       2.6       5.2       5.3
 2 C  dz2             1.5       0.0       0.2       0.2       0.6       0.0
 2 C  dyz             0.0       1.6       0.0       0.0       0.0       0.0
 2 C  dx2y2           0.1       0.0       0.0       0.0       0.0       0.9
 2 C  dxy             0.2       0.0       0.0       0.5       0.7       0.2
 3 C  s               1.3       0.0       5.0       5.6       3.0       2.2
 3 C  pz              0.0       4.6       0.0       0.0       0.0       0.0
 3 C  px              3.3       0.0       8.1       0.8       1.5       4.6
 3 C  py              1.4       0.0       7.1       0.8       4.2       1.6
 3 C  dz2             0.2       0.0       0.3       1.0       0.3       0.2
 3 C  dxz             0.0       0.1       0.0       0.0       0.0       0.0
 3 C  dx2y2           0.3       0.0       0.0       0.1       0.2       2.2
 3 C  dxy             0.4       0.0       0.2       0.2       0.6       0.5
 4 C  s               0.8       0.0       1.8      14.2       3.5       0.2
 4 C  pz              0.0       2.3       0.0       0.1       0.0       0.0
 4 C  px              4.2       0.0       8.9       5.1       8.7      13.0
 4 C  py              0.0       0.0       3.2      12.8       4.1       5.4
 4 C  dz2             0.4       0.0       0.0       0.0       0.2       0.0
 4 C  dx2y2           0.6       0.0       0.2       0.0       0.5       1.3
 4 C  dxy             0.1       0.0       0.1       0.3       0.2       1.1
 5 H  s               0.4       1.8       0.7       1.8       1.1       0.7
 5 H  pz              0.2       0.4       0.2       0.4       0.4       0.1
 5 H  px              0.0       0.2       0.6       0.1       0.1       0.2
 5 H  py              0.4       0.4       0.0       0.0       0.0       0.1
 6 H  s               0.5       1.8       0.7       1.8       1.1       0.7
 6 H  pz              0.1       0.5       0.2       0.4       0.4       0.2
 6 H  px              0.0       0.2       0.6       0.1       0.1       0.2
 6 H  py              0.5       0.3       0.0       0.0       0.0       0.1
 7 H  s               6.0       0.0       3.7       0.5       5.1       0.2
 7 H  px              0.1       0.0       0.0       1.4       1.0       0.0
 7 H  py              0.7       0.0       0.1       0.0       1.2       0.0
 8 H  s               2.7       7.0       0.1       0.7       2.6       0.7
 8 H  pz              2.0       0.7       0.0       0.1       0.8       0.2
 8 H  px              0.0       0.2       0.4       0.0       0.2       0.0
 8 H  py              0.1       1.4       0.0       0.1       0.1       0.0
 9 H  s               2.6       7.0       0.1       0.7       2.6       0.7
 9 H  pz              1.9       1.0       0.0       0.1       0.9       0.2
 9 H  px              0.0       0.2       0.4       0.0       0.1       0.0
 9 H  py              0.2       1.1       0.0       0.1       0.1       0.0
10 H  s               0.7       4.4       0.8       0.1       2.0       0.6
10 H  pz              0.4       0.8       0.4       0.0       0.5       0.2
10 H  px              0.3       0.1       0.2       0.0       0.1       0.3
10 H  py              0.3       0.9       0.5       0.1       0.0       0.2
11 H  s               0.7       4.4       0.8       0.1       2.0       0.6
11 H  pz              0.6       0.6       0.3       0.0       0.5       0.1
11 H  px              0.3       0.1       0.2       0.0       0.1       0.3
11 H  py              0.2       1.1       0.6       0.1       0.0       0.2
12 H  s               2.9       0.0       4.8       3.5       0.9       1.8
12 H  px              0.0       0.0       1.4       0.7       0.1       0.2
12 H  py              0.5       0.0       1.5       0.3       1.0       0.1
13 H  s               5.4       0.0       1.4       1.3       0.6       4.3
13 H  px              1.2       0.0       1.0       1.0       0.4       1.5
13 H  py              0.0       0.0       0.1       0.3       0.3       0.9
14 H  s               0.2       0.0       0.1       0.8       0.4      11.7
14 H  px              0.3       0.0       0.0       0.0       0.2       0.4
14 H  py              0.0       0.0       0.1       0.7       0.5       2.9

                     30        31        32        33        34        35   
                   0.19463   0.20243   0.21721   0.22363   0.22700   0.23247
                   0.00000   0.00000   0.00000   0.00000   0.00000   0.00000
                  --------  --------  --------  --------  --------  --------
 0 C  s               0.0       2.5       0.2       0.0       1.3       0.0
 0 C  pz             22.8       0.0       0.0      13.7       0.1      41.6
 0 C  px              0.0       2.2       3.2       0.0       6.1       0.0
 0 C  py              0.1      10.2       6.2       0.0      19.2       0.1
 0 C  dz2             0.1       2.1       0.4       0.0       0.1       0.0
 0 C  dxz             0.6       0.0       0.0       0.3       0.0       0.0
 0 C  dyz             5.2       0.0       0.0       0.5       0.0       0.0
 0 C  dx2y2           0.0       0.0       0.0       0.0       0.8       0.0
 0 C  dxy             0.0       0.0       0.3       0.0       0.4       0.0
 1 C  s               0.0       0.4       0.1       0.0       4.2       0.0
 1 C  pz              0.1       0.0       0.0      17.6       0.0       5.6
 1 C  px              0.0       6.0       4.2       0.0       7.2       0.0
 1 C  py              0.0       8.0       5.8       0.1       4.4       0.0
 1 C  dz2             0.0       0.3       0.1       0.0       0.1       0.0
 1 C  dxz             1.6       0.0       0.0       0.3       0.0       0.0
 1 C  dyz             0.2       0.0       0.0       0.0       0.0       0.1
 1 C  dx2y2           0.0       0.7       0.3       0.0       0.2       0.0
 1 C  dxy             0.0       0.3       0.7       0.0       0.1       0.0
 2 C  s               0.0       2.1       1.0       0.0       0.1       0.0
 2 C  pz              6.0       0.0       0.0      22.5       0.0       0.3
 2 C  px              0.0       1.9       2.1       0.0       1.7       0.0
 2 C  py              0.0       5.7       9.3       0.1       0.8       0.0
 2 C  dz2             0.0       0.4       0.1       0.0       0.0       0.0
 2 C  dxz             0.2       0.0       0.0       0.6       0.0       0.0
 2 C  dyz             1.6       0.0       0.0       0.6       0.0       0.0
 2 C  dx2y2           0.0       0.6       0.1       0.0       0.5       0.0
 2 C  dxy             0.0       0.2       0.0       0.0       0.0       0.0
 3 C  s               0.0       7.5       0.7       0.0       3.6       0.0
 3 C  pz              1.2       0.0       0.0       3.1       0.0      13.6
 3 C  px              0.0       1.7       1.2       0.0       3.2       0.0
 3 C  py              0.0       0.1      11.0       0.0       0.3       0.0
 3 C  dz2             0.0       0.9       0.1       0.0       0.1       0.0
 3 C  dxz             0.4       0.0       0.0       0.8       0.0       0.1
 3 C  dyz             0.0       0.0       0.0       0.0       0.0       0.1
 3 C  dx2y2           0.0       0.0       0.1       0.0       0.6       0.0
 3 C  dxy             0.0       0.1       0.0       0.0       0.2       0.0
 4 C  s               0.0       4.1       1.2       0.0       3.8       0.0
 4 C  pz              2.6       0.0       0.1       2.5       0.0      22.8
 4 C  px              0.0       4.9       1.7       0.0       3.8       0.0
 4 C  py              0.0       3.5      30.8       0.0       0.6       0.1
 4 C  dz2             0.0       1.4       0.1       0.0       0.3       0.0
 4 C  dyz             0.0       0.0       0.0       0.0       0.0       0.1
 4 C  dx2y2           0.0       0.0       0.2       0.0       0.9       0.0
 4 C  dxy             0.0       0.1       1.9       0.0       0.1       0.0
 5 H  s              17.9       3.6       0.7       0.8       0.5       3.2
 5 H  pz              0.5       1.9       0.0       0.0       0.0       0.9
 5 H  px              0.3       0.0       0.0       0.0       0.4       0.3
 5 H  py              2.6       0.1       0.1       0.1       0.0       0.6
 6 H  s              18.0       3.5       0.7       0.8       0.5       3.2
 6 H  pz              0.9       1.7       0.0       0.0       0.0       1.2
 6 H  px              0.2       0.1       0.0       0.0       0.4       0.3
 6 H  py              2.3       0.3       0.1       0.2       0.0       0.4
 7 H  s               0.0       1.7       2.0       0.0      10.0       0.0
 7 H  pz              2.8       0.0       0.0       0.6       0.0       0.0
 7 H  px              0.0       0.0       0.3       0.0       0.5       0.0
 7 H  py              0.0       0.0       0.0       0.0       3.9       0.0
 8 H  s               0.1       0.3       0.1       4.0       3.9       1.6
 8 H  pz              0.0       0.2       0.0       0.7       1.2       0.2
 8 H  px              0.6       0.2       0.2       0.1       0.0       0.3
 8 H  py              0.1       0.3       0.1       0.9       0.4       0.3
 9 H  s               0.1       0.3       0.1       3.9       3.9       1.6
 9 H  pz              0.0       0.1       0.0       0.9       1.3       0.3
 9 H  px              0.6       0.2       0.2       0.1       0.0       0.3
 9 H  py              0.1       0.4       0.1       0.7       0.3       0.2
10 H  s               4.1       0.8       0.2       8.3       0.1       0.1
10 H  pz              0.2       0.3       0.0       1.4       0.0       0.0
10 H  px              0.0       0.1       0.0       0.3       0.2       0.1
10 H  py              0.6       0.3       0.0       1.5       0.0       0.0
11 H  s               4.1       0.8       0.1       8.4       0.1       0.1
11 H  pz              0.1       0.4       0.0       1.0       0.0       0.0
11 H  px              0.0       0.1       0.0       0.3       0.1       0.1
11 H  py              0.7       0.2       0.0       1.8       0.0       0.0
12 H  s               0.0       0.3       2.0       0.0       2.1       0.0
12 H  pz              0.1       0.0       0.0       0.2       0.0       0.0
12 H  py              0.0       0.0       0.9       0.0       0.4       0.0
13 H  s               0.0       7.2       2.2       0.0       4.5       0.0
13 H  px              0.0       1.7       0.6       0.0       0.2       0.0
13 H  py              0.0       0.0       1.4       0.0       0.0       0.0
14 H  s               0.0       3.8       2.9       0.0       0.1       0.0
14 H  px              0.0       0.9       1.3       0.0       0.2       0.0
14 H  py              0.0       0.3       0.0       0.0       0.0       0.0

                     36        37        38        39        40        41   
                   0.24884   0.25541   0.26952   0.28403   0.29005   0.31361
                   0.00000   0.00000   0.00000   0.00000   0.00000   0.00000
                  --------  --------  --------  --------  --------  --------
 0 C  s               0.6       0.0       0.1       0.0       0.6       3.4
 0 C  pz              0.0       8.6       0.0       9.5       0.0       0.0
 0 C  px              2.1       0.0       0.5       0.0      18.4       6.8
 0 C  py             15.1       0.0       3.7       0.0       0.5       9.5
 0 C  dz2             0.5       0.0       0.2       0.0       0.1       0.1
 0 C  dxz             0.0       0.8       0.0       0.3       0.0       0.0
 0 C  dyz             0.0       0.2       0.0       0.1       0.0       0.0
 0 C  dx2y2           0.2       0.0       0.1       0.0       0.1       0.3
 0 C  dxy             0.0       0.0       0.6       0.0       0.1       0.1
 1 C  s               0.4       0.0       1.2       0.0       0.4       1.1
 1 C  pz              0.0      14.9       0.1      38.4       0.0       0.0
 1 C  px              1.8       0.0       0.4       0.0       3.9       0.7
 1 C  py              0.3       0.1      17.4       0.1       3.4       0.5
 1 C  dz2             0.0       0.0       0.6       0.0       2.0       0.2
 1 C  dxz             0.0       0.4       0.0       0.2       0.0       0.0
 1 C  dyz             0.0       3.4       0.0       0.1       0.0       0.0
 1 C  dx2y2           0.0       0.0       0.1       0.0       1.4       0.5
 1 C  dxy             0.0       0.0       0.5       0.0       0.1       0.1
 2 C  s               1.4       0.0       0.6       0.0       1.3       1.6
 2 C  pz              0.0      20.4       0.0       3.8       0.0       0.1
 2 C  px              1.7       0.0       4.2       0.0       4.6       6.5
[...]
10 H  py              1.4       0.5       0.0       0.3       2.9       0.1
11 H  s               2.1       0.1       0.1       0.7       4.3       3.0
11 H  pz              2.0       0.0       0.5       2.2       4.8       6.4
11 H  px              1.1       0.0       0.2       0.0       1.2       0.6
11 H  py              2.0       0.4       0.0       0.5       4.0       1.9
12 H  s               0.0       3.3       0.0       0.2       0.0       0.0
12 H  px              0.0       1.2       0.0       0.4       0.0       0.2
12 H  py              0.0      10.6       0.0       0.5       0.0       0.1
13 H  s               0.0       0.6       0.1       0.0       0.0       0.0
13 H  px              0.0       2.7       0.2       0.2       0.0       0.1
13 H  py              0.0       0.4       0.0       0.0       0.0       0.0
14 H  s               0.0       5.4       0.1       0.1       0.0       0.0
14 H  px              0.0       1.4       0.0       0.0       0.0       0.0
14 H  py              0.0      16.3       0.0       0.2       0.0       0.0

                    138       139       140       141       142       143   
                   3.63784   3.79765  21.65563  21.87093  21.97435  22.01520
                   0.00000   0.00000   0.00000   0.00000   0.00000   0.00000
                  --------  --------  --------  --------  --------  --------
 0 C  s               0.0       0.1       0.0      58.1      30.7      10.7
 0 C  pz              1.3       0.0       0.0       0.0       0.0       0.0
 0 C  px              0.1       0.1       0.0       0.0       0.0       0.0
 0 C  dz2             0.5       0.0       0.0       0.0       0.0       0.0
 0 C  dxz             0.4       0.0       0.0       0.0       0.0       0.0
 0 C  dyz             3.6       0.0       0.0       0.0       0.0       0.0
 1 C  s               0.3       0.0       2.0      16.0      63.5      16.0
 1 C  pz              6.9       0.0       0.0       0.0       0.0       0.0
 1 C  px              0.0       0.2       0.0       0.0       0.0       0.0
 1 C  py              0.6       0.1       0.0       0.0       0.0       0.0
 1 C  dz2             2.2       0.0       0.0       0.0       0.0       0.0
 1 C  dxz             3.0       0.0       0.0       0.0       0.0       0.0
 1 C  dyz            14.4       0.0       0.0       0.0       0.0       0.0
 1 C  dxy             0.2       0.3       0.0       0.0       0.0       0.0
 2 C  s               0.3       0.4      11.4      19.5       2.4      55.9
 2 C  pz              2.6       0.0       0.0       0.0       0.0       0.0
 2 C  px              0.0       2.0       0.0       0.0       0.0       0.0
 2 C  py              0.7       0.1       0.0       0.0       0.0       0.0
 2 C  dz2             1.5       0.1       0.0       0.0       0.0       0.0
 2 C  dxz             1.9       0.0       0.0       0.0       0.0       0.0
 2 C  dyz             5.1       0.0       0.0       0.0       0.0       0.0
 2 C  dx2y2           0.0       3.5       0.0       0.0       0.0       0.0
 2 C  dxy             0.4       0.1       0.0       0.0       0.0       0.0
 3 C  s               0.1       0.2      45.0       1.0       2.3       1.0
 3 C  px              0.0       1.7       0.0       0.0       0.0       0.0
 3 C  py              0.0       1.4       0.0       0.0       0.0       0.0
 3 C  dz2             0.1       0.0       0.0       0.0       0.0       0.0
 3 C  dx2y2           0.0      11.7       0.0       0.0       0.0       0.0
 3 C  dxy             0.0       8.7       0.0       0.0       0.0       0.0
 4 C  s               0.0       0.0      41.3       5.0       0.8      16.1
 4 C  px              0.0       3.9       0.0       0.0       0.0       0.0
 4 C  py              0.0       0.6       0.0       0.0       0.0       0.0
 4 C  dx2y2           0.0      22.5       0.0       0.0       0.0       0.0
 4 C  dxy             0.0       2.6       0.0       0.0       0.0       0.0
 5 H  s               0.6       0.0       0.0       0.0       0.0       0.0
 5 H  pz              0.8       0.0       0.0       0.0       0.0       0.0
 5 H  px              0.4       0.0       0.0       0.0       0.0       0.0
 5 H  py              0.4       0.0       0.0       0.0       0.0       0.0
 6 H  s               1.3       0.0       0.0       0.0       0.0       0.0
 6 H  pz              2.2       0.0       0.0       0.0       0.0       0.0
 6 H  px              0.4       0.0       0.0       0.0       0.0       0.0
 6 H  py              0.7       0.0       0.0       0.0       0.0       0.0
 8 H  s               3.0       0.0       0.0       0.0       0.0       0.0
 8 H  pz              3.0       0.1       0.0       0.0       0.0       0.0
 8 H  px              0.5       0.0       0.0       0.0       0.0       0.0
 8 H  py              3.3       0.0       0.0       0.0       0.0       0.0
 9 H  s               6.5       0.0       0.0       0.0       0.0       0.0
 9 H  pz             11.3       0.1       0.0       0.0       0.0       0.0
 9 H  px              0.9       0.0       0.0       0.0       0.0       0.0
 9 H  py              4.4       0.0       0.0       0.0       0.0       0.0
10 H  s               3.0       0.0       0.0       0.0       0.0       0.0
10 H  pz              5.4       0.2       0.0       0.0       0.0       0.0
10 H  px              0.2       0.2       0.0       0.0       0.0       0.0
10 H  py              2.2       0.0       0.0       0.0       0.0       0.0
11 H  s               0.8       0.0       0.0       0.0       0.0       0.0
11 H  pz              0.6       0.2       0.0       0.0       0.0       0.0
11 H  px              0.0       0.1       0.0       0.0       0.0       0.0
11 H  py              1.3       0.0       0.0       0.0       0.0       0.0
12 H  s               0.0       4.0       0.0       0.0       0.0       0.0
12 H  px              0.0       3.4       0.0       0.0       0.0       0.0
12 H  py              0.0       5.8       0.0       0.0       0.0       0.0
13 H  s               0.0       5.1       0.0       0.0       0.0       0.0
13 H  px              0.0       9.7       0.0       0.0       0.0       0.0
13 H  py              0.0       0.2       0.0       0.0       0.0       0.0
14 H  s               0.0       3.5       0.0       0.0       0.0       0.0
14 H  px              0.0       3.1       0.0       0.0       0.0       0.0
14 H  py              0.0       3.9       0.0       0.0       0.0       0.0

                    144   
                  22.16488
                   0.00000
                  --------
 1 C  s               2.2
 2 C  s              10.6
 3 C  s              50.3
 4 C  s              36.5


                      *****************************
                      * MAYER POPULATION ANALYSIS *
                      *****************************

  NA   - Mulliken gross atomic population
  ZA   - Total nuclear charge
  QA   - Mulliken gross atomic charge
  VA   - Mayer's total valence
  BVA  - Mayer's bonded valence
  FA   - Mayer's free valence

  ATOM       NA         ZA         QA         VA         BVA        FA
  0 C      6.4628     6.0000    -0.4628     3.7984     3.7984     0.0000
  1 C      6.2862     6.0000    -0.2862     3.6884     3.6884    -0.0000
  2 C      6.2149     6.0000    -0.2149     3.6599     3.6599     0.0000
  3 C      6.1442     6.0000    -0.1442     3.7852     3.7852     0.0000
  4 C      6.3245     6.0000    -0.3245     3.9042     3.9042    -0.0000
  5 H      0.8597     1.0000     0.1403     0.9651     0.9651    -0.0000
  6 H      0.8597     1.0000     0.1403     0.9651     0.9651    -0.0000
  7 H      0.8524     1.0000     0.1476     0.9624     0.9624     0.0000
  8 H      0.8534     1.0000     0.1466     0.9562     0.9562    -0.0000
  9 H      0.8533     1.0000     0.1467     0.9562     0.9562     0.0000
 10 H      0.8572     1.0000     0.1428     0.9590     0.9590    -0.0000
 11 H      0.8573     1.0000     0.1427     0.9591     0.9591     0.0000
 12 H      0.8523     1.0000     0.1477     0.9650     0.9650    -0.0000
 13 H      0.8621     1.0000     0.1379     0.9710     0.9710     0.0000
 14 H      0.8599     1.0000     0.1401     0.9717     0.9717    -0.0000

  Mayer bond orders larger than 0.100000
B(  0-C ,  1-C ) :   0.9123 B(  0-C ,  5-H ) :   0.9818 B(  0-C ,  6-H ) :   0.9818 
B(  0-C ,  7-H ) :   0.9764 B(  1-C ,  2-C ) :   0.9052 B(  1-C ,  8-H ) :   0.9690 
B(  1-C ,  9-H ) :   0.9693 B(  2-C ,  3-C ) :   0.9545 B(  2-C , 10-H ) :   0.9653 
B(  2-C , 11-H ) :   0.9655 B(  3-C ,  4-C ) :   1.9435 B(  3-C , 12-H ) :   0.9383 
B(  4-C , 13-H ) :   0.9609 B(  4-C , 14-H ) :   0.9666 

-------
TIMINGS
-------

Total SCF time: 0 days 0 hours 0 min 10 sec 

Total time                  ....      10.517 sec
Sum of individual times     ....       9.664 sec  ( 91.9%)

SCF preparation             ....       0.167 sec  (  1.6%)
Fock matrix formation       ....       8.739 sec  ( 83.1%)
  Startup                   ....       0.055 sec  (  0.6% of F)
  Split-RI-J                ....       1.425 sec  ( 16.3% of F)
  XC integration            ....       6.830 sec  ( 78.1% of F)
    XC Preparation          ....       0.000 sec  (  0.0% of XC)
    Basis function eval.    ....       1.360 sec  ( 19.9% of XC)
    Density eval.           ....       1.543 sec  ( 22.6% of XC)
    XC-Functional eval.     ....       1.096 sec  ( 16.0% of XC)
    XC-Potential eval.      ....       1.925 sec  ( 28.2% of XC)
Diagonalization             ....       0.000 sec  (  0.0%)
Density matrix formation    ....       0.170 sec  (  1.6%)
Total Energy calculation    ....       0.031 sec  (  0.3%)
Population analysis         ....       0.086 sec  (  0.8%)
Orbital Transformation      ....       0.065 sec  (  0.6%)
Orbital Orthonormalization  ....       0.000 sec  (  0.0%)
DIIS solution               ....       0.323 sec  (  3.1%)
  MO trafo                  ....       0.000 sec  (  0.0 % of DIIS)
  Orb grad                  ....       0.000 sec  (  0.0 % of DIIS)
  Energy W gradient         ....       0.000 sec  (  0.0 % of DIIS)
  DIIS error                ....       0.007 sec  (  2.2 % of DIIS)
  DIIS work                 ....       0.257 sec  ( 79.6 % of DIIS)
  Form Q                    ....       0.000 sec  (  0.0 % of DIIS)
  Form QpQm                 ....       0.000 sec  (  0.0 % of DIIS)
  Exp/Cayley                ....       0.000 sec  (  0.0 % of DIIS)
  Orb update                ....       0.000 sec  (  0.0 % of DIIS)
  Wake-sleep                ....       0.019 sec  (  5.9 % of DIIS)
SOSCF solution              ....       0.083 sec  (  0.8%)
  MO trafo                  ....       0.047 sec  ( 56.7 % of SOSCF)
  Orb grad                  ....       0.001 sec  (  1.7 % of SOSCF)
  Rot update                ....       0.015 sec  ( 18.1 % of SOSCF)
  Step                      ....       0.019 sec  ( 23.4 % of SOSCF)
Finished LeanSCF after  10.7 sec

Maximum memory used throughout the entire LEANSCF-calculation: 15.3 MB


-------------------------------------------------------------------------------
                          DFT DISPERSION CORRECTION                            
                                                                               
                                DFTD4 V3.4.0                                   
-------------------------------------------------------------------------------
The R2SCAN3C composite method is recognized
Using three-body term ABC
Active option DFTDOPT                   ...         5   

-------------------------   ----------------
Dispersion correction           -0.003274110
-------------------------   ----------------

------------------   -----------------
gCP correction             0.005905344
------------------   -----------------

-------------------------   --------------------
FINAL SINGLE POINT ENERGY      -196.457962498884
-------------------------   --------------------


------------------------------------------------------------------------------
                              ORCA PROPERTY CALCULATIONS
------------------------------------------------------------------------------

GBWName                                 ... sp_gas.gbw
Number of atoms                         ...     15
Number of basis functions               ...    145
Max core memory                         ...   1024 MB

Electric properties:
Dipole moment                           ... YES
Quadrupole moment                       ...  NO
Static polarizability (Dipole/Dipole)   ...  NO
Static polarizability (Dipole/Quad.)    ...  NO
Static polarizability (Quad./Quad.)     ...  NO
Static polarizability (Velocity)        ...  NO

Atomic electric properties:
Dipole moment                           ...  NO
Quadrupole moment                       ...  NO
Static polarizability                   ...  NO

Choice of electric origin               ... Center of mass
Position of electric origin             ...     0.000003    -0.000001    -0.000000

General magnetic properties:
Magnetizability                         ...  NO

EPR properties:
g-Tensor (aka g-matrix)                 ...  NO
Zero-Field splitting spin-orbit         ...  NO
Zero-field splitting spin-spin          ...  NO
Hyperfine couplings                     ...  NO (   0 nuclei)
Quadrupole couplings                    ...  NO (   0 nuclei)
Contact density                         ...  NO (   0 nuclei)

NMR properties:
Chemical shifts                         ...  NO (   0 nuclei)
Spin-rotation constants                 ...  NO (   0 nuclei)
Spin-spin couplings                     ...  NO (   0 nuclei,    0 pairs)

Choice of magnetic origin               ... GIAO
Position of magnetic origin             ...     0.000000     0.000000     0.000000

Properties with geometric perturbations:
SCF Hessian                             ...  NO
IR spectrum                             ...  NO
VCD spectrum                            ...  NO
X-ray spectroscopy properties:
SCF XES/XAS/RIXS spectra                ...  NO


-------------
DIPOLE MOMENT
-------------

Method             : SCF
Type of density    : Electron Density
Multiplicity       :   1
Irrep              :   0
Energy             :  -196.4605937332782730 Eh
Relativity type    : 
Basis              : AO
                                X                 Y                 Z
Electronic contribution:     -2.884467407       0.667512727       0.049815117
Nuclear contribution   :      3.052701288      -0.582532037      -0.059967287
                        -----------------------------------------
Total Dipole Moment    :      0.168233881       0.084980690      -0.010152170
                        -----------------------------------------
Magnitude (a.u.)       :      0.188752279
Magnitude (Debye)      :      0.479770166



--------------------
Rotational spectrum 
--------------------
 
Rotational constants in cm-1:             0.469912             0.084596             0.074673 
Rotational constants in MHz :         14087.617194          2536.132024          2238.630689 

Dipole components along the rotational axes: 
x,y,z [a.u.] :     0.161422    -0.097828    -0.000040 
x,y,z [Debye]:     0.410302    -0.248659    -0.000103 

 

Dipole moment calculation done in   0.0 sec 

Maximum memory used throughout the entire PROP-calculation: 8.3 MB

--------------------------------
SUGGESTED CITATIONS FOR THIS RUN
--------------------------------

Below you find a list of papers that are relevant to this ORCA run
We neither can nor want to force you to cite these papers, but we appreciate if you do
You receive ORCA, which is the product of decades of hard work by many enthusiastic individuals, for free
The only thing we kindly ask in return is that you cite our papers,
We deeply appreciate it, if you show your appreciation for ORCA by not just citing the generic ORCA reference.

Please note that relegating all ORCA citations to the supporting information does *not* help us.
SI sections are not indexed - citations you put there will not count into any citation statistics
But we need these citations in order to attract the funding resources that allow us to do what we are doing

Therefore, if you are a happy ORCA user, please consider citing a few of the papers listed below in the main body of your paper

In addition to the list printed below, the program has created the file sp_gas.bibtex that contains the list in bibtex format
You can import this file easily into all common literature databanks and citation aid programs


List of essential papers. We consider these as the minimum necessary citations

  1. Neese,F.
     Software update: the ORCA program system, version 5.0
     WIRES Comput. Molec. Sci., 2022 12(1)e1606
     doi.org/10.1002/wcms.1606
  2. Grimme,S.; Hansen,A.; Ehlert,S.; Mewes,J.
     r2SCAN-3c: A 'Swiss army knife' composite electronic-structure method
     J. Chem. Phys., 2021 154 064103
     doi.org/10.1063/5.0040021

List of papers to cite with high priority. The work reported in these papers was absolutely
necessary for this run to complete.
Our perspective: the developers of density functionals and basis sets usually get cited in chemistry papers
Good! But without the algorithms to do something with them, the functionals or basis sets would not do anything.
Hence, in our opinion, the algorithm design and method developments papers are equally worthy of getting cited

  1. Neese,F.
     An improvement of the resolution of the identity approximation for the formation of the Coulomb matrix
     J. Comp. Chem., 2003 24(14)1740-1747
     doi.org/10.1002/jcc.10318
  2. Neese,F.
     The SHARK Integral Generation and Digestion System
     J. Comp. Chem., 2022  1-16
     doi.org/10.1002/jcc.26942
  3. Lehtola,S.; Steigemann,C.; Oliveira,M.; Marques,M.
     Recent developments in Libxc - A comprehensive library of functionals for density functional theory
     Software X, 2018 7 
     doi.org/10.1016/j.softx.2017.11.002
  4. Caldeweyher,E.; Bannwarth,C.; Grimme,S.
     Extension of the D3 dispersion coefficient model
     J. Chem. Phys., 2017 147 034112-XXXX
     doi.org/10.1063/1.4993215
  5. Caldeweyher,E.; Ehlert,S.; Hansen,A.; Neugebauer,H.; Spicher,S.; Bannwarth,C.; Grimme,S.
     A generally applicable atomic-charge dependent London dispersion correction
     J. Chem. Phys., 2019 150 154122-XXXX
     doi.org/10.1063/1.5090222
  6. Caldeweyher,E.; Mewes,J.; Ehlert,S.; Grimme,S.
     Extension and evaluation of the D4 London-dispersion model for periodic systems
     Phys. Chem. Chem. Phys., 2020 22(16)8499-8512
     doi.org/10.1039/D0CP00502A

List of suggested additional citations. These are papers that are important in the 'surrounding' of 
of this run, or papers that preceded the highly important papers. If you like your results we are grateful for a citation.

  1. Neese,F.
     The ORCA program system
     WIRES Comput. Molec. Sci., 2012 2(1)73-78
     doi.org/10.1002/wcms.81
  2. Neese,F.
     Software update: the ORCA program system, version 4.0
     WIRES Comput. Molec. Sci., 2018 8(1)1-6
     doi.org/10.1002/wcms.1327
  3. Neese,F.; Wennmohs,F.; Becker,U.; Riplinger,C.
     The ORCA quantum chemistry program package
     J. Chem. Phys., 2020 152 Art. No. L224108
     doi.org/10.1063/5.0004608

List of optional additional citations

  1. Neese,F.
     Approximate second-order SCF convergence for spin unrestricted wavefunctions
     Chem. Phys. Lett., 2000 325(1-3)93-98
     doi.org/10.1016/s0009-2614(00)00662-x

Timings for individual modules:

Sum of individual times          ...       12.009 sec (=   0.200 min)
Startup calculation              ...        0.869 sec (=   0.014 min)   7.2 %
SCF iterations                   ...       11.028 sec (=   0.184 min)  91.8 %
Property calculations            ...        0.111 sec (=   0.002 min)   0.9 %
                             ****ORCA TERMINATED NORMALLY****
TOTAL RUN TIME: 0 days 0 hours 0 minutes 12 seconds 800 msec
