      -----------------------------------------------------------      
     |                   =====================                   |     
     |                           x T B                           |     
     |                   =====================                   |     
     |                         S. Grimme                         |     
     |          Mulliken Center for Theoretical Chemistry        |     
     |                    University of Bonn                     |     
      -----------------------------------------------------------      

   * xtb version 6.7.1 (edcfbbe) compiled by 'albert@albert-system' on 2024-07-22

   xtb is free software: you can redistribute it and/or modify it under
   the terms of the GNU Lesser General Public License as published by
   the Free Software Foundation, either version 3 of the License, or
   (at your option) any later version.
   
   xtb is distributed in the hope that it will be useful,
   but WITHOUT ANY WARRANTY; without even the implied warranty of
   MERCHANTABILITY or FITNESS FOR A PARTICULAR PURPOSE.  See the
   GNU Lesser General Public License for more details.
   
   Cite this work as:
   * C. Bannwarth, E. Caldeweyher, S. Ehlert, A. Hansen, P. Pracht,
     J. Seibert, S. Spicher, S. Grimme, WIREs Comput. Mol. Sci., 2020, 11,
     e01493. DOI: 10.1002/wcms.1493
   
   for GFN2-xTB:
   * C. Bannwarth, S. Ehlert and S. Grimme., J. Chem. Theory Comput., 2019,
     15, 1652-1671. DOI: 10.1021/acs.jctc.8b01176
   for GFN1-xTB:
   * S. Grimme, C. Bannwarth, P. Shushkov, J. Chem. Theory Comput., 2017,
     13, 1989-2009. DOI: 10.1021/acs.jctc.7b00118
   for GFN0-xTB:
   * P. Pracht, E. Caldeweyher, S. Ehlert, S. Grimme, ChemRxiv, 2019, preprint.
     DOI: 10.26434/chemrxiv.8326202.v1
   for GFN-FF:
   * S. Spicher and S. Grimme, Angew. Chem. Int. Ed., 2020, 59, 15665-15673.
     DOI: 10.1002/anie.202004239
   
   for ALPB and GBSA implicit solvation:
   * S. Ehlert, M. Stahn, S. Spicher, S. Grimme, J. Chem. Theory Comput.,
     2021, 17, 4250-4261. DOI: 10.1021/acs.jctc.1c00471
   
   for ddCOSMO and CPCM-X implicit solvation:
   * M. Stahn, S. Ehlert, S. Grimme, J. Phys. Chem. A,
     2023, XX, XXXX-XXXX. DOI: 10.1021/acs.jpca.3c04382
   
   for DFT-D4:
   * E. Caldeweyher, C. Bannwarth and S. Grimme, J. Chem. Phys., 2017,
     147, 034112. DOI: 10.1063/1.4993215
   * E. Caldeweyher, S. Ehlert, A. Hansen, H. Neugebauer, S. Spicher,
     C. Bannwarth and S. Grimme, J. Chem. Phys., 2019, 150, 154122.
     DOI: 10.1063/1.5090222
   * E. Caldeweyher, J.-M. Mewes, S. Ehlert and S. Grimme, Phys. Chem. Chem. Phys.
     2020, 22, 8499-8512. DOI: 10.1039/D0CP00502A
   
   for sTDA-xTB:
   * S. Grimme and C. Bannwarth, J. Chem. Phys., 2016, 145, 054103.
     DOI: 10.1063/1.4959605
   
   in the mass-spec context:
   * V. Asgeirsson, C. Bauer and S. Grimme, Chem. Sci., 2017, 8, 4879.
     DOI: 10.1039/c7sc00601b
   * J. Koopman and S. Grimme, ACS Omega 2019, 4, 12, 15120-15133.
     DOI: 10.1021/acsomega.9b02011
   
   for metadynamics refer to:
   * S. Grimme, J. Chem. Theory Comput., 2019, 155, 2847-2862
     DOI: 10.1021/acs.jctc.9b00143
   
   for SPH calculations refer to:
   * S. Spicher and S. Grimme, J. Chem. Theory Comput., 2021, 17, 1701-1714
     DOI: 10.1021/acs.jctc.0c01306
   
   for ONIOM refer to:
   * C. Plett, A. Katbashev, S. Ehlert, S. Grimme, M. Bursch,
     Phys. Chem. Chem. Phys., 2023, 25, 17860-17868. DOI: 10.1039/D3CP02178E
   
   for DIPRO refer to:
   * J. Kohn, N. Gildemeister, S. Grimme, D. Fazzi, A. Hansen,
     J. Chem. Phys., 2023, just accepted.
   
   for PTB refer to:
   * S. Grimme, M. Mueller, A. Hansen, J. Chem. Phys., 2023, 158, 124111.
     DOI: 10.1063/5.0137838
   
   with help from (in alphabetical order)
   P. Atkinson, C. Bannwarth, F. Bohle, G. Brandenburg, E. Caldeweyher
   M. Checinski, S. Dohm, S. Ehlert, S. Ehrlich, I. Gerasimov, C. Hölzer
   A. Katbashev, J. Kohn, J. Koopman, C. Lavigne, S. Lehtola, F. März, M. Müller,
   F. Musil, H. Neugebauer, J. Pisarek, C. Plett, P. Pracht, F. Pultar,
   J. Seibert, P. Shushkov, S. Spicher, M. Stahn, M. Steiner, T. Strunk,
   J. Stückrath, T. Rose, and J. Unsleber
   
 * started run on 2025/04/11 at 11:42:10.683     
   ID    Z sym.   atoms
    1    6 C      1-5
    2    7 N      6
    3    1 H      7-15

           -------------------------------------------------
          |                Calculation Setup                |
           -------------------------------------------------

          program call               : /srv/scratch/z5358697/.xtb/bin/xtb xtb_opt.coord --opt normal --orca -I xtb_opt-xcontrol-inp
          hostname                   : k062
          coordinate file            : xtb_opt.coord
          omp threads                :                     5

           -------------------------------------------------
          |                   Orca driver                   |
           -------------------------------------------------
orca executable           : /apps/z_install_tree/linux-rocky8-ivybridge/gcc-12.2.0/orca-6.0.0-srtngmq3qlimg2qxbl6avaaiffipurdx/bin/orca
orca input file           : xtb_opt.inp
orca input line           : 
orca parallel             : true
orca number of threads    : 5
                         * ORCA takes the control...
  ------------------------------------------------------------------------

                                 *****************
                                 * O   R   C   A *
                                 *****************

                                            #,                                       
                                            ###                                      
                                            ####                                     
                                            #####                                    
                                            ######                                   
                                           ########,                                 
                                     ,,################,,,,,                         
                               ,,#################################,,                 
                          ,,##########################################,,             
                       ,#########################################, ''#####,          
                    ,#############################################,,   '####,        
                  ,##################################################,,,,####,       
                ,###########''''           ''''###############################       
              ,#####''   ,,,,##########,,,,          '''####'''          '####       
            ,##' ,,,,###########################,,,                        '##       
           ' ,,###''''                  '''############,,,                           
         ,,##''                                '''############,,,,        ,,,,,,###''
      ,#''                                            '''#######################'''  
     '                                                          ''''####''''         
             ,#######,   #######,   ,#######,      ##                                
            ,#'     '#,  ##    ##  ,#'     '#,    #''#        ,####,   ,####,        
            ##       ##  ##   ,#'  ##            #'  '#       #'       #'  '#        
            ##       ##  #######   ##           ,######,      #####,   #    #        
            '#,     ,#'  ##    ##  '#,     ,#' ,#      #,     #,   #   #,  ,#        
             '#######'   ##     ##  '#######'  #'      '#     '####' # '####'        



                #########################################################
                #                        -***-                          #
                #          Department of theory and spectroscopy        #
                #                                                       #
                #                      Frank Neese                      #
                #                                                       #
                #     Directorship, Architecture, Infrastructure        #
                #                    SHARK, DRIVERS                     #
                #        Core code/Algorithms in most modules           #
                #                                                       #
                #        Max Planck Institute fuer Kohlenforschung      #
                #                Kaiser Wilhelm Platz 1                 #
                #                 D-45470 Muelheim/Ruhr                 #
                #                      Germany                          #
                #                                                       #
                #                  All rights reserved                  #
                #                        -***-                          #
                #########################################################


                         Program Version 6.0.0  -   RELEASE  -


 With contributions from (in alphabetic order):
   Daniel Aravena         : Magnetic Suceptibility
   Michael Atanasov       : Ab Initio Ligand Field Theory (pilot matlab implementation)
   Alexander A. Auer      : GIAO ZORA, VPT2 properties, NMR spectrum
   Ute Becker             : All parallelization in ORCA, NUMFREQ, NUMCALC
   Giovanni Bistoni       : ED, misc. LED, open-shell LED, HFLD
   Martin Brehm           : Molecular dynamics
   Dmytro Bykov           : pre 5.0 version of the SCF Hessian
   Marcos Casanova-Páez   : Triplet and SCS-CIS(D). UHF-(DLPNO)-IP/EA/STEOM-CCSD. UHF-CVS-IP/STEOM-CCSD
   Vijay G. Chilkuri      : MRCI spin determinant printing, contributions to CSF-ICE
   Pauline Colinet        : FMM embedding
   Dipayan Datta          : RHF DLPNO-CCSD density
   Achintya Kumar Dutta   : EOM-CC, STEOM-CC
   Nicolas Foglia         : Exact transition moments, OPA infrastructure, MCD improvements
   Dmitry Ganyushin       : Spin-Orbit,Spin-Spin,Magnetic field MRCI
   Miquel Garcia          : C-PCM and meta-GGA Hessian, CCSD/C-PCM, Gaussian charge scheme
   Tiago L. C. Gouveia    : GS-ROHF, GS-ROCIS
   Yang Guo               : DLPNO-NEVPT2, F12-NEVPT2, CIM, IAO-localization
   Andreas Hansen         : Spin unrestricted coupled pair/coupled cluster methods
   Ingolf Harden          : AUTO-CI MPn and infrastructure 
   Benjamin Helmich-Paris : MC-RPA, TRAH-(SCF,CASSCF), AVAS, COSX integrals, SCF dyn. polar.
   Lee Huntington         : MR-EOM, pCC
   Robert Izsak           : Overlap fitted RIJCOSX, COSX-SCS-MP3, EOM
   Riya Kayal             : Wick's Theorem for AUTO-CI, AUTO-CI UHF-CCSDT
   Emily Kempfer          : AUTO-CI, RHF CISDT and CCSDT
   Christian Kollmar      : KDIIS, OOCD, Brueckner-CCSD(T), CCSD density, CASPT2, CASPT2-K, improved NEVPT2
   Axel Koslowski         : Symmetry handling
   Simone Kossmann        : Meta GGA functionals, TD-DFT gradient, OOMP2, (MP2 Hessian; deprecated post 5.0)
   Lucas Lang             : DCDCAS
   Marvin Lechner         : AUTO-CI (C++ implementation), FIC-MRCC
   Spencer Leger          : CASSCF response
   Dagmar Lenk            : GEPOL surface, SMD, ORCA-2-JSON
   Dimitrios Liakos       : Extrapolation schemes; Compound Job, initial MDCI parallelization
   Dimitrios Manganas     : Further ROCIS development; embedding schemes. LFT, Crystal Embedding
   Dimitrios Pantazis     : SARC Basis sets
   Anastasios Papadopoulos: AUTO-CI, single reference methods and gradients
   Taras Petrenko         : pre 6.0 DFT Hessian and TD-DFT gradient, (ASA, deprecated), ECA, 1-Electron XAS/XES, NRVS
   Peter Pinski           : DLPNO-MP2, DLPNO-MP2 Gradient
   Christoph Reimann      : Effective Core Potentials
   Marius Retegan         : Local ZFS, SOC
   Christoph Riplinger    : Optimizer, TS searches, QM/MM, DLPNO-CCSD(T), (RO)-DLPNO pert. Triples
   Michael Roemelt        : Original ROCIS implementation
   Masaaki Saitow         : Open-shell DLPNO-CCSD energy and density
   Barbara Sandhoefer     : DKH picture change effects
   Kantharuban Sivalingam : CASSCF convergence/infrastructure, NEVPT2 and variants, FIC-MRCI
   Bernardo de Souza      : ESD, SOC TD-DFT
   Georgi Stoychev        : AutoAux, RI-MP2 NMR, DLPNO-MP2 response, X2C
   Van Anh Tran           : RI-MP2 g-tensors
   Willem Van den Heuvel  : Paramagnetic NMR
   Zikuan Wang            : NOTCH, Electric field optimization 
   Frank Wennmohs         : Technical directorship and infrastructure
   Hang Xu                : AUTO-CI-Response properties 


 We gratefully acknowledge several colleagues who have allowed us to
 interface, adapt or use parts of their codes:
   Stefan Grimme, W. Hujo, H. Kruse, P. Pracht,  : VdW corrections, initial TS optimization,
                  C. Bannwarth, S. Ehlert,         DFT functionals, gCP, sTDA/sTD-DF
                  L. Wittmann, M. Mueller
   Ed Valeev, F. Pavosevic, A. Kumar             : LibInt (2-el integral package), F12 methods
   Garnet Chan, S. Sharma, J. Yang, R. Olivares  : DMRG
   Ulf Ekstrom                                   : XCFun DFT Library
   Mihaly Kallay                                 : mrcc  (arbitrary order and MRCC methods)
   Frank Weinhold                                : gennbo (NPA and NBO analysis)
   Simon Mueller                                 : openCOSMO-RS
   Christopher J. Cramer and Donald G. Truhlar   : smd solvation model
   Lars Goerigk                                  : TD-DFT with DH, B97 family of functionals
   V. Asgeirsson, H. Jonsson                     : NEB implementation
   FAccTs GmbH                                   : IRC, NEB, NEB-TS, DLPNO-Multilevel, CI-OPT
                                                   MM, QMMM, 2- and 3-layer-ONIOM, Crystal-QMMM,
                                                   LR-CPCM, SF, NACMEs, symmetry and pop. for TD-DFT,
                                                   nearIR, NL-DFT gradient (VV10), updates on ESD,
                                                   ML-optimized integration grids, MBIS, APM,
                                                   GOAT, DOCKER, SOLVATOR, interface openCOSMO-RS
   S Lehtola, MJT Oliveira, MAL Marques          : LibXC Library
   Liviu Ungur et al                             : ANISO software


 Your calculation uses the libint2 library for the computation of 2-el integrals
 For citations please refer to: http://libint.valeyev.net

 Your ORCA version has been built with support for libXC version: 6.2.2
 For citations please refer to: https://libxc.gitlab.io

 This ORCA versions uses:
   CBLAS   interface :  Fast vector & matrix operations
   LAPACKE interface :  Fast linear algebra routines
   SCALAPACK package :  Parallel linear algebra routines
   Shared memory     :  Shared parallel matrices
   BLAS/LAPACK       :  OpenBLAS 0.3.27  USE64BITINT DYNAMIC_ARCH NO_AFFINITY SkylakeX SINGLE_THREADED
        Core in use  :  SkylakeX
   Copyright (c) 2011-2014, The OpenBLAS Project




***************************************
The coordinates will be read from file: xtb_opt.xyz
***************************************


Your calculation utilizes the geometrical counterpoise correction gCP
Please cite in your paper:
H.Kruse, S. Grimme J.Chem.Phys., 136, (2012), 154101 
   

Your calculation utilizes the atom-pairwise dispersion correction
based on EEQ partial charges (D4)


Your calculation utilizes the SMD solvation module
Please cite in your paper:
A.V. Marenich, C.J. Cramer, D.G. Truhlar J. Phys. Chem. B, 113, (2009), 6378 

================================================================================

----- Orbital basis set information -----
Your calculation utilizes the basis: def2-mTZVPP
   Stefan Grimme, Andreas Hansen, Sebastian Ehlert, and Jan-Michael Mewes 
   J. Chem. Phys. 154, 064103 (2021). DOI: 10.1063/5.0040021

----- AuxJ basis set information -----
Your calculation utilizes the auxiliary basis: def2/J
   F. Weigend, Phys. Chem. Chem. Phys. 8, 1057 (2006).

================================================================================
                                        WARNINGS
                       Please study these warnings very carefully!
================================================================================

Using LibXC functional ID 497 : Re-regularized SCAN exchange by Furness et al
[ 1]  J. W. Furness, A. D. Kaplan, J. Ning, J. P. Perdew, and J. Sun.,  J. Phys. Chem. Lett. 11, 8208-8215 (2020)
[ 2]  J. W. Furness, A. D. Kaplan, J. Ning, J. P. Perdew, and J. Sun.,  J. Phys. Chem. Lett. 11, 9248-9248 (2020)
Using LibXC functional ID 498 : Re-regularized SCAN correlation by Furness et al
[ 1]  J. W. Furness, A. D. Kaplan, J. Ning, J. P. Perdew, and J. Sun.,  J. Phys. Chem. Lett. 11, 8208-8215 (2020)
[ 2]  J. W. Furness, A. D. Kaplan, J. Ning, J. P. Perdew, and J. Sun.,  J. Phys. Chem. Lett. 11, 9248-9248 (2020)
Using LibXC functional ID 497 : Re-regularized SCAN exchange by Furness et al
[ 1]  J. W. Furness, A. D. Kaplan, J. Ning, J. P. Perdew, and J. Sun.,  J. Phys. Chem. Lett. 11, 8208-8215 (2020)
[ 2]  J. W. Furness, A. D. Kaplan, J. Ning, J. P. Perdew, and J. Sun.,  J. Phys. Chem. Lett. 11, 9248-9248 (2020)
Using LibXC functional ID 498 : Re-regularized SCAN correlation by Furness et al
[ 1]  J. W. Furness, A. D. Kaplan, J. Ning, J. P. Perdew, and J. Sun.,  J. Phys. Chem. Lett. 11, 8208-8215 (2020)
[ 2]  J. W. Furness, A. D. Kaplan, J. Ning, J. P. Perdew, and J. Sun.,  J. Phys. Chem. Lett. 11, 9248-9248 (2020)

================================================================================
                                       INPUT FILE
================================================================================
NAME = xtb_opt.inp
|  1> ! r2scan-3c def2/J RI DEFGRID2 scfconv7 ENGRAD tightSCF miniprint
|  2> %cpcm
|  3>     smd true
|  4>     smdsolvent "water"
|  5> end
|  6> * xyzfile 0 1 xtb_opt.xyz
|  7> 
|  8>                          ****END OF INPUT****
================================================================================

                     *******************************
                     * Energy+Gradient Calculation *
                     *******************************

---------------------------------
CARTESIAN COORDINATES (ANGSTROEM)
---------------------------------
  C     -2.645018    0.668799    0.089225
  C     -1.275949    0.139089    0.498771
  C     -0.567434   -0.543115   -0.669436
  C      0.815663   -1.078456   -0.271251
  C      1.718833   -0.013461    0.060931
  N      2.442514    0.838685    0.313030
  H     -3.277851   -0.142392   -0.263385
  H     -3.135821    1.146451    0.933090
  H     -2.547219    1.400559   -0.709401
  H     -0.658830    0.964338    0.863122
  H     -1.394230   -0.573341    1.318676
  H     -0.458339    0.166315   -1.492562
  H     -1.172229   -1.379961   -1.022500
  H      0.730014   -1.737213    0.596637
  H      1.255424   -1.643079   -1.097005

----------------------------
CARTESIAN COORDINATES (A.U.)
----------------------------
  NO LB      ZA    FRAG     MASS         X           Y           Z
   0 C     6.0000    0    12.011   -4.998360    1.263846    0.168610
   1 C     6.0000    0    12.011   -2.411194    0.262840    0.942541
   2 C     6.0000    0    12.011   -1.072295   -1.026338   -1.265051
   3 C     6.0000    0    12.011    1.541379   -2.037987   -0.512591
   4 C     6.0000    0    12.011    3.248123   -0.025438    0.115143
   5 N     7.0000    0    14.007    4.615683    1.584886    0.591542
   6 H     1.0000    0     1.008   -6.194241   -0.269082   -0.497725
   7 H     1.0000    0     1.008   -5.925842    2.166478    1.763284
   8 H     1.0000    0     1.008   -4.813547    2.646672   -1.340574
   9 H     1.0000    0     1.008   -1.245009    1.822334    1.631063
  10 H     1.0000    0     1.008   -2.634713   -1.083458    2.491937
  11 H     1.0000    0     1.008   -0.866136    0.314291   -2.820533
  12 H     1.0000    0     1.008   -2.215191   -2.607748   -1.932244
  13 H     1.0000    0     1.008    1.379527   -3.282856    1.127480
  14 H     1.0000    0     1.008    2.372407   -3.104969   -2.073038

------------------------------------------------------------------------------
                   ___                                                        
                  /   \      - P O W E R E D   B Y -                         
                 /     \                                                     
                 |  |  |   _    _      __       _____    __    __             
                 |  |  |  | |  | |    /  \     |  _  \  |  |  /  |          
                  \  \/   | |  | |   /    \    | | | |  |  | /  /          
                 / \  \   | |__| |  /  /\  \   | |_| |  |  |/  /          
                |  |  |   |  __  | /  /__\  \  |    /   |      \           
                |  |  |   | |  | | |   __   |  |    \   |  |\   \          
                \     /   | |  | | |  |  |  |  | |\  \  |  | \   \       
                 \___/    |_|  |_| |__|  |__|  |_| \__\ |__|  \__/        
                                                                              
                      - O R C A' S   B I G   F R I E N D -                    
                                      &                                       
                       - I N T E G R A L  F E E D E R -                       
                                                                              
 v1 FN, 2020, v2 2021, v3 2022-2024                                           
------------------------------------------------------------------------------


----------------------
SHARK INTEGRAL PACKAGE
----------------------

Number of atoms                             ...     15
Number of basis functions                   ...    164
Number of shells                            ...     82
Maximum angular momentum                    ...      2
Integral batch strategy                     ... SHARK/LIBINT Hybrid
RI-J (if used) integral strategy            ... SPLIT-RIJ (Revised 2003 algorithm where possible)
Printlevel                                  ...      1
Contraction scheme used                     ... SEGMENTED contraction
Prescreening option                         ... SCHWARTZ
   Thresh                                   ... 3.000e-11
   Tcut                                     ... 1.000e-12
   Tpresel                                  ... 1.000e-12 
Coulomb Range Separation                    ... NOT USED
Exchange Range Separation                   ... NOT USED
Multipole approximations                    ... NOT USED
Finite Nucleus Model                        ... NOT USED
CABS basis                                  ... NOT available
Auxiliary Coulomb fitting basis             ... AVAILABLE
   # of basis functions in Aux-J            ...    393
   # of shells in Aux-J                     ...    135
   Maximum angular momentum in Aux-J        ...      4
Auxiliary J/K fitting basis                 ... NOT available
Auxiliary Correlation fitting basis         ... NOT available
Auxiliary 'external' fitting basis          ... NOT available

Checking pre-screening integrals            ... done (  0.0 sec) Dimension = 82
Check shell pair data                       ... done (  0.0 sec)
Shell pair information
Shell pair cut-off parameter TPreSel        ...   1.0e-12
Total number of shell pairs                 ...      3403
Shell pairs after pre-screening             ...      3160
Total number of primitive shell pairs       ...     12094
Primitive shell pairs kept                  ...      8392
          la=0 lb=0:   1078 shell pairs
          la=1 lb=0:   1209 shell pairs
          la=1 lb=1:    359 shell pairs
          la=2 lb=0:    310 shell pairs
          la=2 lb=1:    177 shell pairs
          la=2 lb=2:     27 shell pairs

Calculating one electron integrals          ... done (  0.0 sec)
Calculating RI/J V-Matrix + Cholesky decomp.... done (  0.1 sec)
Calculating Nuclear repulsion               ... done (  0.0 sec) ENN=    217.028010096855 Eh

Diagonalization of the overlap matrix:
Smallest eigenvalue                        ... 1.197e-04
Time for diagonalization                   ...    0.007 sec
Threshold for overlap eigenvalues          ... 1.000e-07
Number of eigenvalues below threshold      ... 0
Time for construction of square roots      ...    0.019 sec
Total time needed                          ...    0.036 sec

-------------------
DFT GRID GENERATION
-------------------

General Integration Accuracy     IntAcc      ... 4.388
Radial Grid Type                 RadialGrid  ... OptM3 with GC (2021)
Angular Grid (max. ang.)         AngularGrid ... 4 (Lebedev-302)
Angular grid pruning method      GridPruning ... 4 (adaptive)
Weight generation scheme         WeightScheme... mBecke (2022)
Basis function cutoff            BFCut       ... 1.0000e-11
Integration weight cutoff        WCut        ... 1.0000e-14
Partially contracted basis set               ... off
Rotationally invariant grid construction     ... off
Angular grids for H and He will be reduced by one unit

Total number of grid points                  ...    65177
Total number of batches                      ...     1026
Average number of points per batch           ...       63
Average number of grid points per atom       ...     4345
Initializing property integral containers    ... done (  0.0 sec)

SHARK setup successfully completed in   0.9 seconds

Maximum memory used throughout the entire STARTUP-calculation: 28.8 MB
Occupation numbers will be reassigned to an Aufbau configuration
             **** ENERGY FILE WAS UPDATED (xtb_opt.en.tmp) ****
Finished Guess after   0.2 sec
Maximum memory used throughout the entire GUESS-calculation: 11.1 MB
--------------------
CPCM SOLVATION MODEL
--------------------
CPCM parameters:
  Epsilon                                         ...      78.3550
  Refrac                                          ...       1.3328
  Rsolv                                           ...       1.3000
  Surface type                                    ... GAUSSIAN VDW
  Discretization scheme                           ... Constant charge density
    Threshold for H atoms                         ...       5.0000 (charges/Ang^2)
    Threshold for non-H atoms                     ...       5.0000 (charges/Ang^2)
  Epsilon function type                           ...         CPCM
Solvent:                                          ... WATER
SMD-CDS solvent descriptors:
  Soln                                            ...       1.3328
  Soln25                                          ...       1.3323
  Sola                                            ...       0.0000
  Solb                                            ...       0.0000
  Solg                                            ...       0.0000
  Solc                                            ...       0.0000
  Solh                                            ...       0.0000
Radii:
  Scheme                                          ... Element-dependent radii
  Radius for C  used is    3.4960 Bohr (=   1.8500 Ang.)
  Radius for N  used is    3.5716 Bohr (=   1.8900 Ang.)
  Radius for H  used is    2.2677 Bohr (=   1.2000 Ang.)
Calculating surface                               ...        done! (  0.0s)
Cavity surface points                             ...         1226
Cavity Volume                                     ...     741.9337
Cavity Surface-area                               ...     494.5312
Calculating surface distance matrix               ...        done! (  0.0s)
Performing Cholesky decomposition & store         ...        done! (  0.1s)
Overall time for CPCM initialization              ...                 0.1s

----------------------------------------D-I-I-S--------------------------------------------
Iteration    Energy (Eh)           Delta-E    RMSDP     MaxDP     DIISErr   Damp  Time(sec)
-------------------------------------------------------------------------------------------
               ***  Starting incremental Fock matrix formation  ***
                              *** Initializing SOSCF ***
---------------------------------------S-O-S-C-F--------------------------------------
Iteration    Energy (Eh)           Delta-E    RMSDP     MaxDP     MaxGrad    Time(sec)
--------------------------------------------------------------------------------------
    1    -250.6286198527238582     0.00e+00  2.67e-06  4.28e-05  5.02e-06     1.9
               *** Restarting incremental Fock matrix formation ***
    2    -250.6286198600872979    -7.36e-09  2.82e-06  4.59e-05  1.25e-05     1.9
                  *** Gradient check signals convergence ***

               *****************************************************
               *                     SUCCESS                       *
               *           SCF CONVERGED AFTER   2 CYCLES          *
               *****************************************************


SMD CDS free energy correction energy :                 4.45646     Kcal/mol
Total Energy after SMD CDS correction =              -250.621518037 Eh
             **** ENERGY FILE WAS UPDATED (xtb_opt.en.tmp) ****

----------------
TOTAL SCF ENERGY
----------------

Total Energy       :       -250.62151803689537 Eh           -6819.75822 eV

Components:
Nuclear Repulsion  :        217.02801009685479 Eh            5905.63239 eV
Electronic Energy  :       -467.64029251557565 Eh          -12725.13929 eV
One Electron Energy:       -765.90151155806620 Eh          -20841.23968 eV
Two Electron Energy:        298.26121904249055 Eh            8116.10038 eV
CPCM Dielectric    :         -0.01633744136642 Eh              -0.44456 eV
SMD CDS (Gcds)     :          0.00710182319194 Eh               0.19325 eV

Virial components:
Potential Energy   :       -500.17467985720998 Eh          -13610.44498 eV
Kinetic Energy     :        249.55316182031461 Eh            6790.68676 eV
Virial Ratio       :          2.00428107666033

DFT components:
N(Alpha)           :       23.000066029002 electrons
N(Beta)            :       23.000066029002 electrons
N(Total)           :       46.000132058003 electrons
E(X)               :      -35.837397468244 Eh       
E(C)               :       -1.433948099749 Eh       
E(XC)              :      -37.271345567993 Eh       

CPCM Solvation Model Properties:
Surface-charge          :         -0.03652623827049
Corrected charge        :         -0.00000000000000
Outlying charge corr.   :          0.00010851900562 Eh               0.00295 eV
Free-energy (cav+disp)  :          0.00710182319194 Eh               0.19325 eV

---------------
SCF CONVERGENCE
---------------

  Last Energy change         ...    7.3634e-09  Tolerance :   1.0000e-07
  Last MAX-Density change    ...    4.5857e-05  Tolerance :   1.0000e-07
  Last RMS-Density change    ...    2.8196e-06  Tolerance :   5.0000e-09
  Last DIIS Error            ...    5.3911e-05  Tolerance :   1.0000e-07
  Last Orbital Gradient      ...    1.2472e-05  Tolerance :   1.0000e-04
  Last Orbital Rotation      ...    2.0938e-05  Tolerance :   1.0000e-04


----------------
ORBITAL ENERGIES
----------------

  NO   OCC          E(Eh)            E(eV) 
   0   2.0000     -14.154778      -385.1711 
   1   2.0000     -10.074495      -274.1409 
   2   2.0000     -10.063418      -273.8395 
   3   2.0000     -10.034095      -273.0416 
   4   2.0000     -10.021544      -272.7001 
   5   2.0000     -10.009741      -272.3789 
   6   2.0000      -0.882304       -24.0087 
   7   2.0000      -0.780385       -21.2353 
   8   2.0000      -0.717212       -19.5163 
   9   2.0000      -0.624032       -16.9808 
  10   2.0000      -0.552382       -15.0311 
  11   2.0000      -0.478178       -13.0119 
  12   2.0000      -0.431853       -11.7513 
  13   2.0000      -0.418846       -11.3974 
  14   2.0000      -0.403835       -10.9889 
  15   2.0000      -0.365136        -9.9359 
  16   2.0000      -0.347290        -9.4503 
  17   2.0000      -0.334195        -9.0939 
  18   2.0000      -0.325863        -8.8672 
  19   2.0000      -0.313252        -8.5240 
  20   2.0000      -0.298636        -8.1263 
  21   2.0000      -0.294352        -8.0097 
  22   2.0000      -0.288038        -7.8379 
  23   0.0000       0.005712         0.1554 
  24   0.0000       0.011547         0.3142 
  25   0.0000       0.070185         1.9098 
  26   0.0000       0.112876         3.0715 
  27   0.0000       0.136708         3.7200 
  28   0.0000       0.138145         3.7591 
  29   0.0000       0.147987         4.0269 
  30   0.0000       0.152444         4.1482 
  31   0.0000       0.163810         4.4575 
  32   0.0000       0.186054         5.0628 
  33   0.0000       0.194414         5.2903 
*Only the first 10 virtual orbitals were printed.
Total SCF time: 0 days 0 hours 0 min 4 sec 
Finished LeanSCF after   4.4 sec

Maximum memory used throughout the entire LEANSCF-calculation: 20.8 MB


-------------------------------------------------------------------------------
                          DFT DISPERSION CORRECTION                            
                                                                               
                                DFTD4 V3.4.0                                   
-------------------------------------------------------------------------------
-------------------------   ----------------
Dispersion correction           -0.003489437
-------------------------   ----------------

------------------   -----------------
gCP correction             0.006171438
------------------   -----------------

-------------------------   --------------------
FINAL SINGLE POINT ENERGY      -250.618836035704
-------------------------   --------------------

------------------------------------------------------------------------------
                         ORCA SCF GRADIENT CALCULATION
------------------------------------------------------------------------------

Nuc. rep. gradient        (SHARK) ... done (  0.0 sec)
HCore & Overlap gradient  (SHARK) ... done (  0.2 sec)
Split-RIJ-J gradient      (SHARK) ... done (  0.8 sec)
XC gradient                       ... done (  3.2 sec)
CPCM gradient                     ... done (  0.5 sec)
SMD gradient                      ... done (  0.0 sec)
Dispersion correction             ... done (  0.0 sec)

-------------------
DISPERSION GRADIENT
-------------------

   1   C   :   -0.000073643    0.000026985    0.000003972
   2   C   :   -0.000040319    0.000006615    0.000019096
   3   C   :   -0.000007620   -0.000020609   -0.000023598
   4   C   :    0.000039344   -0.000039474   -0.000009426
   5   C   :    0.000074365   -0.000000854    0.000000970
   6   N   :    0.000097765    0.000040345    0.000014777
   7   H   :   -0.000029111    0.000006358    0.000001175
   8   H   :   -0.000025718    0.000013222    0.000008871
   9   H   :   -0.000028602    0.000017073   -0.000002436
  10   H   :   -0.000012899    0.000011639    0.000009499
  11   H   :   -0.000022059   -0.000002871    0.000015868
  12   H   :   -0.000000763   -0.000001885   -0.000017287
  13   H   :   -0.000007664   -0.000017586   -0.000012891
  14   H   :    0.000017697   -0.000020735    0.000003672
  15   H   :    0.000019228   -0.000018223   -0.000012263

Difference to translation invariance:
           :   -0.0000000000    0.0000000000    0.0000000000

Difference to rotation invariance:
           :    0.0000000000    0.0000000000   -0.0000000000

Norm of the Dispersion gradient    ...    0.0001894104
RMS gradient                       ...    0.0000282356
MAX gradient                       ...    0.0000977648
gCP correction                   ... done

------------------
CARTESIAN GRADIENT
------------------

   1   C   :   -0.005522619    0.001145041   -0.002669096
   2   C   :    0.002486411    0.000604533    0.005275846
   3   C   :    0.001746414   -0.003149667   -0.006108899
   4   C   :    0.005828284    0.003775677    0.004483842
   5   C   :    0.011230921    0.016877860    0.004103456
   6   N   :   -0.018184211   -0.022712300   -0.006643706
   7   H   :    0.003744695    0.003060367    0.001781175
   8   H   :    0.003569537   -0.002431666   -0.002959489
   9   H   :    0.000734643   -0.003486782    0.003802425
  10   H   :   -0.001698402   -0.001798396   -0.002053329
  11   H   :   -0.001301147    0.001683515   -0.002527991
  12   H   :   -0.000275952   -0.000355019    0.002762007
  13   H   :   -0.000075526    0.002423650    0.001456203
  14   H   :   -0.000727092    0.002260236   -0.000781803
  15   H   :   -0.001555957    0.002102950    0.000079361

Difference to translation invariance:
           :   -0.0000000000    0.0000000000   -0.0000000000

Difference to rotation invariance:
           :    0.0001195405   -0.0001402059   -0.0001201841

Norm of the Cartesian gradient     ...    0.0405183264
RMS gradient                       ...    0.0060401155
MAX gradient                       ...    0.0227123002

-------
TIMINGS
-------

Total SCF gradient time     ....        5.214 sec

Densities                   ....       0.000 sec  (  0.0%)
One electron gradient       ....       0.151 sec  (  2.9%)
RI-J Coulomb gradient       ....       0.800 sec  ( 15.4%)
XC gradient                 ....       3.249 sec  ( 62.3%)
CPCM gradient               ....       0.499 sec  (  9.6%)
   A-Matrix (El+Nuc)        ....       0.050 sec  (  1.0%)
   Potential                ....       0.449 sec  (  8.6%)
SMD gradient                ....       0.013 sec  (  0.3%)

Maximum memory used throughout the entire SCFGRAD-calculation: 31.2 MB

------------------------------------------------------------------------------
                              ORCA PROPERTY CALCULATIONS
------------------------------------------------------------------------------

GBWName                                 ... xtb_opt.gbw
Number of atoms                         ...     15
Number of basis functions               ...    164
Max core memory                         ...   1024 MB

Electric properties:
Dipole moment                           ... YES
Quadrupole moment                       ...  NO
Static polarizability (Dipole/Dipole)   ...  NO
Static polarizability (Dipole/Quad.)    ...  NO
Static polarizability (Quad./Quad.)     ...  NO
Static polarizability (Velocity)        ...  NO

Atomic electric properties:
Dipole moment                           ...  NO
Quadrupole moment                       ...  NO
Static polarizability                   ...  NO

Choice of electric origin               ... Center of mass
Position of electric origin             ...    -0.000010    -0.000002    -0.000001

General magnetic properties:
Magnetizability                         ...  NO

EPR properties:
g-Tensor (aka g-matrix)                 ...  NO
Zero-Field splitting spin-orbit         ...  NO
Zero-field splitting spin-spin          ...  NO
Hyperfine couplings                     ...  NO (   0 nuclei)
Quadrupole couplings                    ...  NO (   0 nuclei)
Contact density                         ...  NO (   0 nuclei)

NMR properties:
Chemical shifts                         ...  NO (   0 nuclei)
Spin-rotation constants                 ...  NO (   0 nuclei)
Spin-spin couplings                     ...  NO (   0 nuclei,    0 pairs)

Choice of magnetic origin               ... GIAO
Position of magnetic origin             ...     0.000000     0.000000     0.000000

Properties with geometric perturbations:
SCF Hessian                             ...  NO
IR spectrum                             ...  NO
VCD spectrum                            ...  NO
X-ray spectroscopy properties:
SCF XES/XAS/RIXS spectra                ...  NO


-------------
DIPOLE MOMENT
-------------

Method             : SCF
Type of density    : Electron Density
Multiplicity       :   1
Irrep              :   0
Energy             :  -250.6215180368953668 Eh
Relativity type    : 
Basis              : AO
                                X                 Y                 Z
Electronic contribution:      8.533181406       0.165534112       0.340406728
Nuclear contribution   :     -9.986606138      -1.682518463      -0.817607985
                        -----------------------------------------
Total Dipole Moment    :     -1.453424732      -1.516984351      -0.477201256
                        -----------------------------------------
Magnitude (a.u.)       :      2.154392260
Magnitude (Debye)      :      5.476029938



--------------------
Rotational spectrum 
--------------------
 
Rotational constants in cm-1:             0.261767             0.060046             0.052617 
Rotational constants in MHz :          7847.564532          1800.128717          1577.411313 

Dipole components along the rotational axes: 
x,y,z [a.u.] :    -1.384770    -1.631677     0.247883 
x,y,z [Debye]:    -3.519807    -4.147394     0.630068 

 

Dipole moment calculation done in   0.0 sec 

Maximum memory used throughout the entire PROP-calculation: 9.5 MB

--------------------------------
SUGGESTED CITATIONS FOR THIS RUN
--------------------------------

Below you find a list of papers that are relevant to this ORCA run
We neither can nor want to force you to cite these papers, but we appreciate if you do
You receive ORCA, which is the product of decades of hard work by many enthusiastic individuals, for free
The only thing we kindly ask in return is that you cite our papers,
We deeply appreciate it, if you show your appreciation for ORCA by not just citing the generic ORCA reference.

Please note that relegating all ORCA citations to the supporting information does *not* help us.
SI sections are not indexed - citations you put there will not count into any citation statistics
But we need these citations in order to attract the funding resources that allow us to do what we are doing

Therefore, if you are a happy ORCA user, please consider citing a few of the papers listed below in the main body of your paper

In addition to the list printed below, the program has created the file xtb_opt.bibtex that contains the list in bibtex format
You can import this file easily into all common literature databanks and citation aid programs


List of essential papers. We consider these as the minimum necessary citations

  1. Neese,F.
     Software update: the ORCA program system, version 5.0
     WIRES Comput. Molec. Sci., 2022 12(1)e1606
     doi.org/10.1002/wcms.1606
  2. Grimme,S.; Hansen,A.; Ehlert,S.; Mewes,J.
     r2SCAN-3c: A 'Swiss army knife' composite electronic-structure method
     J. Chem. Phys., 2021 154 064103
     doi.org/10.1063/5.0040021

List of papers to cite with high priority. The work reported in these papers was absolutely
necessary for this run to complete.
Our perspective: the developers of density functionals and basis sets usually get cited in chemistry papers
Good! But without the algorithms to do something with them, the functionals or basis sets would not do anything.
Hence, in our opinion, the algorithm design and method developments papers are equally worthy of getting cited

  1. Neese,F.
     An improvement of the resolution of the identity approximation for the formation of the Coulomb matrix
     J. Comp. Chem., 2003 24(14)1740-1747
     doi.org/10.1002/jcc.10318
  2. Garcia-Rates,M.; Neese,F.
     Effect of the Solute Cavity on the Solvation Energy and its Derivatives within the Framework of the Gaussian Charge Scheme
     J. Comput. Chem., 2020 41 922-939
     doi.org/10.1002/jcc.26139
  3. Neese,F.
     The SHARK Integral Generation and Digestion System
     J. Comp. Chem., 2022  1-16
     doi.org/10.1002/jcc.26942
  4. Lehtola,S.; Steigemann,C.; Oliveira,M.; Marques,M.
     Recent developments in Libxc - A comprehensive library of functionals for density functional theory
     Software X, 2018 7 
     doi.org/10.1016/j.softx.2017.11.002
  5. Caldeweyher,E.; Bannwarth,C.; Grimme,S.
     Extension of the D3 dispersion coefficient model
     J. Chem. Phys., 2017 147 034112-XXXX
     doi.org/10.1063/1.4993215
  6. Caldeweyher,E.; Ehlert,S.; Hansen,A.; Neugebauer,H.; Spicher,S.; Bannwarth,C.; Grimme,S.
     A generally applicable atomic-charge dependent London dispersion correction
     J. Chem. Phys., 2019 150 154122-XXXX
     doi.org/10.1063/1.5090222
  7. Caldeweyher,E.; Mewes,J.; Ehlert,S.; Grimme,S.
     Extension and evaluation of the D4 London-dispersion model for periodic systems
     Phys. Chem. Chem. Phys., 2020 22(16)8499-8512
     doi.org/10.1039/D0CP00502A

List of suggested additional citations. These are papers that are important in the 'surrounding' of 
of this run, or papers that preceded the highly important papers. If you like your results we are grateful for a citation.

  1. Neese,F.
     The ORCA program system
     WIRES Comput. Molec. Sci., 2012 2(1)73-78
     doi.org/10.1002/wcms.81
  2. Neese,F.
     Software update: the ORCA program system, version 4.0
     WIRES Comput. Molec. Sci., 2018 8(1)1-6
     doi.org/10.1002/wcms.1327
  3. Neese,F.; Wennmohs,F.; Becker,U.; Riplinger,C.
     The ORCA quantum chemistry program package
     J. Chem. Phys., 2020 152 Art. No. L224108
     doi.org/10.1063/5.0004608

List of optional additional citations

  1. Neese,F.
     Approximate second-order SCF convergence for spin unrestricted wavefunctions
     Chem. Phys. Lett., 2000 325(1-3)93-98
     doi.org/10.1016/s0009-2614(00)00662-x

Timings for individual modules:

Sum of individual times          ...       11.074 sec (=   0.185 min)
Startup calculation              ...        0.980 sec (=   0.016 min)   8.9 %
SCF iterations                   ...        4.657 sec (=   0.078 min)  42.1 %
Property calculations            ...        0.109 sec (=   0.002 min)   1.0 %
SCF Gradient evaluation          ...        5.327 sec (=   0.089 min)  48.1 %
                             ****ORCA TERMINATED NORMALLY****
TOTAL RUN TIME: 0 days 0 hours 0 minutes 11 seconds 910 msec
  ------------------------------------------------------------------------
          * successful ORCA run, taking over control again...

         :::::::::::::::::::::::::::::::::::::::::::::::::::::
         ::                  ORCA SUMMARY                   ::
         :::::::::::::::::::::::::::::::::::::::::::::::::::::
         :: total energy            -250.618836035704 Eh    ::
         :: gradient norm              0.040518326381 Eh/a0 ::
         :: HOMO-LUMO gap              0.000000000000 eV    ::
         :::::::::::::::::::::::::::::::::::::::::::::::::::::

      ----------------------------------------------------------- 
     |                       L-ANC optimizer                     |
      ----------------------------------------------------------- 
          low memory version by Sebastian Ehlert

          ...................................................
          :                      SETUP                      :
          :.................................................:
          :   energy convergence        0.5000000E-05 Eh    :
          :   grad. convergence         0.1000000E-02 Eh/a0 :
          :   optimization log               true           :
          :   writing optlog all                1     steps :
          :   Hessian reset                     8     steps :
          :   maximium step len.        1.0000000     a0    :
          :   LBFGS images                      8           :
          ...................................................
 * calculating model hessian...
Using Lindh-Hessian (1995)
 Shifting diagonal of input Hessian by   1.000000000000000E-002
 Lowest  eigenvalues of input Hessian
    0.000000    0.000000    0.000000    0.000000    0.000000    0.000000
    0.012654    0.013957    0.017455    0.018464    0.021876    0.027604
    0.048393    0.052583    0.061503    0.064006    0.065150    0.066107
 Highest eigenvalues
    1.165053    1.177385    1.200984    1.234461    1.275648    2.567474
 

........................................................................
.............................. CYCLE    1 ..............................
........................................................................
                         * ORCA takes the control...
  ------------------------------------------------------------------------

                                 *****************
                                 * O   R   C   A *
                                 *****************

                                            #,                                       
                                            ###                                      
                                            ####                                     
                                            #####                                    
                                            ######                                   
                                           ########,                                 
                                     ,,################,,,,,                         
                               ,,#################################,,                 
                          ,,##########################################,,             
                       ,#########################################, ''#####,          
                    ,#############################################,,   '####,        
                  ,##################################################,,,,####,       
                ,###########''''           ''''###############################       
              ,#####''   ,,,,##########,,,,          '''####'''          '####       
            ,##' ,,,,###########################,,,                        '##       
           ' ,,###''''                  '''############,,,                           
         ,,##''                                '''############,,,,        ,,,,,,###''
      ,#''                                            '''#######################'''  
     '                                                          ''''####''''         
             ,#######,   #######,   ,#######,      ##                                
            ,#'     '#,  ##    ##  ,#'     '#,    #''#        ,####,   ,####,        
            ##       ##  ##   ,#'  ##            #'  '#       #'       #'  '#        
            ##       ##  #######   ##           ,######,      #####,   #    #        
            '#,     ,#'  ##    ##  '#,     ,#' ,#      #,     #,   #   #,  ,#        
             '#######'   ##     ##  '#######'  #'      '#     '####' # '####'        



                #########################################################
                #                        -***-                          #
                #          Department of theory and spectroscopy        #
                #                                                       #
                #                      Frank Neese                      #
                #                                                       #
                #     Directorship, Architecture, Infrastructure        #
                #                    SHARK, DRIVERS                     #
                #        Core code/Algorithms in most modules           #
                #                                                       #
                #        Max Planck Institute fuer Kohlenforschung      #
                #                Kaiser Wilhelm Platz 1                 #
                #                 D-45470 Muelheim/Ruhr                 #
                #                      Germany                          #
                #                                                       #
                #                  All rights reserved                  #
                #                        -***-                          #
                #########################################################


                         Program Version 6.0.0  -   RELEASE  -


 With contributions from (in alphabetic order):
   Daniel Aravena         : Magnetic Suceptibility
   Michael Atanasov       : Ab Initio Ligand Field Theory (pilot matlab implementation)
   Alexander A. Auer      : GIAO ZORA, VPT2 properties, NMR spectrum
   Ute Becker             : All parallelization in ORCA, NUMFREQ, NUMCALC
   Giovanni Bistoni       : ED, misc. LED, open-shell LED, HFLD
   Martin Brehm           : Molecular dynamics
   Dmytro Bykov           : pre 5.0 version of the SCF Hessian
   Marcos Casanova-Páez   : Triplet and SCS-CIS(D). UHF-(DLPNO)-IP/EA/STEOM-CCSD. UHF-CVS-IP/STEOM-CCSD
   Vijay G. Chilkuri      : MRCI spin determinant printing, contributions to CSF-ICE
   Pauline Colinet        : FMM embedding
   Dipayan Datta          : RHF DLPNO-CCSD density
   Achintya Kumar Dutta   : EOM-CC, STEOM-CC
   Nicolas Foglia         : Exact transition moments, OPA infrastructure, MCD improvements
   Dmitry Ganyushin       : Spin-Orbit,Spin-Spin,Magnetic field MRCI
   Miquel Garcia          : C-PCM and meta-GGA Hessian, CCSD/C-PCM, Gaussian charge scheme
   Tiago L. C. Gouveia    : GS-ROHF, GS-ROCIS
   Yang Guo               : DLPNO-NEVPT2, F12-NEVPT2, CIM, IAO-localization
   Andreas Hansen         : Spin unrestricted coupled pair/coupled cluster methods
   Ingolf Harden          : AUTO-CI MPn and infrastructure 
   Benjamin Helmich-Paris : MC-RPA, TRAH-(SCF,CASSCF), AVAS, COSX integrals, SCF dyn. polar.
   Lee Huntington         : MR-EOM, pCC
   Robert Izsak           : Overlap fitted RIJCOSX, COSX-SCS-MP3, EOM
   Riya Kayal             : Wick's Theorem for AUTO-CI, AUTO-CI UHF-CCSDT
   Emily Kempfer          : AUTO-CI, RHF CISDT and CCSDT
   Christian Kollmar      : KDIIS, OOCD, Brueckner-CCSD(T), CCSD density, CASPT2, CASPT2-K, improved NEVPT2
   Axel Koslowski         : Symmetry handling
   Simone Kossmann        : Meta GGA functionals, TD-DFT gradient, OOMP2, (MP2 Hessian; deprecated post 5.0)
   Lucas Lang             : DCDCAS
   Marvin Lechner         : AUTO-CI (C++ implementation), FIC-MRCC
   Spencer Leger          : CASSCF response
   Dagmar Lenk            : GEPOL surface, SMD, ORCA-2-JSON
   Dimitrios Liakos       : Extrapolation schemes; Compound Job, initial MDCI parallelization
   Dimitrios Manganas     : Further ROCIS development; embedding schemes. LFT, Crystal Embedding
   Dimitrios Pantazis     : SARC Basis sets
   Anastasios Papadopoulos: AUTO-CI, single reference methods and gradients
   Taras Petrenko         : pre 6.0 DFT Hessian and TD-DFT gradient, (ASA, deprecated), ECA, 1-Electron XAS/XES, NRVS
   Peter Pinski           : DLPNO-MP2, DLPNO-MP2 Gradient
   Christoph Reimann      : Effective Core Potentials
   Marius Retegan         : Local ZFS, SOC
   Christoph Riplinger    : Optimizer, TS searches, QM/MM, DLPNO-CCSD(T), (RO)-DLPNO pert. Triples
   Michael Roemelt        : Original ROCIS implementation
   Masaaki Saitow         : Open-shell DLPNO-CCSD energy and density
   Barbara Sandhoefer     : DKH picture change effects
   Kantharuban Sivalingam : CASSCF convergence/infrastructure, NEVPT2 and variants, FIC-MRCI
   Bernardo de Souza      : ESD, SOC TD-DFT
   Georgi Stoychev        : AutoAux, RI-MP2 NMR, DLPNO-MP2 response, X2C
   Van Anh Tran           : RI-MP2 g-tensors
   Willem Van den Heuvel  : Paramagnetic NMR
   Zikuan Wang            : NOTCH, Electric field optimization 
   Frank Wennmohs         : Technical directorship and infrastructure
   Hang Xu                : AUTO-CI-Response properties 


 We gratefully acknowledge several colleagues who have allowed us to
 interface, adapt or use parts of their codes:
   Stefan Grimme, W. Hujo, H. Kruse, P. Pracht,  : VdW corrections, initial TS optimization,
                  C. Bannwarth, S. Ehlert,         DFT functionals, gCP, sTDA/sTD-DF
                  L. Wittmann, M. Mueller
   Ed Valeev, F. Pavosevic, A. Kumar             : LibInt (2-el integral package), F12 methods
   Garnet Chan, S. Sharma, J. Yang, R. Olivares  : DMRG
   Ulf Ekstrom                                   : XCFun DFT Library
   Mihaly Kallay                                 : mrcc  (arbitrary order and MRCC methods)
   Frank Weinhold                                : gennbo (NPA and NBO analysis)
   Simon Mueller                                 : openCOSMO-RS
   Christopher J. Cramer and Donald G. Truhlar   : smd solvation model
   Lars Goerigk                                  : TD-DFT with DH, B97 family of functionals
   V. Asgeirsson, H. Jonsson                     : NEB implementation
   FAccTs GmbH                                   : IRC, NEB, NEB-TS, DLPNO-Multilevel, CI-OPT
                                                   MM, QMMM, 2- and 3-layer-ONIOM, Crystal-QMMM,
                                                   LR-CPCM, SF, NACMEs, symmetry and pop. for TD-DFT,
                                                   nearIR, NL-DFT gradient (VV10), updates on ESD,
                                                   ML-optimized integration grids, MBIS, APM,
                                                   GOAT, DOCKER, SOLVATOR, interface openCOSMO-RS
   S Lehtola, MJT Oliveira, MAL Marques          : LibXC Library
   Liviu Ungur et al                             : ANISO software


 Your calculation uses the libint2 library for the computation of 2-el integrals
 For citations please refer to: http://libint.valeyev.net

 Your ORCA version has been built with support for libXC version: 6.2.2
 For citations please refer to: https://libxc.gitlab.io

 This ORCA versions uses:
   CBLAS   interface :  Fast vector & matrix operations
   LAPACKE interface :  Fast linear algebra routines
   SCALAPACK package :  Parallel linear algebra routines
   Shared memory     :  Shared parallel matrices
   BLAS/LAPACK       :  OpenBLAS 0.3.27  USE64BITINT DYNAMIC_ARCH NO_AFFINITY SkylakeX SINGLE_THREADED
        Core in use  :  SkylakeX
   Copyright (c) 2011-2014, The OpenBLAS Project




***************************************
The coordinates will be read from file: xtb_opt.xyz
***************************************


Your calculation utilizes the geometrical counterpoise correction gCP
Please cite in your paper:
H.Kruse, S. Grimme J.Chem.Phys., 136, (2012), 154101 
   

Your calculation utilizes the atom-pairwise dispersion correction
based on EEQ partial charges (D4)


Your calculation utilizes the SMD solvation module
Please cite in your paper:
A.V. Marenich, C.J. Cramer, D.G. Truhlar J. Phys. Chem. B, 113, (2009), 6378 

================================================================================

----- Orbital basis set information -----
Your calculation utilizes the basis: def2-mTZVPP
   Stefan Grimme, Andreas Hansen, Sebastian Ehlert, and Jan-Michael Mewes 
   J. Chem. Phys. 154, 064103 (2021). DOI: 10.1063/5.0040021

----- AuxJ basis set information -----
Your calculation utilizes the auxiliary basis: def2/J
   F. Weigend, Phys. Chem. Chem. Phys. 8, 1057 (2006).

================================================================================
                                        WARNINGS
                       Please study these warnings very carefully!
================================================================================

WARNING: Old DensityContainer found on disk!
         Will remove this file - 
         If you want to keep old densities, please start your calculation with a different basename. 

Using LibXC functional ID 497 : Re-regularized SCAN exchange by Furness et al
[ 1]  J. W. Furness, A. D. Kaplan, J. Ning, J. P. Perdew, and J. Sun.,  J. Phys. Chem. Lett. 11, 8208-8215 (2020)
[ 2]  J. W. Furness, A. D. Kaplan, J. Ning, J. P. Perdew, and J. Sun.,  J. Phys. Chem. Lett. 11, 9248-9248 (2020)
Using LibXC functional ID 498 : Re-regularized SCAN correlation by Furness et al
[ 1]  J. W. Furness, A. D. Kaplan, J. Ning, J. P. Perdew, and J. Sun.,  J. Phys. Chem. Lett. 11, 8208-8215 (2020)
[ 2]  J. W. Furness, A. D. Kaplan, J. Ning, J. P. Perdew, and J. Sun.,  J. Phys. Chem. Lett. 11, 9248-9248 (2020)
Using LibXC functional ID 497 : Re-regularized SCAN exchange by Furness et al
[ 1]  J. W. Furness, A. D. Kaplan, J. Ning, J. P. Perdew, and J. Sun.,  J. Phys. Chem. Lett. 11, 8208-8215 (2020)
[ 2]  J. W. Furness, A. D. Kaplan, J. Ning, J. P. Perdew, and J. Sun.,  J. Phys. Chem. Lett. 11, 9248-9248 (2020)
Using LibXC functional ID 498 : Re-regularized SCAN correlation by Furness et al
[ 1]  J. W. Furness, A. D. Kaplan, J. Ning, J. P. Perdew, and J. Sun.,  J. Phys. Chem. Lett. 11, 8208-8215 (2020)
[ 2]  J. W. Furness, A. D. Kaplan, J. Ning, J. P. Perdew, and J. Sun.,  J. Phys. Chem. Lett. 11, 9248-9248 (2020)

================================================================================
                                       INPUT FILE
================================================================================
NAME = xtb_opt.inp
|  1> ! r2scan-3c def2/J RI DEFGRID2 scfconv7 ENGRAD tightSCF miniprint
|  2> %cpcm
|  3>     smd true
|  4>     smdsolvent "water"
|  5> end
|  6> * xyzfile 0 1 xtb_opt.xyz
|  7> 
|  8>                          ****END OF INPUT****
================================================================================

                     *******************************
                     * Energy+Gradient Calculation *
                     *******************************

---------------------------------
CARTESIAN COORDINATES (ANGSTROEM)
---------------------------------
  C     -2.651629    0.674373    0.092021
  C     -1.280223    0.143504    0.498569
  C     -0.565540   -0.540114   -0.663961
  C      0.819770   -1.086660   -0.278114
  C      1.745514   -0.032002    0.062745
  N      2.436460    0.865956    0.319429
  H     -3.290518   -0.138658   -0.264268
  H     -3.153135    1.155180    0.935282
  H     -2.560001    1.409663   -0.712391
  H     -0.660775    0.968893    0.869298
  H     -1.387347   -0.571389    1.322539
  H     -0.455916    0.161606   -1.497391
  H     -1.163508   -1.383992   -1.020970
  H      0.736596   -1.754359    0.586052
  H      1.259780   -1.658782   -1.100899

----------------------------
CARTESIAN COORDINATES (A.U.)
----------------------------
  NO LB      ZA    FRAG     MASS         X           Y           Z
   0 C     6.0000    0    12.011   -5.010853    1.274380    0.173895
   1 C     6.0000    0    12.011   -2.419272    0.271183    0.942159
   2 C     6.0000    0    12.011   -1.068715   -1.020667   -1.254705
   3 C     6.0000    0    12.011    1.549140   -2.053489   -0.525559
   4 C     6.0000    0    12.011    3.298543   -0.060475    0.118572
   5 N     7.0000    0    14.007    4.604242    1.636419    0.603633
   6 H     1.0000    0     1.008   -6.218178   -0.262026   -0.499394
   7 H     1.0000    0     1.008   -5.958562    2.182973    1.767428
   8 H     1.0000    0     1.008   -4.837700    2.663876   -1.346223
   9 H     1.0000    0     1.008   -1.248684    1.830942    1.642734
  10 H     1.0000    0     1.008   -2.621705   -1.079769    2.499237
  11 H     1.0000    0     1.008   -0.861557    0.305392   -2.829660
  12 H     1.0000    0     1.008   -2.198711   -2.615365   -1.929354
  13 H     1.0000    0     1.008    1.391964   -3.315258    1.107477
  14 H     1.0000    0     1.008    2.380639   -3.134645   -2.080397

------------------------------------------------------------------------------
                   ___                                                        
                  /   \      - P O W E R E D   B Y -                         
                 /     \                                                     
                 |  |  |   _    _      __       _____    __    __             
                 |  |  |  | |  | |    /  \     |  _  \  |  |  /  |          
                  \  \/   | |  | |   /    \    | | | |  |  | /  /          
                 / \  \   | |__| |  /  /\  \   | |_| |  |  |/  /          
                |  |  |   |  __  | /  /__\  \  |    /   |      \           
                |  |  |   | |  | | |   __   |  |    \   |  |\   \          
                \     /   | |  | | |  |  |  |  | |\  \  |  | \   \       
                 \___/    |_|  |_| |__|  |__|  |_| \__\ |__|  \__/        
                                                                              
                      - O R C A' S   B I G   F R I E N D -                    
                                      &                                       
                       - I N T E G R A L  F E E D E R -                       
                                                                              
 v1 FN, 2020, v2 2021, v3 2022-2024                                           
------------------------------------------------------------------------------


----------------------
SHARK INTEGRAL PACKAGE
----------------------

Number of atoms                             ...     15
Number of basis functions                   ...    164
Number of shells                            ...     82
Maximum angular momentum                    ...      2
Integral batch strategy                     ... SHARK/LIBINT Hybrid
RI-J (if used) integral strategy            ... SPLIT-RIJ (Revised 2003 algorithm where possible)
Printlevel                                  ...      1
Contraction scheme used                     ... SEGMENTED contraction
Prescreening option                         ... SCHWARTZ
   Thresh                                   ... 3.000e-11
   Tcut                                     ... 1.000e-12
   Tpresel                                  ... 1.000e-12 
Coulomb Range Separation                    ... NOT USED
Exchange Range Separation                   ... NOT USED
Multipole approximations                    ... NOT USED
Finite Nucleus Model                        ... NOT USED
CABS basis                                  ... NOT available
Auxiliary Coulomb fitting basis             ... AVAILABLE
   # of basis functions in Aux-J            ...    393
   # of shells in Aux-J                     ...    135
   Maximum angular momentum in Aux-J        ...      4
Auxiliary J/K fitting basis                 ... NOT available
Auxiliary Correlation fitting basis         ... NOT available
Auxiliary 'external' fitting basis          ... NOT available

Checking pre-screening integrals            ... done (  0.0 sec) Dimension = 82
Check shell pair data                       ... done (  0.0 sec)
Shell pair information
Shell pair cut-off parameter TPreSel        ...   1.0e-12
Total number of shell pairs                 ...      3403
Shell pairs after pre-screening             ...      3159
Total number of primitive shell pairs       ...     12094
Primitive shell pairs kept                  ...      8387
          la=0 lb=0:   1077 shell pairs
          la=1 lb=0:   1209 shell pairs
          la=1 lb=1:    359 shell pairs
          la=2 lb=0:    310 shell pairs
          la=2 lb=1:    177 shell pairs
          la=2 lb=2:     27 shell pairs

Calculating one electron integrals          ... done (  0.0 sec)
Calculating RI/J V-Matrix + Cholesky decomp.... done (  0.1 sec)
Calculating Nuclear repulsion               ... done (  0.0 sec) ENN=    216.003979880976 Eh

Diagonalization of the overlap matrix:
Smallest eigenvalue                        ... 1.276e-04
Time for diagonalization                   ...    0.003 sec
Threshold for overlap eigenvalues          ... 1.000e-07
Number of eigenvalues below threshold      ... 0
Time for construction of square roots      ...    0.013 sec
Total time needed                          ...    0.024 sec

-------------------
DFT GRID GENERATION
-------------------

General Integration Accuracy     IntAcc      ... 4.388
Radial Grid Type                 RadialGrid  ... OptM3 with GC (2021)
Angular Grid (max. ang.)         AngularGrid ... 4 (Lebedev-302)
Angular grid pruning method      GridPruning ... 4 (adaptive)
Weight generation scheme         WeightScheme... mBecke (2022)
Basis function cutoff            BFCut       ... 1.0000e-11
Integration weight cutoff        WCut        ... 1.0000e-14
Partially contracted basis set               ... off
Rotationally invariant grid construction     ... off
Angular grids for H and He will be reduced by one unit

Total number of grid points                  ...    65191
Total number of batches                      ...     1026
Average number of points per batch           ...       63
Average number of grid points per atom       ...     4346
Initializing property integral containers    ... done (  0.0 sec)

SHARK setup successfully completed in   0.9 seconds

Maximum memory used throughout the entire STARTUP-calculation: 28.8 MB
Occupation numbers will be reassigned to an Aufbau configuration
             **** ENERGY FILE WAS UPDATED (xtb_opt.en.tmp) ****
Finished Guess after   0.3 sec
Maximum memory used throughout the entire GUESS-calculation: 11.1 MB
--------------------
CPCM SOLVATION MODEL
--------------------
CPCM parameters:
  Epsilon                                         ...      78.3550
  Refrac                                          ...       1.3328
  Rsolv                                           ...       1.3000
  Surface type                                    ... GAUSSIAN VDW
  Discretization scheme                           ... Constant charge density
    Threshold for H atoms                         ...       5.0000 (charges/Ang^2)
    Threshold for non-H atoms                     ...       5.0000 (charges/Ang^2)
  Epsilon function type                           ...         CPCM
Solvent:                                          ... WATER
SMD-CDS solvent descriptors:
  Soln                                            ...       1.3328
  Soln25                                          ...       1.3323
  Sola                                            ...       0.0000
  Solb                                            ...       0.0000
  Solg                                            ...       0.0000
  Solc                                            ...       0.0000
  Solh                                            ...       0.0000
Radii:
  Scheme                                          ... Element-dependent radii
  Radius for C  used is    3.4960 Bohr (=   1.8500 Ang.)
  Radius for N  used is    3.5716 Bohr (=   1.8900 Ang.)
  Radius for H  used is    2.2677 Bohr (=   1.2000 Ang.)
Calculating surface                               ...        done! (  0.0s)
Cavity surface points                             ...         1243
Cavity Volume                                     ...     746.2417
Cavity Surface-area                               ...     497.8688
Calculating surface distance matrix               ...        done! (  0.0s)
Performing Cholesky decomposition & store         ...        done! (  0.1s)
Overall time for CPCM initialization              ...                 0.1s

----------------------------------------D-I-I-S--------------------------------------------
Iteration    Energy (Eh)           Delta-E    RMSDP     MaxDP     DIISErr   Damp  Time(sec)
-------------------------------------------------------------------------------------------
               ***  Starting incremental Fock matrix formation  ***
    1    -250.6275489959786569     0.00e+00  1.69e-04  3.39e-03  2.45e-02  0.700   2.0
    2    -250.6280521510219614    -5.03e-04  1.52e-04  3.06e-03  1.86e-02  0.700   1.7
                               ***Turning on AO-DIIS***
    3    -250.6284225891070037    -3.70e-04  1.15e-04  2.35e-03  1.34e-02  0.700   1.7
    4    -250.6286807677020079    -2.58e-04  2.77e-04  5.62e-03  9.47e-03  0.000   1.6
                              *** Initializing SOSCF ***
---------------------------------------S-O-S-C-F--------------------------------------
Iteration    Energy (Eh)           Delta-E    RMSDP     MaxDP     MaxGrad    Time(sec)
--------------------------------------------------------------------------------------
    5    -250.6292875022049884    -6.07e-04  1.86e-05  5.28e-04  6.22e-04     1.6
               *** Restarting incremental Fock matrix formation ***
    6    -250.6292883627024253    -8.60e-07  1.82e-05  4.52e-04  1.65e-04     1.9
    7    -250.6292863114834404     2.05e-06  1.30e-05  3.32e-04  4.36e-04     1.5
    8    -250.6292887799072560    -2.47e-06  4.60e-06  8.23e-05  2.38e-05     1.5
                  *** Gradient check signals convergence ***

               *****************************************************
               *                     SUCCESS                       *
               *           SCF CONVERGED AFTER   8 CYCLES          *
               *****************************************************


SMD CDS free energy correction energy :                 4.42372     Kcal/mol
Total Energy after SMD CDS correction =              -250.622239139 Eh
             **** ENERGY FILE WAS UPDATED (xtb_opt.en.tmp) ****

----------------
TOTAL SCF ENERGY
----------------

Total Energy       :       -250.62223913919652 Eh           -6819.77784 eV

Components:
Nuclear Repulsion  :        216.00397988097569 Eh            5877.76711 eV
Electronic Energy  :       -466.61677953293855 Eh          -12697.28809 eV
One Electron Energy:       -763.89048807627580 Eh          -20786.51695 eV
Two Electron Energy:        297.27370854333725 Eh            8089.22886 eV
CPCM Dielectric    :         -0.01648912794438 Eh              -0.44869 eV
SMD CDS (Gcds)     :          0.00704964071074 Eh               0.19183 eV

Virial components:
Potential Energy   :       -500.02185927891207 Eh          -13606.28652 eV
Kinetic Energy     :        249.39962013971555 Eh            6786.50868 eV
Virial Ratio       :          2.00490224884383

DFT components:
N(Alpha)           :       23.000069368501 electrons
N(Beta)            :       23.000069368501 electrons
N(Total)           :       46.000138737002 electrons
E(X)               :      -35.801786362959 Eh       
E(C)               :       -1.432505974539 Eh       
E(XC)              :      -37.234292337499 Eh       

CPCM Solvation Model Properties:
Surface-charge          :         -0.03669874047102
Corrected charge        :         -0.00000000000000
Outlying charge corr.   :          0.00010932660737 Eh               0.00297 eV
Free-energy (cav+disp)  :          0.00704964071074 Eh               0.19183 eV

---------------
SCF CONVERGENCE
---------------

  Last Energy change         ...    2.4684e-06  Tolerance :   1.0000e-07
  Last MAX-Density change    ...    8.2269e-05  Tolerance :   1.0000e-07
  Last RMS-Density change    ...    4.5957e-06  Tolerance :   5.0000e-09
  Last DIIS Error            ...    6.2152e-04  Tolerance :   1.0000e-07
  Last Orbital Gradient      ...    2.3823e-05  Tolerance :   1.0000e-04
  Last Orbital Rotation      ...    3.8563e-05  Tolerance :   1.0000e-04


----------------
ORBITAL ENERGIES
----------------

  NO   OCC          E(Eh)            E(eV) 
   0   2.0000     -14.158826      -385.2812 
   1   2.0000     -10.079410      -274.2747 
   2   2.0000     -10.065598      -273.8988 
   3   2.0000     -10.035760      -273.0869 
   4   2.0000     -10.023317      -272.7483 
   5   2.0000     -10.012409      -272.4515 
   6   2.0000      -0.877028       -23.8651 
   7   2.0000      -0.778709       -21.1898 
   8   2.0000      -0.716294       -19.4913 
   9   2.0000      -0.624211       -16.9856 
  10   2.0000      -0.552284       -15.0284 
  11   2.0000      -0.477276       -12.9874 
  12   2.0000      -0.430367       -11.7109 
  13   2.0000      -0.418109       -11.3773 
  14   2.0000      -0.402982       -10.9657 
  15   2.0000      -0.364406        -9.9160 
  16   2.0000      -0.347368        -9.4524 
  17   2.0000      -0.333443        -9.0735 
  18   2.0000      -0.325862        -8.8672 
  19   2.0000      -0.311940        -8.4883 
  20   2.0000      -0.297569        -8.0973 
  21   2.0000      -0.293296        -7.9810 
  22   2.0000      -0.288675        -7.8552 
  23   0.0000      -0.000259        -0.0070 
  24   0.0000       0.006426         0.1749 
  25   0.0000       0.067729         1.8430 
  26   0.0000       0.112595         3.0639 
  27   0.0000       0.136670         3.7190 
  28   0.0000       0.138553         3.7702 
  29   0.0000       0.147266         4.0073 
  30   0.0000       0.150822         4.1041 
  31   0.0000       0.161361         4.3909 
  32   0.0000       0.183982         5.0064 
  33   0.0000       0.192696         5.2435 
*Only the first 10 virtual orbitals were printed.
Total SCF time: 0 days 0 hours 0 min 13 sec 
Finished LeanSCF after  14.1 sec

Maximum memory used throughout the entire LEANSCF-calculation: 21.1 MB


-------------------------------------------------------------------------------
                          DFT DISPERSION CORRECTION                            
                                                                               
                                DFTD4 V3.4.0                                   
-------------------------------------------------------------------------------
-------------------------   ----------------
Dispersion correction           -0.003477541
-------------------------   ----------------

------------------   -----------------
gCP correction             0.006127618
------------------   -----------------

-------------------------   --------------------
FINAL SINGLE POINT ENERGY      -250.619589062056
-------------------------   --------------------

------------------------------------------------------------------------------
                         ORCA SCF GRADIENT CALCULATION
------------------------------------------------------------------------------

Nuc. rep. gradient        (SHARK) ... done (  0.0 sec)
HCore & Overlap gradient  (SHARK) ... done (  0.2 sec)
Split-RIJ-J gradient      (SHARK) ... done (  0.8 sec)
XC gradient                       ... done (  3.5 sec)
CPCM gradient                     ... done (  0.5 sec)
SMD gradient                      ... done (  0.0 sec)
Dispersion correction             ... done (  0.0 sec)

-------------------
DISPERSION GRADIENT
-------------------

   1   C   :   -0.000073646    0.000027153    0.000003990
   2   C   :   -0.000040840    0.000006837    0.000019367
   3   C   :   -0.000007645   -0.000020997   -0.000023790
   4   C   :    0.000039187   -0.000040035   -0.000009752
   5   C   :    0.000074782   -0.000001166    0.000001043
   6   N   :    0.000097621    0.000041738    0.000015100
   7   H   :   -0.000028908    0.000006533    0.000001252
   8   H   :   -0.000025362    0.000013065    0.000008628
   9   H   :   -0.000028405    0.000016966   -0.000002287
  10   H   :   -0.000013088    0.000011846    0.000009653
  11   H   :   -0.000022050   -0.000002849    0.000015981
  12   H   :   -0.000000762   -0.000001946   -0.000017445
  13   H   :   -0.000007448   -0.000017641   -0.000012881
  14   H   :    0.000017550   -0.000021029    0.000003498
  15   H   :    0.000019012   -0.000018475   -0.000012357

Difference to translation invariance:
           :    0.0000000000    0.0000000000   -0.0000000000

Difference to rotation invariance:
           :    0.0000000000   -0.0000000000    0.0000000000

Norm of the Dispersion gradient    ...    0.0001901103
RMS gradient                       ...    0.0000283400
MAX gradient                       ...    0.0000976208
gCP correction                   ... done

------------------
CARTESIAN GRADIENT
------------------

   1   C   :   -0.002045487    0.000836058   -0.000523240
   2   C   :   -0.000010554    0.000232319    0.001317247
   3   C   :    0.000604733   -0.002047547   -0.001049451
   4   C   :    0.000323805    0.003043724    0.000500718
   5   C   :   -0.002413647   -0.009824079   -0.001887639
   6   N   :    0.002178289    0.006005088    0.001099165
   7   H   :    0.001145048    0.000553541    0.000455745
   8   H   :    0.000797628   -0.000538811   -0.000622792
   9   H   :    0.000372706   -0.000849693    0.000851501
[...]
Two Electron Energy:        297.12678245351964 Eh            8085.23080 eV
CPCM Dielectric    :         -0.01642247808056 Eh              -0.44688 eV
SMD CDS (Gcds)     :          0.00706959272782 Eh               0.19237 eV

Virial components:
Potential Energy   :       -500.01124420318808 Eh          -13605.99767 eV
Kinetic Energy     :        249.38882633668717 Eh            6786.21497 eV
Virial Ratio       :          2.00494645870039

DFT components:
N(Alpha)           :       23.000073844657 electrons
N(Beta)            :       23.000073844657 electrons
N(Total)           :       46.000147689313 electrons
E(X)               :      -35.798149122463 Eh       
E(C)               :       -1.432273068113 Eh       
E(XC)              :      -37.230422190576 Eh       

CPCM Solvation Model Properties:
Surface-charge          :         -0.03674898519807
Corrected charge        :          0.00000000000000
Outlying charge corr.   :          0.00010956388023 Eh               0.00298 eV
Free-energy (cav+disp)  :          0.00706959272782 Eh               0.19237 eV

---------------
SCF CONVERGENCE
---------------

  Last Energy change         ...    1.0410e-09  Tolerance :   1.0000e-07
  Last MAX-Density change    ...    9.9721e-06  Tolerance :   1.0000e-07
  Last RMS-Density change    ...    4.8539e-07  Tolerance :   5.0000e-09
  Last DIIS Error            ...    1.3158e-05  Tolerance :   1.0000e-07
  Last Orbital Gradient      ...    2.5847e-06  Tolerance :   1.0000e-04
  Last Orbital Rotation      ...    3.9953e-06  Tolerance :   1.0000e-04


----------------
ORBITAL ENERGIES
----------------

  NO   OCC          E(Eh)            E(eV) 
   0   2.0000     -14.158389      -385.2693 
   1   2.0000     -10.078987      -274.2632 
   2   2.0000     -10.066280      -273.9174 
   3   2.0000     -10.035857      -273.0896 
   4   2.0000     -10.023929      -272.7650 
   5   2.0000     -10.013206      -272.4732 
   6   2.0000      -0.878060       -23.8932 
   7   2.0000      -0.778242       -21.1770 
   8   2.0000      -0.715688       -19.4749 
   9   2.0000      -0.623577       -16.9684 
  10   2.0000      -0.552507       -15.0345 
  11   2.0000      -0.476308       -12.9610 
  12   2.0000      -0.430799       -11.7226 
  13   2.0000      -0.416502       -11.3336 
  14   2.0000      -0.402826       -10.9614 
  15   2.0000      -0.364364        -9.9149 
  16   2.0000      -0.347008        -9.4426 
  17   2.0000      -0.333502        -9.0750 
  18   2.0000      -0.326247        -8.8776 
  19   2.0000      -0.312223        -8.4960 
  20   2.0000      -0.298417        -8.1203 
  21   2.0000      -0.292574        -7.9613 
  22   2.0000      -0.289303        -7.8723 
  23   0.0000       0.001283         0.0349 
  24   0.0000       0.006898         0.1877 
  25   0.0000       0.068414         1.8617 
  26   0.0000       0.112785         3.0690 
  27   0.0000       0.136116         3.7039 
  28   0.0000       0.138377         3.7654 
  29   0.0000       0.146688         3.9916 
  30   0.0000       0.151185         4.1140 
  31   0.0000       0.161916         4.4060 
  32   0.0000       0.183389         4.9903 
  33   0.0000       0.191931         5.2227 
*Only the first 10 virtual orbitals were printed.
Total SCF time: 0 days 0 hours 0 min 4 sec 
Finished LeanSCF after   4.4 sec

Maximum memory used throughout the entire LEANSCF-calculation: 21.1 MB


-------------------------------------------------------------------------------
                          DFT DISPERSION CORRECTION                            
                                                                               
                                DFTD4 V3.4.0                                   
-------------------------------------------------------------------------------
-------------------------   ----------------
Dispersion correction           -0.003474148
-------------------------   ----------------

------------------   -----------------
gCP correction             0.006110410
------------------   -----------------

-------------------------   --------------------
FINAL SINGLE POINT ENERGY      -250.619781604550
-------------------------   --------------------

------------------------------------------------------------------------------
                         ORCA SCF GRADIENT CALCULATION
------------------------------------------------------------------------------

Nuc. rep. gradient        (SHARK) ... done (  0.0 sec)
HCore & Overlap gradient  (SHARK) ... done (  0.1 sec)
Split-RIJ-J gradient      (SHARK) ... done (  0.8 sec)
XC gradient                       ... done (  3.2 sec)
CPCM gradient                     ... done (  0.5 sec)
SMD gradient                      ... done (  0.0 sec)
Dispersion correction             ... done (  0.0 sec)

-------------------
DISPERSION GRADIENT
-------------------

   1   C   :   -0.000073622    0.000027043    0.000004023
   2   C   :   -0.000040583    0.000007740    0.000018885
   3   C   :   -0.000007940   -0.000021115   -0.000024348
   4   C   :    0.000039179   -0.000039987   -0.000010561
   5   C   :    0.000074464   -0.000001033    0.000001947
   6   N   :    0.000097687    0.000040419    0.000017475
   7   H   :   -0.000028904    0.000006452    0.000001462
   8   H   :   -0.000025296    0.000013025    0.000008583
   9   H   :   -0.000028178    0.000016726   -0.000002283
  10   H   :   -0.000012985    0.000012315    0.000009274
  11   H   :   -0.000021902   -0.000002447    0.000015981
  12   H   :   -0.000001091   -0.000002076   -0.000018058
  13   H   :   -0.000007340   -0.000017625   -0.000012754
  14   H   :    0.000017559   -0.000021299    0.000003044
  15   H   :    0.000018952   -0.000018136   -0.000012669

Difference to translation invariance:
           :    0.0000000000    0.0000000000    0.0000000000

Difference to rotation invariance:
           :   -0.0000000000    0.0000000000    0.0000000000

Norm of the Dispersion gradient    ...    0.0001899407
RMS gradient                       ...    0.0000283147
MAX gradient                       ...    0.0000976872
gCP correction                   ... done

------------------
CARTESIAN GRADIENT
------------------

   1   C   :   -0.000095025    0.000068746   -0.000027848
   2   C   :    0.000084929    0.000004450    0.000107081
   3   C   :    0.000009933   -0.000051919   -0.000076823
   4   C   :   -0.000084221    0.000100933   -0.000008418
   5   C   :    0.000345770    0.000450061    0.000121223
   6   N   :   -0.000339413   -0.000420649   -0.000124059
   7   H   :   -0.000007973   -0.000055243   -0.000064635
   8   H   :   -0.000016364   -0.000012088    0.000038452
   9   H   :    0.000040843    0.000078188   -0.000040026
  10   H   :    0.000060963    0.000035015   -0.000003730
  11   H   :   -0.000026376   -0.000022393    0.000056516
  12   H   :   -0.000032794   -0.000022914   -0.000013835
  13   H   :    0.000017266   -0.000040582    0.000057595
  14   H   :    0.000001315   -0.000082880    0.000030622
  15   H   :    0.000041146   -0.000028724   -0.000052114

Difference to translation invariance:
           :   -0.0000000000   -0.0000000000    0.0000000000

Difference to rotation invariance:
           :   -0.0000823465    0.0000239644   -0.0001924123

Norm of the Cartesian gradient     ...    0.0008669689
RMS gradient                       ...    0.0001292401
MAX gradient                       ...    0.0004500611

-------
TIMINGS
-------

Total SCF gradient time     ....        5.179 sec

Densities                   ....       0.000 sec  (  0.0%)
One electron gradient       ....       0.146 sec  (  2.8%)
RI-J Coulomb gradient       ....       0.818 sec  ( 15.8%)
XC gradient                 ....       3.221 sec  ( 62.2%)
CPCM gradient               ....       0.491 sec  (  9.5%)
   A-Matrix (El+Nuc)        ....       0.051 sec  (  1.0%)
   Potential                ....       0.439 sec  (  8.5%)
SMD gradient                ....       0.013 sec  (  0.3%)

Maximum memory used throughout the entire SCFGRAD-calculation: 31.2 MB

------------------------------------------------------------------------------
                              ORCA PROPERTY CALCULATIONS
------------------------------------------------------------------------------

GBWName                                 ... xtb_opt.gbw
Number of atoms                         ...     15
Number of basis functions               ...    164
Max core memory                         ...   1024 MB

Electric properties:
Dipole moment                           ... YES
Quadrupole moment                       ...  NO
Static polarizability (Dipole/Dipole)   ...  NO
Static polarizability (Dipole/Quad.)    ...  NO
Static polarizability (Quad./Quad.)     ...  NO
Static polarizability (Velocity)        ...  NO

Atomic electric properties:
Dipole moment                           ...  NO
Quadrupole moment                       ...  NO
Static polarizability                   ...  NO

Choice of electric origin               ... Center of mass
Position of electric origin             ...     0.005003    -0.001150     0.024595

General magnetic properties:
Magnetizability                         ...  NO

EPR properties:
g-Tensor (aka g-matrix)                 ...  NO
Zero-Field splitting spin-orbit         ...  NO
Zero-field splitting spin-spin          ...  NO
Hyperfine couplings                     ...  NO (   0 nuclei)
Quadrupole couplings                    ...  NO (   0 nuclei)
Contact density                         ...  NO (   0 nuclei)

NMR properties:
Chemical shifts                         ...  NO (   0 nuclei)
Spin-rotation constants                 ...  NO (   0 nuclei)
Spin-spin couplings                     ...  NO (   0 nuclei,    0 pairs)

Choice of magnetic origin               ... GIAO
Position of magnetic origin             ...     0.000000     0.000000     0.000000

Properties with geometric perturbations:
SCF Hessian                             ...  NO
IR spectrum                             ...  NO
VCD spectrum                            ...  NO
X-ray spectroscopy properties:
SCF XES/XAS/RIXS spectra                ...  NO


-------------
DIPOLE MOMENT
-------------

Method             : SCF
Type of density    : Electron Density
Multiplicity       :   1
Irrep              :   0
Energy             :  -250.6224178665009390 Eh
Relativity type    : 
Basis              : AO
                                X                 Y                 Z
Electronic contribution:      8.570495897       0.154640116       0.456074129
Nuclear contribution   :    -10.026076227      -1.674342062      -1.006850634
                        -----------------------------------------
Total Dipole Moment    :     -1.455580331      -1.519701947      -0.550776505
                        -----------------------------------------
Magnitude (a.u.)       :      2.175215590
Magnitude (Debye)      :      5.528958637



--------------------
Rotational spectrum 
--------------------
 
Rotational constants in cm-1:             0.257847             0.059611             0.051954 
Rotational constants in MHz :          7730.061456          1787.105150          1557.554614 

Dipole components along the rotational axes: 
x,y,z [a.u.] :    -1.386535    -1.657842     0.246261 
x,y,z [Debye]:    -3.524291    -4.213900     0.625947 

 

Dipole moment calculation done in   0.0 sec 

Maximum memory used throughout the entire PROP-calculation: 9.5 MB

--------------------------------
SUGGESTED CITATIONS FOR THIS RUN
--------------------------------

Below you find a list of papers that are relevant to this ORCA run
We neither can nor want to force you to cite these papers, but we appreciate if you do
You receive ORCA, which is the product of decades of hard work by many enthusiastic individuals, for free
The only thing we kindly ask in return is that you cite our papers,
We deeply appreciate it, if you show your appreciation for ORCA by not just citing the generic ORCA reference.

Please note that relegating all ORCA citations to the supporting information does *not* help us.
SI sections are not indexed - citations you put there will not count into any citation statistics
But we need these citations in order to attract the funding resources that allow us to do what we are doing

Therefore, if you are a happy ORCA user, please consider citing a few of the papers listed below in the main body of your paper

In addition to the list printed below, the program has created the file xtb_opt.bibtex that contains the list in bibtex format
You can import this file easily into all common literature databanks and citation aid programs


List of essential papers. We consider these as the minimum necessary citations

  1. Neese,F.
     Software update: the ORCA program system, version 5.0
     WIRES Comput. Molec. Sci., 2022 12(1)e1606
     doi.org/10.1002/wcms.1606
  2. Grimme,S.; Hansen,A.; Ehlert,S.; Mewes,J.
     r2SCAN-3c: A 'Swiss army knife' composite electronic-structure method
     J. Chem. Phys., 2021 154 064103
     doi.org/10.1063/5.0040021

List of papers to cite with high priority. The work reported in these papers was absolutely
necessary for this run to complete.
Our perspective: the developers of density functionals and basis sets usually get cited in chemistry papers
Good! But without the algorithms to do something with them, the functionals or basis sets would not do anything.
Hence, in our opinion, the algorithm design and method developments papers are equally worthy of getting cited

  1. Neese,F.
     An improvement of the resolution of the identity approximation for the formation of the Coulomb matrix
     J. Comp. Chem., 2003 24(14)1740-1747
     doi.org/10.1002/jcc.10318
  2. Garcia-Rates,M.; Neese,F.
     Effect of the Solute Cavity on the Solvation Energy and its Derivatives within the Framework of the Gaussian Charge Scheme
     J. Comput. Chem., 2020 41 922-939
     doi.org/10.1002/jcc.26139
  3. Neese,F.
     The SHARK Integral Generation and Digestion System
     J. Comp. Chem., 2022  1-16
     doi.org/10.1002/jcc.26942
  4. Lehtola,S.; Steigemann,C.; Oliveira,M.; Marques,M.
     Recent developments in Libxc - A comprehensive library of functionals for density functional theory
     Software X, 2018 7 
     doi.org/10.1016/j.softx.2017.11.002
  5. Caldeweyher,E.; Bannwarth,C.; Grimme,S.
     Extension of the D3 dispersion coefficient model
     J. Chem. Phys., 2017 147 034112-XXXX
     doi.org/10.1063/1.4993215
  6. Caldeweyher,E.; Ehlert,S.; Hansen,A.; Neugebauer,H.; Spicher,S.; Bannwarth,C.; Grimme,S.
     A generally applicable atomic-charge dependent London dispersion correction
     J. Chem. Phys., 2019 150 154122-XXXX
     doi.org/10.1063/1.5090222
  7. Caldeweyher,E.; Mewes,J.; Ehlert,S.; Grimme,S.
     Extension and evaluation of the D4 London-dispersion model for periodic systems
     Phys. Chem. Chem. Phys., 2020 22(16)8499-8512
     doi.org/10.1039/D0CP00502A

List of suggested additional citations. These are papers that are important in the 'surrounding' of 
of this run, or papers that preceded the highly important papers. If you like your results we are grateful for a citation.

  1. Neese,F.
     The ORCA program system
     WIRES Comput. Molec. Sci., 2012 2(1)73-78
     doi.org/10.1002/wcms.81
  2. Neese,F.
     Software update: the ORCA program system, version 4.0
     WIRES Comput. Molec. Sci., 2018 8(1)1-6
     doi.org/10.1002/wcms.1327
  3. Neese,F.; Wennmohs,F.; Becker,U.; Riplinger,C.
     The ORCA quantum chemistry program package
     J. Chem. Phys., 2020 152 Art. No. L224108
     doi.org/10.1063/5.0004608

List of optional additional citations

  1. Neese,F.
     Approximate second-order SCF convergence for spin unrestricted wavefunctions
     Chem. Phys. Lett., 2000 325(1-3)93-98
     doi.org/10.1016/s0009-2614(00)00662-x

Timings for individual modules:

Sum of individual times          ...       11.059 sec (=   0.184 min)
Startup calculation              ...        0.943 sec (=   0.016 min)   8.5 %
SCF iterations                   ...        4.726 sec (=   0.079 min)  42.7 %
Property calculations            ...        0.108 sec (=   0.002 min)   1.0 %
SCF Gradient evaluation          ...        5.282 sec (=   0.088 min)  47.8 %
                             ****ORCA TERMINATED NORMALLY****
TOTAL RUN TIME: 0 days 0 hours 0 minutes 11 seconds 933 msec
  ------------------------------------------------------------------------
          * successful ORCA run, taking over control again...

         :::::::::::::::::::::::::::::::::::::::::::::::::::::
         ::                  ORCA SUMMARY                   ::
         :::::::::::::::::::::::::::::::::::::::::::::::::::::
         :: total energy            -250.619781604550 Eh    ::
         :: gradient norm              0.000866968881 Eh/a0 ::
         :: HOMO-LUMO gap              0.000000000000 eV    ::
         :::::::::::::::::::::::::::::::::::::::::::::::::::::

           -------------------------------------------------
          |                Property Printout                |
           -------------------------------------------------
           -------------------------------------------------
          |                Geometry Summary                 |
           -------------------------------------------------

      molecular mass/u    :       83.1318495
   center of mass at/Å    :        0.0026524      -0.0006077       0.0130157
  moments of inertia/u·Å² :        0.6537628E+02   0.2827846E+03   0.3244611E+03
rotational constants/cm⁻¹ :        0.2578555E+00   0.5961298E-01   0.5195579E-01

 * 13 selected distances

     #   Z          #   Z                                           value/Å
     1   6 C        2   6 C                                       1.5257178
     2   6 C        3   6 C                                       1.5253010
     3   6 C        4   6 C                                       1.5391623 (max)
     5   6 C        6   7 N                                       1.1585467
     1   6 C        7   1 H                                       1.0957517
     1   6 C        8   1 H                                       1.0944370 (min)
     1   6 C        9   1 H                                       1.0957131
     2   6 C       10   1 H                                       1.0980419
     2   6 C       11   1 H                                       1.0975699
     3   6 C       12   1 H                                       1.0959161
     3   6 C       13   1 H                                       1.0954112
     4   6 C       14   1 H                                       1.0964631
     4   6 C       15   1 H                                       1.0954023

 * 3 distinct bonds (by element types)

   Z      Z             #   av. dist./Å        max./Å        min./Å
   1 H    6 C           9     1.0960785     1.0980419     1.0944370
   6 C    6 C           3     1.5300604     1.5391623     1.5253010
   6 C    7 N           1     1.1585467     1.1585467     1.1585467


optimized geometry written to: xtbopt.coord


           -------------------------------------------------
          | TOTAL ENERGY             -250.619781604550 Eh   |
          | GRADIENT NORM               0.000866968881 Eh/α |
           -------------------------------------------------

------------------------------------------------------------------------
 * finished run on 2025/04/11 at 11:45:08.438     
------------------------------------------------------------------------
 total:
 * wall-time:     0 d,  0 h,  2 min, 57.755 sec
 *  cpu-time:     0 d,  0 h,  0 min,  0.731 sec
 * ratio c/w:     0.004 speedup
 SCF:
 * wall-time:     0 d,  0 h,  0 min, 12.013 sec
 *  cpu-time:     0 d,  0 h,  0 min,  0.132 sec
 * ratio c/w:     0.011 speedup
 ANC optimizer:
 * wall-time:     0 d,  0 h,  2 min, 45.718 sec
 *  cpu-time:     0 d,  0 h,  0 min,  0.593 sec
 * ratio c/w:     0.004 speedup

