
                                 *****************
                                 * O   R   C   A *
                                 *****************

                                            #,                                       
                                            ###                                      
                                            ####                                     
                                            #####                                    
                                            ######                                   
                                           ########,                                 
                                     ,,################,,,,,                         
                               ,,#################################,,                 
                          ,,##########################################,,             
                       ,#########################################, ''#####,          
                    ,#############################################,,   '####,        
                  ,##################################################,,,,####,       
                ,###########''''           ''''###############################       
              ,#####''   ,,,,##########,,,,          '''####'''          '####       
            ,##' ,,,,###########################,,,                        '##       
           ' ,,###''''                  '''############,,,                           
         ,,##''                                '''############,,,,        ,,,,,,###''
      ,#''                                            '''#######################'''  
     '                                                          ''''####''''         
             ,#######,   #######,   ,#######,      ##                                
            ,#'     '#,  ##    ##  ,#'     '#,    #''#        ,####,   ,####,        
            ##       ##  ##   ,#'  ##            #'  '#       #'       #'  '#        
            ##       ##  #######   ##           ,######,      #####,   #    #        
            '#,     ,#'  ##    ##  '#,     ,#' ,#      #,     #,   #   #,  ,#        
             '#######'   ##     ##  '#######'  #'      '#     '####' # '####'        



                #########################################################
                #                        -***-                          #
                #          Department of theory and spectroscopy        #
                #                                                       #
                #                      Frank Neese                      #
                #                                                       #
                #     Directorship, Architecture, Infrastructure        #
                #                    SHARK, DRIVERS                     #
                #        Core code/Algorithms in most modules           #
                #                                                       #
                #        Max Planck Institute fuer Kohlenforschung      #
                #                Kaiser Wilhelm Platz 1                 #
                #                 D-45470 Muelheim/Ruhr                 #
                #                      Germany                          #
                #                                                       #
                #                  All rights reserved                  #
                #                        -***-                          #
                #########################################################


                         Program Version 6.0.0  -   RELEASE  -


 With contributions from (in alphabetic order):
   Daniel Aravena         : Magnetic Suceptibility
   Michael Atanasov       : Ab Initio Ligand Field Theory (pilot matlab implementation)
   Alexander A. Auer      : GIAO ZORA, VPT2 properties, NMR spectrum
   Ute Becker             : All parallelization in ORCA, NUMFREQ, NUMCALC
   Giovanni Bistoni       : ED, misc. LED, open-shell LED, HFLD
   Martin Brehm           : Molecular dynamics
   Dmytro Bykov           : pre 5.0 version of the SCF Hessian
   Marcos Casanova-Páez   : Triplet and SCS-CIS(D). UHF-(DLPNO)-IP/EA/STEOM-CCSD. UHF-CVS-IP/STEOM-CCSD
   Vijay G. Chilkuri      : MRCI spin determinant printing, contributions to CSF-ICE
   Pauline Colinet        : FMM embedding
   Dipayan Datta          : RHF DLPNO-CCSD density
   Achintya Kumar Dutta   : EOM-CC, STEOM-CC
   Nicolas Foglia         : Exact transition moments, OPA infrastructure, MCD improvements
   Dmitry Ganyushin       : Spin-Orbit,Spin-Spin,Magnetic field MRCI
   Miquel Garcia          : C-PCM and meta-GGA Hessian, CCSD/C-PCM, Gaussian charge scheme
   Tiago L. C. Gouveia    : GS-ROHF, GS-ROCIS
   Yang Guo               : DLPNO-NEVPT2, F12-NEVPT2, CIM, IAO-localization
   Andreas Hansen         : Spin unrestricted coupled pair/coupled cluster methods
   Ingolf Harden          : AUTO-CI MPn and infrastructure 
   Benjamin Helmich-Paris : MC-RPA, TRAH-(SCF,CASSCF), AVAS, COSX integrals, SCF dyn. polar.
   Lee Huntington         : MR-EOM, pCC
   Robert Izsak           : Overlap fitted RIJCOSX, COSX-SCS-MP3, EOM
   Riya Kayal             : Wick's Theorem for AUTO-CI, AUTO-CI UHF-CCSDT
   Emily Kempfer          : AUTO-CI, RHF CISDT and CCSDT
   Christian Kollmar      : KDIIS, OOCD, Brueckner-CCSD(T), CCSD density, CASPT2, CASPT2-K, improved NEVPT2
   Axel Koslowski         : Symmetry handling
   Simone Kossmann        : Meta GGA functionals, TD-DFT gradient, OOMP2, (MP2 Hessian; deprecated post 5.0)
   Lucas Lang             : DCDCAS
   Marvin Lechner         : AUTO-CI (C++ implementation), FIC-MRCC
   Spencer Leger          : CASSCF response
   Dagmar Lenk            : GEPOL surface, SMD, ORCA-2-JSON
   Dimitrios Liakos       : Extrapolation schemes; Compound Job, initial MDCI parallelization
   Dimitrios Manganas     : Further ROCIS development; embedding schemes. LFT, Crystal Embedding
   Dimitrios Pantazis     : SARC Basis sets
   Anastasios Papadopoulos: AUTO-CI, single reference methods and gradients
   Taras Petrenko         : pre 6.0 DFT Hessian and TD-DFT gradient, (ASA, deprecated), ECA, 1-Electron XAS/XES, NRVS
   Peter Pinski           : DLPNO-MP2, DLPNO-MP2 Gradient
   Christoph Reimann      : Effective Core Potentials
   Marius Retegan         : Local ZFS, SOC
   Christoph Riplinger    : Optimizer, TS searches, QM/MM, DLPNO-CCSD(T), (RO)-DLPNO pert. Triples
   Michael Roemelt        : Original ROCIS implementation
   Masaaki Saitow         : Open-shell DLPNO-CCSD energy and density
   Barbara Sandhoefer     : DKH picture change effects
   Kantharuban Sivalingam : CASSCF convergence/infrastructure, NEVPT2 and variants, FIC-MRCI
   Bernardo de Souza      : ESD, SOC TD-DFT
   Georgi Stoychev        : AutoAux, RI-MP2 NMR, DLPNO-MP2 response, X2C
   Van Anh Tran           : RI-MP2 g-tensors
   Willem Van den Heuvel  : Paramagnetic NMR
   Zikuan Wang            : NOTCH, Electric field optimization 
   Frank Wennmohs         : Technical directorship and infrastructure
   Hang Xu                : AUTO-CI-Response properties 


 We gratefully acknowledge several colleagues who have allowed us to
 interface, adapt or use parts of their codes:
   Stefan Grimme, W. Hujo, H. Kruse, P. Pracht,  : VdW corrections, initial TS optimization,
                  C. Bannwarth, S. Ehlert,         DFT functionals, gCP, sTDA/sTD-DF
                  L. Wittmann, M. Mueller
   Ed Valeev, F. Pavosevic, A. Kumar             : LibInt (2-el integral package), F12 methods
   Garnet Chan, S. Sharma, J. Yang, R. Olivares  : DMRG
   Ulf Ekstrom                                   : XCFun DFT Library
   Mihaly Kallay                                 : mrcc  (arbitrary order and MRCC methods)
   Frank Weinhold                                : gennbo (NPA and NBO analysis)
   Simon Mueller                                 : openCOSMO-RS
   Christopher J. Cramer and Donald G. Truhlar   : smd solvation model
   Lars Goerigk                                  : TD-DFT with DH, B97 family of functionals
   V. Asgeirsson, H. Jonsson                     : NEB implementation
   FAccTs GmbH                                   : IRC, NEB, NEB-TS, DLPNO-Multilevel, CI-OPT
                                                   MM, QMMM, 2- and 3-layer-ONIOM, Crystal-QMMM,
                                                   LR-CPCM, SF, NACMEs, symmetry and pop. for TD-DFT,
                                                   nearIR, NL-DFT gradient (VV10), updates on ESD,
                                                   ML-optimized integration grids, MBIS, APM,
                                                   GOAT, DOCKER, SOLVATOR, interface openCOSMO-RS
   S Lehtola, MJT Oliveira, MAL Marques          : LibXC Library
   Liviu Ungur et al                             : ANISO software


 Your calculation uses the libint2 library for the computation of 2-el integrals
 For citations please refer to: http://libint.valeyev.net

 Your ORCA version has been built with support for libXC version: 6.2.2
 For citations please refer to: https://libxc.gitlab.io

 This ORCA versions uses:
   CBLAS   interface :  Fast vector & matrix operations
   LAPACKE interface :  Fast linear algebra routines
   SCALAPACK package :  Parallel linear algebra routines
   Shared memory     :  Shared parallel matrices
   BLAS/LAPACK       :  OpenBLAS 0.3.27  USE64BITINT DYNAMIC_ARCH NO_AFFINITY SkylakeX SINGLE_THREADED
        Core in use  :  SkylakeX
   Copyright (c) 2011-2014, The OpenBLAS Project


Your calculation utilizes the geometrical counterpoise correction gCP
Please cite in your paper:
H.Kruse, S. Grimme J.Chem.Phys., 136, (2012), 154101 
   

Your calculation utilizes the atom-pairwise dispersion correction
based on EEQ partial charges (D4)


================================================================================

----- Orbital basis set information -----
Your calculation utilizes the basis: def2-SV(P)
   F. Weigend and R. Ahlrichs, Phys. Chem. Chem. Phys. 7, 3297 (2005).

----- AuxJ basis set information -----
Your calculation utilizes the auxiliary basis: def2/J
   F. Weigend, Phys. Chem. Chem. Phys. 8, 1057 (2006).

================================================================================
                                        WARNINGS
                       Please study these warnings very carefully!
================================================================================


================================================================================
                                       INPUT FILE
================================================================================
NAME = sp.inp
|  1> ! pbe def2-sv(p) def2/J RI DEFGRID1 loosescf d4 GCP(DFT/SV(P)) printgap
|  2> %output
|  3>     printlevel normal
|  4> end
|  5> * xyz 0 1
|  6> C 2.8305330688 -0.3540314465 0.1383811636
|  7> C 1.4204566476 -0.5602236286 -0.4037875976
|  8> C 0.413395014 0.3396095727 0.3084494101
|  9> C -0.9946446646 0.2789622627 -0.2971868247
| 10> H -0.930656584 0.504298499 -1.3755243988
| 11> C -1.6510146628 -1.0859437916 -0.1177346635
| 12> O -1.8532503048 1.2283360445 0.3201325076
| 13> H 2.8641539003 -0.5755927031 1.2025046938
| 14> H 3.1506876104 0.6751635372 -0.0074052594
| 15> H 3.5334607494 -1.0078222713 -0.371525946
| 16> H 1.4057521091 -0.3392195192 -1.4735533889
| 17> H 1.1376841323 -1.6053855976 -0.2743746273
| 18> H 0.3512542661 0.0658673964 1.3639662633
| 19> H 0.7695036632 1.3724042381 0.2538158891
| 20> H -1.1245876429 -1.8409889976 -0.6914117332
| 21> H -1.6507160414 -1.3591443197 0.9340693413
| 22> H -2.6813833364 -1.0332833985 -0.4590662531
| 23> H -1.4635275546 2.1097538973 0.2483464431
| 24> *
| 25> 
| 26>                          ****END OF INPUT****
================================================================================

                       ****************************
                       * Single Point Calculation *
                       ****************************

---------------------------------
CARTESIAN COORDINATES (ANGSTROEM)
---------------------------------
  C      2.830533   -0.354031    0.138381
  C      1.420457   -0.560224   -0.403788
  C      0.413395    0.339610    0.308449
  C     -0.994645    0.278962   -0.297187
  H     -0.930657    0.504298   -1.375524
  C     -1.651015   -1.085944   -0.117735
  O     -1.853250    1.228336    0.320133
  H      2.864154   -0.575593    1.202505
  H      3.150688    0.675164   -0.007405
  H      3.533461   -1.007822   -0.371526
  H      1.405752   -0.339220   -1.473553
  H      1.137684   -1.605386   -0.274375
  H      0.351254    0.065867    1.363966
  H      0.769504    1.372404    0.253816
  H     -1.124588   -1.840989   -0.691412
  H     -1.650716   -1.359144    0.934069
  H     -2.681383   -1.033283   -0.459066
  H     -1.463528    2.109754    0.248346

----------------------------
CARTESIAN COORDINATES (A.U.)
----------------------------
  NO LB      ZA    FRAG     MASS         X           Y           Z
   0 C     6.0000    0    12.011    5.348932   -0.669022    0.261503
   1 C     6.0000    0    12.011    2.684274   -1.058669   -0.763048
   2 C     6.0000    0    12.011    0.781203    0.641769    0.582885
   3 C     6.0000    0    12.011   -1.879606    0.527162   -0.561602
   4 H     1.0000    0     1.008   -1.758686    0.952986   -2.599364
   5 C     6.0000    0    12.011   -3.119966   -2.052136   -0.222486
   6 O     8.0000    0    15.999   -3.502136    2.321219    0.604963
   7 H     1.0000    0     1.008    5.412466   -1.087713    2.272405
   8 H     1.0000    0     1.008    5.953937    1.275874   -0.013994
   9 H     1.0000    0     1.008    6.677273   -1.904508   -0.702082
  10 H     1.0000    0     1.008    2.656486   -0.641032   -2.784612
  11 H     1.0000    0     1.008    2.149911   -3.033739   -0.518493
  12 H     1.0000    0     1.008    0.663774    0.124471    2.577523
  13 H     1.0000    0     1.008    1.454151    2.593468    0.479643
  14 H     1.0000    0     1.008   -2.125163   -3.478965   -1.306579
  15 H     1.0000    0     1.008   -3.119401   -2.568411    1.765135
  16 H     1.0000    0     1.008   -5.067080   -1.952623   -0.867509
  17 H     1.0000    0     1.008   -2.765666    3.986857    0.469307

--------------------------------
INTERNAL COORDINATES (ANGSTROEM)
--------------------------------
 C      0   0   0     0.000000000000     0.00000000     0.00000000
 C      1   0   0     1.524722169841     0.00000000     0.00000000
 C      2   1   0     1.526811867641   111.37152368     0.00000000
 C      3   2   1     1.533965150069   113.45073918   173.97831905
 H      4   3   2     1.103486663972   108.93643383   305.41841217
 C      4   3   2     1.525120713177   112.57979127    66.22540911
 O      4   3   2     1.421125392421   110.89520183   185.64191682
 H      1   2   3     1.087464315857   110.42572135    59.48000852
 H      1   2   3     1.087655702008   110.64167195   299.52561154
 H      1   2   3     1.086993572735   110.48149779   179.45477645
 H      2   1   3     1.092454982166   109.46861886   120.84400226
 H      2   1   3     1.090445575779   109.10110314   238.65687271
 H      3   2   1     1.092205145119   109.91539481   295.81429450
 H      3   2   1     1.093829517123   108.56824209    53.34130501
 H      6   4   3     1.084584736516   110.60362802   293.47512791
 H      6   4   3     1.086706161868   109.80130520    54.65889325
 H      6   4   3     1.086710621369   109.13126253   173.40293163
 H      7   4   3     0.966402862327   109.47426095    55.74286095

---------------------------
INTERNAL COORDINATES (A.U.)
---------------------------
 C      0   0   0     0.000000000000     0.00000000     0.00000000
 C      1   0   0     2.881307331318     0.00000000     0.00000000
 C      2   1   0     2.885256287862   111.37152368     0.00000000
 C      3   2   1     2.898774032609   113.45073918   173.97831905
 H      4   3   2     2.085287587342   108.93643383   305.41841217
 C      4   3   2     2.882060469075   112.57979127    66.22540911
 O      4   3   2     2.685537793637   110.89520183   185.64191682
 H      1   2   3     2.055009737382   110.42572135    59.48000852
 H      1   2   3     2.055371404794   110.64167195   299.52561154
 H      1   2   3     2.054120161802   110.48149779   179.45477645
 H      2   1   3     2.064440729932   109.46861886   120.84400226
 H      2   1   3     2.060643502167   109.10110314   238.65687271
 H      3   2   1     2.063968606334   109.91539481   295.81429450
 H      3   2   1     2.067038224563   108.56824209    53.34130501
 H      6   4   3     2.049568121047   110.60362802   293.47512791
 H      6   4   3     2.053577033975   109.80130520    54.65889325
 H      6   4   3     2.053585461211   109.13126253   173.40293163
 H      7   4   3     1.826236744836   109.47426095    55.74286095

---------------------
BASIS SET INFORMATION
---------------------
There are 3 groups of distinct atoms

 Group   1 Type C   : 7s4p1d contracted to 3s2p1d pattern {511/31/1}
 Group   2 Type H   : 4s contracted to 2s pattern {31}
 Group   3 Type O   : 7s4p1d contracted to 3s2p1d pattern {511/31/1}

Atom   0C    basis set group =>   1
Atom   1C    basis set group =>   1
Atom   2C    basis set group =>   1
Atom   3C    basis set group =>   1
Atom   4H    basis set group =>   2
Atom   5C    basis set group =>   1
Atom   6O    basis set group =>   3
Atom   7H    basis set group =>   2
Atom   8H    basis set group =>   2
Atom   9H    basis set group =>   2
Atom  10H    basis set group =>   2
Atom  11H    basis set group =>   2
Atom  12H    basis set group =>   2
Atom  13H    basis set group =>   2
Atom  14H    basis set group =>   2
Atom  15H    basis set group =>   2
Atom  16H    basis set group =>   2
Atom  17H    basis set group =>   2
---------------------------------
AUXILIARY/J BASIS SET INFORMATION
---------------------------------
There are 3 groups of distinct atoms

 Group   1 Type C   : 12s5p4d2f1g contracted to 6s4p3d1f1g pattern {711111/2111/211/2/1}
 Group   2 Type H   : 5s2p1d contracted to 3s1p1d pattern {311/2/1}
 Group   3 Type O   : 12s5p4d2f1g contracted to 6s4p3d1f1g pattern {711111/2111/211/2/1}

Atom   0C    basis set group =>   1
Atom   1C    basis set group =>   1
Atom   2C    basis set group =>   1
Atom   3C    basis set group =>   1
Atom   4H    basis set group =>   2
Atom   5C    basis set group =>   1
Atom   6O    basis set group =>   3
Atom   7H    basis set group =>   2
Atom   8H    basis set group =>   2
Atom   9H    basis set group =>   2
Atom  10H    basis set group =>   2
Atom  11H    basis set group =>   2
Atom  12H    basis set group =>   2
Atom  13H    basis set group =>   2
Atom  14H    basis set group =>   2
Atom  15H    basis set group =>   2
Atom  16H    basis set group =>   2
Atom  17H    basis set group =>   2
------------------------------------------------------------------------------
                             ORCA STARTUP CALCULATIONS
                           -- RI-GTO INTEGRALS CHOSEN --
------------------------------------------------------------------------------
------------------------------------------------------------------------------
                   ___                                                        
                  /   \      - P O W E R E D   B Y -                         
                 /     \                                                     
                 |  |  |   _    _      __       _____    __    __             
                 |  |  |  | |  | |    /  \     |  _  \  |  |  /  |          
                  \  \/   | |  | |   /    \    | | | |  |  | /  /          
                 / \  \   | |__| |  /  /\  \   | |_| |  |  |/  /          
                |  |  |   |  __  | /  /__\  \  |    /   |      \           
                |  |  |   | |  | | |   __   |  |    \   |  |\   \          
                \     /   | |  | | |  |  |  |  | |\  \  |  | \   \       
                 \___/    |_|  |_| |__|  |__|  |_| \__\ |__|  \__/        
                                                                              
                      - O R C A' S   B I G   F R I E N D -                    
                                      &                                       
                       - I N T E G R A L  F E E D E R -                       
                                                                              
 v1 FN, 2020, v2 2021, v3 2022-2024                                           
------------------------------------------------------------------------------


----------------------
SHARK INTEGRAL PACKAGE
----------------------

Number of atoms                             ...     18
Number of basis functions                   ...    108
Number of shells                            ...     60
Maximum angular momentum                    ...      2
Integral batch strategy                     ... SHARK/LIBINT Hybrid
RI-J (if used) integral strategy            ... SPLIT-RIJ (Revised 2003 algorithm where possible)
Printlevel                                  ...      1
Contraction scheme used                     ... SEGMENTED contraction
Prescreening option                         ... SCHWARTZ
   Thresh                                   ... 1.000e-09
   Tcut                                     ... 1.000e-10
   Tpresel                                  ... 1.000e-10 
Coulomb Range Separation                    ... NOT USED
Exchange Range Separation                   ... NOT USED
Multipole approximations                    ... NOT USED
Finite Nucleus Model                        ... NOT USED
CABS basis                                  ... NOT available
Auxiliary Coulomb fitting basis             ... AVAILABLE
   # of basis functions in Aux-J            ...    426
   # of shells in Aux-J                     ...    150
   Maximum angular momentum in Aux-J        ...      4
Auxiliary J/K fitting basis                 ... NOT available
Auxiliary Correlation fitting basis         ... NOT available
Auxiliary 'external' fitting basis          ... NOT available

Checking pre-screening integrals            ... done (  0.0 sec) Dimension = 60
Check shell pair data                       ... done (  0.0 sec)
Shell pair information
Shell pair cut-off parameter TPreSel        ...   1.0e-10
Total number of shell pairs                 ...      1830
Shell pairs after pre-screening             ...      1753
Total number of primitive shell pairs       ...      7374
Primitive shell pairs kept                  ...      5150
          la=0 lb=0:    860 shell pairs
          la=1 lb=0:    490 shell pairs
          la=1 lb=1:     77 shell pairs
          la=2 lb=0:    236 shell pairs
          la=2 lb=1:     70 shell pairs
          la=2 lb=2:     20 shell pairs

Calculating one electron integrals          ... done (  0.0 sec)
Calculating RI/J V-Matrix + Cholesky decomp.... done (  0.1 sec)
Calculating Nuclear repulsion               ... done (  0.0 sec) ENN=    255.318846907634 Eh

Diagonalization of the overlap matrix:
Smallest eigenvalue                        ... 1.618e-03
Time for diagonalization                   ...    0.001 sec
Threshold for overlap eigenvalues          ... 1.000e-07
Number of eigenvalues below threshold      ... 0
Time for construction of square roots      ...    0.012 sec
Total time needed                          ...    0.024 sec

-------------------
DFT GRID GENERATION
-------------------

General Integration Accuracy     IntAcc      ... 4.159
Radial Grid Type                 RadialGrid  ... OptM3 with GC (2021)
Angular Grid (max. ang.)         AngularGrid ... 3 (Lebedev-194)
Angular grid pruning method      GridPruning ... 4 (adaptive)
Weight generation scheme         WeightScheme... mBecke (2022)
Basis function cutoff            BFCut       ... 1.0000e-10
Integration weight cutoff        WCut        ... 1.0000e-14
Partially contracted basis set               ... off
Rotationally invariant grid construction     ... off
Angular grids for H and He will be reduced by one unit

Total number of grid points                  ...    36403
Total number of batches                      ...      578
Average number of points per batch           ...       62
Average number of grid points per atom       ...     2022
Initializing property integral containers    ... done (  0.0 sec)

SHARK setup successfully completed in   0.6 seconds

Maximum memory used throughout the entire STARTUP-calculation: 17.6 MB
-------------------------------------------------------------------------------
                                 ORCA GUESS
                   Start orbitals & Density for SCF / CASSCF
-------------------------------------------------------------------------------

------------
SCF SETTINGS
------------
Hamiltonian:
 Density Functional     Method          .... DFT(GTOs)
 Exchange Functional    Exchange        .... PBE
   PBE kappa parameter   XKappa         ....  0.804000
   PBE mue parameter    XMuePBE         ....  0.219520
 Correlation Functional Correlation     .... PBE
   PBE beta parameter  CBetaPBE         ....  0.066725
 LDA part of GGA corr.  LDAOpt          .... PW91-LDA
 Gradients option       PostSCFGGA      .... off
   NL short-range parameter             ....  6.400000
 RI-approximation to the Coulomb term is turned on
   Number of AuxJ basis functions       .... 426


General Settings:
 Integral files         IntName         .... sp
 Hartree-Fock type      HFTyp           .... RHF
 Total Charge           Charge          ....    0
 Multiplicity           Mult            ....    1
 Number of Electrons    NEL             ....   50
 Basis Dimension        Dim             ....  108
 Nuclear Repulsion      ENuc            ....    255.3188469076 Eh

Convergence Acceleration:
 AO-DIIS                CNVDIIS         .... on
   Start iteration      DIISMaxIt       ....    12
   Startup error        DIISStart       ....  0.200000
   # of expansion vecs  DIISMaxEq       ....     5
   Bias factor          DIISBfac        ....   1.050
   Max. coefficient     DIISMaxC        ....  10.000
 MO-DIIS                CNVKDIIS        .... off
 Trust-Rad. Augm. Hess. CNVTRAH         .... auto
   Auto Start mean grad. ratio tolernc. ....  1.125000
   Auto Start start iteration           ....    50
   Auto Start num. interpolation iter.  ....    10
   Max. Number of Micro iterations      ....    24
   Max. Number of Macro iterations      .... Maxiter - #DIIS iter
   Number of Davidson start vectors     ....     2
   Converg. threshold    (grad. norm)   ....   1.000e-04
   Grad. Scal. Fac. for Micro threshold ....   0.100
   Minimum threshold for Micro iter.    ....   1.000e-02
   NR start threshold (gradient norm)   ....   1.000e-04
   Initial trust radius                 ....   0.400
   Minimum AH scaling param. (alpha)    ....   1.000
   Maximum AH scaling param. (alpha)    .... 1000.000
   Quad. conv. algorithm                .... NR
   White noise on init. David. guess    .... on
   Maximum white noise                  ....   0.010
   Pseudo random numbers                .... off
   Inactive MOs                         .... canonical
   Orbital update algorithm             .... Taylor
   Preconditioner                       .... Diag
   Full preconditioner red. dimension   ....   250
 SOSCF                  CNVSOSCF        .... on
   Start iteration      SOSCFMaxIt      ....   150
   Startup grad/error   SOSCFStart      ....  0.003300
   Hessian update       SOSCFHessUp     .... L-BFGS
 Level Shifting         CNVShift        .... on
   Level shift para.    LevelShift      ....    0.2500
   Turn off err/grad.   ShiftErr        ....    0.0010
 Zerner damping         CNVZerner       .... off
 Static damping         CNVDamp         .... on
   Fraction old density DampFac         ....    0.7000
   Max. Damping (<1)    DampMax         ....    0.9800
   Min. Damping (>=0)   DampMin         ....    0.0000
   Turn off err/grad.   DampErr         ....    0.1000

SCF Procedure:
 Maximum # iterations   MaxIter         ....   125
 SCF integral mode      SCFMode         .... Direct
   Integral package                     .... SHARK and LIBINT hybrid scheme
 Reset frequency        DirectResetFreq ....    20
 Integral Threshold     Thresh          ....  1.000e-09 Eh
 Primitive CutOff       TCut            ....  1.000e-10 Eh

Convergence Tolerance:
 Convergence Check Mode ConvCheckMode   .... Total+1el-Energy
 Convergence forced     ConvForced      .... 0
 Energy Change          TolE            ....  1.000e-05 Eh
 1-El. energy change                    ....  1.000e-02 Eh
 Orbital Gradient       TolG            ....  1.000e-04
 Orbital Rotation angle TolX            ....  1.000e-04
 DIIS Error             TolErr          ....  5.000e-04

------------------------------
INITIAL GUESS: MODEL POTENTIAL
------------------------------
Loading Hartree-Fock densities                     ... done
Calculating cut-offs                               ... done
Initializing the effective Hamiltonian             ... done
Setting up the integral package (SHARK)            ... done
Starting the Coulomb interaction                   ... done (   0.1 sec)
Making the grid                                    ... done (   0.2 sec)
Mapping shells                                     ... done
Starting the XC term evaluation                    ... done (   0.1 sec)
  promolecular density results
     # of electrons  =     49.989948388
     EX              =    -37.274816078
     EC              =     -1.628533141
     EX+EC           =    -38.903349218
Transforming the Hamiltonian                       ... done (   0.0 sec)
Diagonalizing the Hamiltonian                      ... done (   0.0 sec)
Back transforming the eigenvectors                 ... done (   0.0 sec)
Now organizing SCF variables                       ... done
                      ------------------
                      INITIAL GUESS DONE (   0.4 sec)
                      ------------------
             **** ENERGY FILE WAS UPDATED (sp.en.tmp) ****
Finished Guess after   0.6 sec
Maximum memory used throughout the entire GUESS-calculation: 13.4 MB

-------------------------------------------------------------------------------------------
                                      ORCA LEAN-SCF
                              memory conserving SCF solver
-------------------------------------------------------------------------------------------

----------------------------------------D-I-I-S--------------------------------------------
Iteration    Energy (Eh)           Delta-E    RMSDP     MaxDP     DIISErr   Damp  Time(sec)
-------------------------------------------------------------------------------------------
               ***  Starting incremental Fock matrix formation  ***
    1    -272.1647880862992110     0.00e+00  5.70e-03  8.32e-02  2.29e-01  0.700   0.6
    2    -272.2696409948569567    -1.05e-01  3.96e-03  4.78e-02  9.22e-02  0.700   0.7
                               ***Turning on AO-DIIS***
    3    -272.3051276481145919    -3.55e-02  1.53e-03  1.42e-02  2.16e-02  0.700   0.6
    4    -272.3261540905089646    -2.10e-02  2.17e-03  2.30e-02  9.40e-03  0.000   0.6
    5    -272.3745281064197457    -4.84e-02  7.00e-04  8.89e-03  1.15e-02  0.000   0.6
                              *** Initializing SOSCF ***
---------------------------------------S-O-S-C-F--------------------------------------
Iteration    Energy (Eh)           Delta-E    RMSDP     MaxDP     MaxGrad    Time(sec)
--------------------------------------------------------------------------------------
    6    -272.3750782296144166    -5.50e-04  2.41e-04  2.41e-03  2.04e-03     0.7
               *** Restarting incremental Fock matrix formation ***
    7    -272.3751241462217081    -4.59e-05  1.98e-04  3.67e-03  2.65e-04     0.6
    8    -272.3751219361741391     2.21e-06  7.38e-05  1.27e-03  5.67e-04     0.6
                 **** Energy Check signals convergence ****

               *****************************************************
               *                     SUCCESS                       *
               *           SCF CONVERGED AFTER   8 CYCLES          *
               *****************************************************

             **** ENERGY FILE WAS UPDATED (sp.en.tmp) ****

----------------
TOTAL SCF ENERGY
----------------

Total Energy       :       -272.37512193617414 Eh           -7411.70387 eV

Components:
Nuclear Repulsion  :        255.31884690763394 Eh            6947.57903 eV
Electronic Energy  :       -527.69396884380808 Eh          -14359.28290 eV
One Electron Energy:       -873.92970405474773 Eh          -23780.83624 eV
Two Electron Energy:        346.23573521093959 Eh            9421.55334 eV

Virial components:
Potential Energy   :       -542.42418780177331 Eh          -14760.11254 eV
Kinetic Energy     :        270.04906586559918 Eh            7348.40867 eV
Virial Ratio       :          2.00861345719941

DFT components:
N(Alpha)           :       25.000080652494 electrons
N(Beta)            :       25.000080652494 electrons
N(Total)           :       50.000161304988 electrons
E(X)               :      -38.203808658098 Eh       
E(C)               :       -1.641995985145 Eh       
E(XC)              :      -39.845804643243 Eh       

---------------
SCF CONVERGENCE
---------------

  Last Energy change         ...   -2.2100e-06  Tolerance :   1.0000e-05
  Last MAX-Density change    ...    1.2718e-03  Tolerance :   1.0000e-03
  Last RMS-Density change    ...    7.3771e-05  Tolerance :   1.0000e-04
  Last DIIS Error            ...    2.0395e-03  Tolerance :   5.0000e-04
  Last Orbital Gradient      ...    5.6726e-04  Tolerance :   1.0000e-04
  Last Orbital Rotation      ...    2.4460e-04  Tolerance :   1.0000e-04


----------------
ORBITAL ENERGIES
----------------

  NO   OCC          E(Eh)            E(eV) 
   0   2.0000     -18.733598      -509.7671 
   1   2.0000      -9.933534      -270.3052 
   2   2.0000      -9.887051      -269.0403 
   3   2.0000      -9.881937      -268.9012 
   4   2.0000      -9.875224      -268.7185 
   5   2.0000      -9.869150      -268.5532 
   6   2.0000      -0.911223       -24.7957 
   7   2.0000      -0.720126       -19.5956 
   8   2.0000      -0.667336       -18.1591 
   9   2.0000      -0.608452       -16.5568 
  10   2.0000      -0.538271       -14.6471 
  11   2.0000      -0.510692       -13.8966 
  12   2.0000      -0.458634       -12.4801 
  13   2.0000      -0.423800       -11.5322 
  14   2.0000      -0.400325       -10.8934 
  15   2.0000      -0.374326       -10.1859 
  16   2.0000      -0.349042        -9.4979 
  17   2.0000      -0.337985        -9.1970 
  18   2.0000      -0.332150        -9.0383 
  19   2.0000      -0.320321        -8.7164 
  20   2.0000      -0.310084        -8.4378 
  21   2.0000      -0.293358        -7.9827 
  22   2.0000      -0.288456        -7.8493 
  23   2.0000      -0.262261        -7.1365 
  24   2.0000      -0.207146        -5.6367 
  25   0.0000       0.028879         0.7858 
  26   0.0000       0.045961         1.2507 
  27   0.0000       0.064883         1.7656 
  28   0.0000       0.067187         1.8283 
  29   0.0000       0.084587         2.3017 
  30   0.0000       0.109422         2.9775 
  31   0.0000       0.116185         3.1616 
  32   0.0000       0.120494         3.2788 
  33   0.0000       0.123842         3.3699 
  34   0.0000       0.141509         3.8507 
  35   0.0000       0.145890         3.9699 
*Only the first 10 virtual orbitals were printed.

                    ********************************
                    * MULLIKEN POPULATION ANALYSIS *
                    ********************************

-----------------------
MULLIKEN ATOMIC CHARGES
-----------------------
   0 C :   -0.257682
   1 C :   -0.212564
   2 C :   -0.169539
   3 C :    0.034827
   4 H :    0.053880
   5 C :   -0.252946
   6 O :   -0.428112
   7 H :    0.098720
   8 H :    0.097193
   9 H :    0.102124
  10 H :    0.084423
  11 H :    0.096859
  12 H :    0.083175
  13 H :    0.064325
  14 H :    0.106191
  15 H :    0.097869
  16 H :    0.109549
  17 H :    0.291708
Sum of atomic charges:    0.0000000

--------------------------------
MULLIKEN REDUCED ORBITAL CHARGES
--------------------------------
  0 C s       :     3.080111  s :     3.080111
      pz      :     1.058942  p :     3.148098
      px      :     1.028615
      py      :     1.060541
      dz2     :     0.008955  d :     0.029473
      dxz     :     0.004903
      dyz     :     0.002379
      dx2y2   :     0.005712
      dxy     :     0.007525

  1 C s       :     3.081128  s :     3.081128
      pz      :     1.043626  p :     3.094441
      px      :     1.002490
      py      :     1.048325
      dz2     :     0.011753  d :     0.036994
      dxz     :     0.005635
      dyz     :     0.002563
      dx2y2   :     0.009814
      dxy     :     0.007228

  2 C s       :     3.066119  s :     3.066119
      pz      :     1.055776  p :     3.068420
      px      :     0.987741
      py      :     1.024902
      dz2     :     0.011344  d :     0.035000
      dxz     :     0.005287
      dyz     :     0.002812
      dx2y2   :     0.008983
      dxy     :     0.006574

  3 C s       :     3.064216  s :     3.064216
      pz      :     0.968107  p :     2.830907
      px      :     0.921288
      py      :     0.941512
      dz2     :     0.017711  d :     0.070050
      dxz     :     0.010237
      dyz     :     0.010889
      dx2y2   :     0.013943
      dxy     :     0.017271

  4 H s       :     0.946120  s :     0.946120

  5 C s       :     3.079621  s :     3.079621
      pz      :     1.064485  p :     3.145875
      px      :     1.063358
      py      :     1.018031
      dz2     :     0.006802  d :     0.027450
      dxz     :     0.003346
      dyz     :     0.006033
      dx2y2   :     0.006236
      dxy     :     0.005032

  6 O s       :     3.790802  s :     3.790802
      pz      :     1.794668  p :     4.622229
      px      :     1.630806
      py      :     1.196755
      dz2     :     0.002798  d :     0.015081
      dxz     :     0.002508
      dyz     :     0.001266
      dx2y2   :     0.003008
      dxy     :     0.005500

  7 H s       :     0.901280  s :     0.901280

  8 H s       :     0.902807  s :     0.902807

  9 H s       :     0.897876  s :     0.897876

 10 H s       :     0.915577  s :     0.915577

 11 H s       :     0.903141  s :     0.903141

 12 H s       :     0.916825  s :     0.916825

 13 H s       :     0.935675  s :     0.935675

 14 H s       :     0.893809  s :     0.893809

 15 H s       :     0.902131  s :     0.902131

 16 H s       :     0.890451  s :     0.890451

 17 H s       :     0.708292  s :     0.708292


------------------------
MULLIKEN OVERLAP CHARGES
------------------------
B(  0-C ,  1-C ) :   0.8410 B(  0-C ,  2-C ) :  -0.0747 B(  0-C ,  7-H ) :   0.7569 
B(  0-C ,  8-H ) :   0.7605 B(  0-C ,  9-H ) :   0.7272 B(  1-C ,  2-C ) :   0.6182 
B(  1-C ,  3-C ) :  -0.0520 B(  1-C , 10-H ) :   0.7199 B(  1-C , 11-H ) :   0.7107 
B(  2-C ,  3-C ) :   0.7697 B(  2-C ,  4-H ) :  -0.1390 B(  2-C ,  5-C ) :  -0.0953 
B(  2-C ,  6-O ) :  -0.1111 B(  2-C , 10-H ) :  -0.0640 B(  2-C , 12-H ) :   0.6368 
B(  2-C , 13-H ) :   0.6620 B(  3-C ,  4-H ) :   0.7402 B(  3-C ,  5-C ) :   0.7362 
B(  3-C ,  6-O ) :   0.6750 B(  3-C , 13-H ) :  -0.0521 B(  3-C , 17-H ) :  -0.0815 
B(  4-H ,  5-C ) :  -0.1098 B(  4-H ,  6-O ) :  -0.0663 B(  5-C ,  6-O ) :  -0.1426 
B(  5-C , 14-H ) :   0.6933 B(  5-C , 15-H ) :   0.7118 B(  5-C , 16-H ) :   0.6932 
B(  6-O , 17-H ) :   0.5186 B(  7-H ,  8-H ) :  -0.0533 B( 10-H , 11-H ) :  -0.0713 
B( 12-H , 13-H ) :  -0.0752 


                     *******************************
                     * LOEWDIN POPULATION ANALYSIS *
                     *******************************

----------------------
LOEWDIN ATOMIC CHARGES
----------------------
   0 C :   -0.338511
   1 C :   -0.235779
   2 C :   -0.240090
   3 C :   -0.056249
   4 H :    0.092488
   5 C :   -0.341006
   6 O :   -0.337211
   7 H :    0.117925
   8 H :    0.116026
   9 H :    0.118787
  10 H :    0.114031
  11 H :    0.116813
  12 H :    0.117388
  13 H :    0.107055
  14 H :    0.121597
  15 H :    0.121769
  16 H :    0.126084
  17 H :    0.278883

-------------------------------
LOEWDIN REDUCED ORBITAL CHARGES
-------------------------------
  0 C s       :     2.945219  s :     2.945219
      pz      :     1.120591  p :     3.322063
      px      :     1.078837
      py      :     1.122635
      dz2     :     0.021360  d :     0.071229
      dxz     :     0.011720
      dyz     :     0.005918
      dx2y2   :     0.015418
      dxy     :     0.016813

  1 C s       :     2.905800  s :     2.905800
      pz      :     1.094196  p :     3.241047
      px      :     1.053330
      py      :     1.093522
      dz2     :     0.027448  d :     0.088932
      dxz     :     0.014066
      dyz     :     0.006377
      dx2y2   :     0.023812
      dxy     :     0.017228

  2 C s       :     2.923309  s :     2.923309
      pz      :     1.098825  p :     3.230018
      px      :     1.047646
      py      :     1.083546
      dz2     :     0.025861  d :     0.086764
      dxz     :     0.013910
      dyz     :     0.007459
      dx2y2   :     0.022549
      dxy     :     0.016985

  3 C s       :     2.884806  s :     2.884806
      pz      :     1.041963  p :     3.012336
      px      :     0.991219
      py      :     0.979154
      dz2     :     0.041917  d :     0.159108
      dxz     :     0.023670
      dyz     :     0.022679
      dx2y2   :     0.032552
      dxy     :     0.038289

  4 H s       :     0.907512  s :     0.907512

  5 C s       :     2.952399  s :     2.952399
      pz      :     1.126868  p :     3.320571
      px      :     1.113994
      py      :     1.079709
      dz2     :     0.017498  d :     0.068036
      dxz     :     0.007854
      dyz     :     0.013478
      dx2y2   :     0.015814
      dxy     :     0.013392

  6 O s       :     3.547324  s :     3.547324
      pz      :     1.822693  p :     4.763635
      px      :     1.668969
      py      :     1.271972
      dz2     :     0.004351  d :     0.026251
      dxz     :     0.003532
      dyz     :     0.002678
      dx2y2   :     0.005521
      dxy     :     0.010169

  7 H s       :     0.882075  s :     0.882075

  8 H s       :     0.883974  s :     0.883974

  9 H s       :     0.881213  s :     0.881213

 10 H s       :     0.885969  s :     0.885969

 11 H s       :     0.883187  s :     0.883187

 12 H s       :     0.882612  s :     0.882612

 13 H s       :     0.892945  s :     0.892945

 14 H s       :     0.878403  s :     0.878403

 15 H s       :     0.878231  s :     0.878231

 16 H s       :     0.873916  s :     0.873916

 17 H s       :     0.721117  s :     0.721117


---------------------------------
LOEWDIN BOND ORDERS (THRESH 0.050000)
---------------------------------
B(  0-C ,  1-C ) :   1.1295 B(  0-C ,  2-C ) :   0.0584 B(  0-C ,  7-H ) :   0.9410 
B(  0-C ,  8-H ) :   0.9407 B(  0-C ,  9-H ) :   0.9393 B(  1-C ,  2-C ) :   1.0873 
B(  1-C ,  3-C ) :   0.0560 B(  1-C , 10-H ) :   0.9064 B(  1-C , 11-H ) :   0.9049 
B(  2-C ,  3-C ) :   1.0680 B(  2-C ,  5-C ) :   0.0521 B(  2-C ,  6-O ) :   0.0795 
B(  2-C , 12-H ) :   0.9002 B(  2-C , 13-H ) :   0.8970 B(  3-C ,  4-H ) :   0.8808 
B(  3-C ,  5-C ) :   1.1057 B(  3-C ,  6-O ) :   1.1976 B(  5-C ,  6-O ) :   0.0617 
B(  5-C , 14-H ) :   0.9316 B(  5-C , 15-H ) :   0.9346 B(  5-C , 16-H ) :   0.9324 
B(  6-O , 17-H ) :   0.8887 

------------------------------------------
LOEWDIN REDUCED ORBITAL POPULATIONS PER MO
-------------------------------------------
THRESHOLD FOR PRINTING IS 0.1%%
                      0         1         2         3         4         5   
                 -18.73360  -9.93353  -9.88705  -9.88194  -9.87522  -9.86915
                   2.00000   2.00000   2.00000   2.00000   2.00000   2.00000
                  --------  --------  --------  --------  --------  --------
 0 C  s               0.0       0.0       0.0       0.0      99.7       0.0
 1 C  s               0.0       0.0      99.6       0.0       0.0       0.0
 2 C  s               0.0       0.0       0.0      99.6       0.0       0.0
 3 C  s               0.0      99.6       0.0       0.0       0.0       0.0
 5 C  s               0.0       0.0       0.0       0.0       0.0      99.7
 6 O  s              99.9       0.0       0.0       0.0       0.0       0.0

                      6         7         8         9        10        11   
                  -0.91122  -0.72013  -0.66734  -0.60845  -0.53827  -0.51069
                   2.00000   2.00000   2.00000   2.00000   2.00000   2.00000
                  --------  --------  --------  --------  --------  --------
 0 C  s               0.0       9.5      12.5      15.0       8.4       0.9
 0 C  pz              0.0       0.2       0.1       0.0       1.0       1.5
 0 C  px              0.0       2.2       0.5       0.5       5.0       1.1
 0 C  py              0.0       0.0       0.0       0.0       0.3       0.6
 1 C  s               0.1      21.3       6.9       0.0      10.7       5.3
 1 C  pz              0.0       0.8       0.1       0.0       1.3       4.7
 1 C  px              0.1       0.1       3.1       8.2       2.3       0.0
 1 C  py              0.0       0.8       0.0       1.1       1.2       2.4
 1 C  dxz             0.0       0.0       0.0       0.1       0.0       0.0
 2 C  s               0.9      19.4       0.4      15.7       0.4       5.9
 2 C  pz              0.1       0.9       0.0       0.0       0.3       6.3
 2 C  px              1.2       0.3       4.8       0.0       4.0       0.4
 2 C  py              0.1       1.0       0.0       0.4       3.0       1.6
 2 C  dxz             0.0       0.0       0.1       0.0       0.1       0.0
 3 C  s              10.6       6.3      11.3       0.0       6.8       5.6
 3 C  pz              1.7       0.0       0.0       0.2       0.0       3.9
 3 C  px              2.5       3.1       0.1       8.6       0.3       1.5
 3 C  py              4.1       1.4       5.0       3.1       1.8       0.7
 3 C  dxz             0.1       0.1       0.0       0.1       0.0       0.1
 3 C  dyz             0.2       0.0       0.0       0.0       0.0       0.0
 3 C  dx2y2           0.0       0.0       0.0       0.1       0.0       0.0
 3 C  dxy             0.4       0.0       0.1       0.0       0.0       0.1
 4 H  s               1.3       1.3       2.3       0.0       2.2       4.8
 5 C  s               0.8       3.4      19.6      13.6       4.4       4.2
 5 C  pz              0.0       0.0       0.0       0.0       0.0       0.7
 5 C  px              0.0       0.5       0.3       0.3       0.2       0.2
 5 C  py              1.3       0.4       0.8       0.1       3.4       4.6
 6 O  s              58.0       2.4       2.7       0.2       1.2       0.1
 6 O  pz              0.7       0.0       0.2       0.0       0.8       2.2
 6 O  px              2.6       0.1       0.1       0.3       1.1       0.1
 6 O  py              0.1       1.0       4.1       0.3       7.2       9.6
 7 H  s               0.0       1.8       2.6       3.8       3.9       1.2
 8 H  s               0.0       1.8       2.6       3.7       4.1       1.0
 9 H  s               0.0       1.6       2.6       4.6       3.5       0.2
10 H  s               0.0       4.0       1.3       0.0       4.5       4.7
11 H  s               0.0       4.1       1.1       0.0       5.7       3.1
12 H  s               0.2       3.6       0.1       3.6       0.2       5.5
13 H  s               0.2       3.5       0.0       4.7       0.5       4.4
14 H  s               0.1       0.8       4.1       3.5       2.9       2.1
15 H  s               0.1       0.7       4.0       3.3       1.9       3.3
16 H  s               0.2       0.5       4.0       4.2       1.7       1.4
17 H  s              12.1       0.9       2.1       0.0       2.7       3.2

                     12        13        14        15        16        17   
                  -0.45863  -0.42380  -0.40032  -0.37433  -0.34904  -0.33799
                   2.00000   2.00000   2.00000   2.00000   2.00000   2.00000
                  --------  --------  --------  --------  --------  --------
 0 C  s               0.3       0.1       0.0       0.0       0.0       0.0
 0 C  pz              0.1       2.0      12.8       0.4      16.2       0.5
 0 C  px              1.5       1.0       4.7       0.0       2.6       0.0
 0 C  py              0.1       7.6       0.0      20.3       0.9       2.9
 0 C  dz2             0.0       0.0       0.0       0.0       0.1       0.0
 1 C  s               0.5       0.1       0.0       0.0       0.1       0.0
 1 C  pz              1.6       2.6      17.7       0.0       0.6       0.0
 1 C  px              0.1       1.0       0.6       2.4       0.4       0.0
 1 C  py              0.4      16.0       0.0       9.0       0.0       0.3
 1 C  dxz             0.0       0.0       0.0       0.0       0.1       0.0
 2 C  s               0.2       0.1       0.0       0.1       0.7       0.0
 2 C  pz              7.2       1.8       1.0       1.3       9.6       1.3
 2 C  px              0.9       9.6       8.4       0.2       0.1       0.0
 2 C  py              0.7      10.5       1.8      11.2       0.4       0.1
 2 C  dz2             0.0       0.0       0.0       0.0       0.2       0.0
 2 C  dxz             0.1       0.1       0.0       0.0       0.0       0.0
 2 C  dx2y2           0.0       0.0       0.0       0.1       0.0       0.0
 3 C  s               1.2       0.6       0.0       0.1       0.0       0.3
 3 C  pz             17.0       1.5      10.7       0.5       0.7       0.4
 3 C  px              8.1       3.3       4.0       0.0       1.9       0.3
 3 C  py              0.2       2.4       0.0       9.9       6.5       1.6
 3 C  dxz             0.1       0.1       0.0       0.0       0.1       0.0
 3 C  dyz             0.1       0.0       0.0       0.0       0.0       0.3
 3 C  dxy             0.1       0.0       0.0       0.0       0.1       0.3
 4 H  s               9.2       0.2       3.6       0.4       0.0       0.6
 5 C  s               0.1       0.4       0.0       0.1       0.0       0.0
 5 C  pz              4.4       0.5       7.3       0.6      10.5      15.1
 5 C  px              1.4       8.0       1.0       6.4       0.4      14.1
 5 C  py              1.0       0.1       0.6       4.2       7.6      14.4
 5 C  dz2             0.0       0.0       0.1       0.0       0.2       0.0
 5 C  dxz             0.0       0.0       0.0       0.0       0.0       0.2
 5 C  dyz             0.0       0.0       0.0       0.0       0.0       0.4
 5 C  dx2y2           0.0       0.0       0.0       0.1       0.0       0.1
 5 C  dxy             0.0       0.0       0.0       0.1       0.0       0.3
 6 O  s               1.2       0.0       0.1       1.3       0.4       0.6
 6 O  pz              0.2       1.0       2.4       2.1       0.6       0.3
 6 O  px              0.3       0.3       2.0       4.2       6.4       0.7
 6 O  py             26.6       2.2       0.1       0.1       0.8       5.0
 6 O  dxy             0.2       0.0       0.0       0.0       0.0       0.0
 7 H  s               0.0       2.0       4.2       0.0       7.2       0.6
 8 H  s               0.5       1.7       0.8       8.2       0.0       1.8
 9 H  s               0.4       1.4       4.0       3.9       6.8       0.2
10 H  s               0.2       2.4       6.3       0.1       0.1       0.0
11 H  s               0.5       5.8       0.3       2.9       0.2       0.6
12 H  s               3.0       1.4       0.6       0.1       7.4       0.3
13 H  s               0.1       7.2       0.1       4.8       0.0       0.1
14 H  s               1.9       0.0       0.0       0.5       0.3      25.6
15 H  s               0.6       0.0       3.3       0.0       7.8       4.9
16 H  s               0.0       4.0       1.1       3.7       1.4       3.9
17 H  s               7.4       0.7       0.0       0.0       0.1       1.5

                     18        19        20        21        22        23   
                  -0.33215  -0.32032  -0.31008  -0.29336  -0.28846  -0.26226
                   2.00000   2.00000   2.00000   2.00000   2.00000   2.00000
                  --------  --------  --------  --------  --------  --------
 0 C  s               0.1       0.0       0.0       0.3       0.0       0.2
 0 C  pz              7.3       0.4       4.1       8.2       1.3       0.0
 0 C  px             20.1       4.2       5.4       0.7       0.2       3.4
 0 C  py              1.4      14.0       1.2       1.1       5.2       0.3
 0 C  dz2             0.1       0.1       0.1       0.3       0.3       0.0
 0 C  dxz             0.1       0.0       0.1       0.1       0.0       0.0
 0 C  dx2y2           0.1       0.2       0.0       0.1       0.1       0.0
 0 C  dxy             0.1       0.1       0.1       0.1       0.2       0.1
 1 C  s               0.1       0.0       0.1       0.3       0.0       0.1
 1 C  pz              2.8       0.0       1.8      16.4       4.0       0.0
 1 C  px             21.5       4.5       3.0       0.0       0.3       3.9
 1 C  py              0.0       2.9       0.4       3.7      15.6       0.6
 1 C  dz2             0.0       0.0       0.0       0.5       0.7       0.0
 1 C  dxz             0.0       0.1       0.1       0.0       0.0       0.1
 1 C  dx2y2           0.1       0.0       0.0       0.3       0.4       0.1
 1 C  dxy             0.2       0.1       0.1       0.1       0.1       0.0
 2 C  s               0.9       0.0       0.2       0.6       0.1       0.0
 2 C  pz              6.6       2.7       0.0      12.7       2.2       0.1
 2 C  px              0.2       1.3       6.9       0.0       0.1       8.0
 2 C  py              0.0       6.3       1.4       5.7       9.8       0.0
 2 C  dz2             0.0       0.2       0.0       0.3       0.5       0.1
 2 C  dxz             0.0       0.0       0.0       0.0       0.0       0.1
 2 C  dx2y2           0.1       0.0       0.1       0.2       0.3       0.1
 2 C  dxy             0.0       0.2       0.0       0.2       0.1       0.0
 3 C  s               0.9       0.1       0.4       0.1       0.0       0.2
 3 C  pz              0.4       0.2       6.8       2.2       0.0       2.0
 3 C  px              0.2       0.1       1.1       3.0       0.1      10.0
 3 C  py              0.0       6.3       1.5       0.6       1.6       2.0
 3 C  dz2             0.1       0.0       0.0       0.1       0.0       0.5
 3 C  dyz             0.1       0.0       0.2       0.1       0.0       0.0
 3 C  dx2y2           0.3       0.0       0.0       0.1       0.0       0.6
 3 C  dxy             0.0       0.1       0.3       0.0       0.2       0.0
 4 H  s               1.3       0.5       3.9       1.8       0.1       4.7
 5 C  s               0.1       0.1       0.1       0.0       0.0       0.8
 5 C  pz              2.7       0.1      12.2       1.6       0.3       0.2
 5 C  px              2.9      11.8       3.0       2.3       0.2       2.7
 5 C  py              0.1       1.2       3.8       0.8       3.0       6.6
 5 C  dz2             0.1       0.0       0.3       0.0       0.0       0.0
 5 C  dx2y2           0.1       0.1       0.1       0.1       0.0       0.1
 6 O  s               2.3       1.3       0.7       0.0       0.1       4.9
 6 O  pz              1.5       4.4       6.5       0.6       1.8      11.5
 6 O  px              5.2       5.5       6.8       2.0       1.9      26.0
 6 O  py              2.4       0.2       0.4       0.3       0.0       1.5
 7 H  s               5.0       1.1       2.4       5.2       3.0       0.0
 8 H  s               0.1      10.9       0.0       0.4       6.3       0.1
 9 H  s               3.1       0.4       6.7       2.5       0.3       1.5
10 H  s               1.2       0.0       1.2      10.4       7.8       0.0
11 H  s               0.4       3.0       0.0       1.2      15.2       0.0
12 H  s               1.6       3.4       0.3       6.0       5.6       0.7
13 H  s               0.4       4.5       0.0       2.9      10.0       1.2
14 H  s               0.2       0.8       0.0       0.1       0.6       0.1
15 H  s               1.9       0.1       9.6       1.2       0.0       0.6
16 H  s               2.5       5.8       5.5       2.4       0.1       0.9
17 H  s               1.1       0.1       0.6       0.1       0.1       3.0

                     24        25        26        27        28        29   
                  -0.20715   0.02888   0.04596   0.06488   0.06719   0.08459
                   2.00000   0.00000   0.00000   0.00000   0.00000   0.00000
                  --------  --------  --------  --------  --------  --------
 0 C  s               0.1       1.0      10.9       5.4       0.0       4.4
 0 C  pz              0.0       0.1       0.5       0.1       2.8       0.1
 0 C  px              0.7       0.6       2.2       0.2       0.2       0.3
 0 C  py              0.0       0.2       0.0       1.6       0.2       4.8
 0 C  dz2             0.0       0.0       0.0       0.0       0.1       0.0
 0 C  dxz             0.0       0.1       0.1       0.0       0.1       0.0
 0 C  dx2y2           0.0       0.0       0.1       0.0       0.0       0.1
 0 C  dxy             0.0       0.0       0.0       0.1       0.0       0.1
 1 C  s               0.0       1.7       7.6       1.2       1.6       0.0
 1 C  pz              0.2       1.4       0.3       0.1       4.7       0.0
 1 C  px              0.9       0.0       0.7       0.2       0.0       0.7
 1 C  py              0.2       0.7       0.7       3.2       1.1       2.1
 1 C  dz2             0.0       0.0       0.0       0.1       0.5       0.0
 1 C  dxz             0.0       0.0       0.0       0.1       0.0       0.1
 1 C  dyz             0.0       0.2       0.0       0.0       0.0       0.1
 1 C  dx2y2           0.0       0.0       0.1       0.0       0.0       0.6
 1 C  dxy             0.0       0.0       0.0       0.1       0.0       0.0
 2 C  s               0.9       3.9       0.7       0.8       1.5       2.7
 2 C  pz              0.8       0.5       1.2       0.0       5.4       0.4
 2 C  px              5.8       0.9       0.9       0.1       0.3       0.3
 2 C  py              0.1       3.0       0.1       3.1       0.3       1.5
 2 C  dz2             0.0       0.1       0.0       0.0       0.4       0.0
 2 C  dxz             0.0       0.1       0.2       0.1       0.1       0.0
 2 C  dyz             0.0       0.1       0.2       0.0       0.0       0.0
 2 C  dx2y2           0.0       0.0       0.1       0.1       0.0       0.5
 2 C  dxy             0.1       0.0       0.2       0.0       0.0       0.3
 3 C  s               0.1       2.0       0.3       0.6       0.7       2.4
 3 C  pz              3.7       3.4       0.2       0.8       4.0       0.5
 3 C  px              1.3       0.3       1.3       0.1       0.3       0.7
 3 C  py              0.1       0.6       0.3       0.1       0.3       2.9
 3 C  dz2             1.2       0.0       0.1       0.0       0.2       0.0
 3 C  dxz             0.4       0.0       0.1       0.0       0.0       0.1
 3 C  dyz             0.1       0.2       0.1       0.0       0.1       0.3
 3 C  dx2y2           0.2       0.1       0.1       0.0       0.1       0.1
 3 C  dxy             0.1       0.0       0.1       0.0       0.0       1.0
 4 H  s               7.0       8.4       0.6       2.6      13.2       1.5
 5 C  s               0.0       2.3       0.4       9.0       0.9       3.0
 5 C  pz              0.1       0.1       0.0       0.2       2.5       1.1
 5 C  px              0.0       0.0       0.0       0.0       0.0       1.8
 5 C  py              0.0       0.3       0.4       4.5       0.1       0.0
 5 C  dyz             0.0       0.2       0.0       0.0       0.1       0.1
 5 C  dx2y2           0.0       0.0       0.1       0.0       0.0       0.3
 5 C  dxy             0.0       0.1       0.0       0.1       0.0       0.1
 6 O  s               0.0       4.8       2.9       0.0       0.5       3.1
 6 O  pz             54.2       0.0       0.3       0.1       0.0       0.9
 6 O  px             18.0       1.2       1.1       0.2       0.1       2.3
 6 O  py              1.5       3.9       1.8       0.8       0.4       0.1
 7 H  s               0.1       0.6       9.5       2.9       6.4       3.0
 8 H  s               0.0       1.7       7.4      12.1       0.8       1.5
 9 H  s               0.4       0.5       8.7       0.9       1.1      14.7
10 H  s               0.1       4.0       5.1       0.3      18.0       0.1
11 H  s               0.0       1.8       9.1      10.7       0.7       4.7
12 H  s               0.5       2.1       3.7       0.0      18.1       2.0
13 H  s               0.1      11.9       0.1       9.5       0.1      10.0
14 H  s               0.0       3.1       0.6      16.8       0.0       1.3
15 H  s               0.6       1.1       0.9       5.0       8.4       6.1
16 H  s               0.3       1.7       0.4       4.3       0.0       6.6
17 H  s               0.0      28.6      17.5       1.3       3.3       8.3

                     30        31        32        33        34        35   
                   0.10942   0.11618   0.12049   0.12384   0.14151   0.14589
                   0.00000   0.00000   0.00000   0.00000   0.00000   0.00000
                  --------  --------  --------  --------  --------  --------
 0 C  s               1.8       1.9       2.4       1.6       0.0       0.1
 0 C  pz              3.2       6.5       2.0       0.3       5.0       3.9
 0 C  px              1.4       1.4       1.3       1.6       2.3       1.6
 0 C  py              0.2       0.2       0.2      14.0       0.0       2.4
 0 C  dz2             0.0       0.2       0.3       0.1       0.2       0.3
 0 C  dxz             0.0       0.2       0.0       0.5       0.0       0.2
 0 C  dyz             0.2       0.1       0.0       0.3       0.1       0.1
 0 C  dx2y2           0.0       0.1       0.2       0.0       0.1       0.0
 0 C  dxy             0.1       0.0       0.2       0.4       0.4       0.0
 1 C  s               1.5       2.1       3.4       0.8       2.5       1.4
 1 C  pz              1.8       1.1       2.4       0.2       5.0       1.3
 1 C  px              0.1       0.3       0.2       0.8       0.7       2.5
 1 C  py              0.2       0.1       1.1       0.5       2.0       5.4
 1 C  dz2             0.1       0.2       0.2       0.0       0.2       0.0
 1 C  dxz             0.0       0.3       0.0       0.2       0.7       0.0
 1 C  dyz             0.3       0.0       0.0       0.1       0.0       0.4
 1 C  dx2y2           0.0       0.1       0.3       0.0       0.0       0.8
 1 C  dxy             0.0       0.0       0.1       0.5       0.1       0.1
 2 C  s               0.9       0.3       0.5       3.6       3.2       0.1
 2 C  pz              3.6       0.0       0.6       0.6       0.3       0.9
 2 C  px              0.2       0.2       0.7       0.5       1.1       0.8
 2 C  py              0.8       0.7       4.0       0.0       0.3       0.4
 2 C  dz2             0.2       0.0       0.0       0.0       0.1       0.0
 2 C  dxz             0.0       0.2       0.4       0.3       0.6       0.2
 2 C  dyz             0.3       0.0       0.0       0.0       0.0       0.5
 2 C  dxy             0.2       0.0       0.6       0.0       0.0       0.0
 3 C  s               2.6       2.2       1.2       0.1       1.8       0.0
 3 C  pz              0.8       4.0       2.0       0.3       2.1       0.5
 3 C  px              0.1       0.3       0.9       3.0       0.1       0.8
 3 C  py              0.9       0.3       0.9       0.3       0.1       3.5
 3 C  dz2             0.2       0.1       0.0       0.1       0.1       0.1
 3 C  dxz             0.1       0.0       0.4       0.4       0.0       0.2
 3 C  dyz             0.0       0.2       0.1       0.0       0.2       0.2
 3 C  dx2y2           0.0       0.2       0.0       0.3       0.0       0.2
 3 C  dxy             0.6       0.0       0.6       0.2       0.0       0.2
 4 H  s               4.7      14.0       6.2       0.1       7.5       1.0
 5 C  s               9.3       0.0       0.1       0.9       0.8       2.0
 5 C  pz              0.2       2.3      10.9       0.0       0.7       0.6
 5 C  px              3.1       6.0       0.8       3.2       1.3       8.6
 5 C  py              1.3       0.3       0.3       1.2       0.6       1.1
 5 C  dz2             0.1       0.1       0.9       0.0       0.0       0.0
 5 C  dxz             0.0       0.3       0.1       0.1       0.0       0.6
 5 C  dyz             0.2       0.1       0.0       0.0       0.3       0.1
 5 C  dx2y2           0.0       0.2       0.1       0.5       0.0       0.3
 5 C  dxy             0.2       0.0       0.0       0.0       0.1       0.2
 6 O  s               0.1       0.0       0.3       0.4       0.2       0.3
 6 O  pz              0.1       0.1       0.1       0.3       0.1       0.7
 6 O  px              0.1       0.1       0.2       0.1       0.0       0.2
 6 O  py              0.1       0.3       0.4       1.0       1.5       0.2
 7 H  s               1.5      20.6       0.6       0.3       8.1      10.6
 8 H  s               2.4       0.3       1.0      27.7       1.2       2.2
 9 H  s              11.9       1.2       6.8      12.0       7.4       1.4
10 H  s               5.8       6.1       0.9       1.5      21.0       0.6
11 H  s               0.6       0.5       7.5       0.4       0.6      16.7
12 H  s               9.7       0.2       1.8       4.2       3.8       0.5
13 H  s               0.8       1.4       8.2       1.1       3.8       0.6
14 H  s               0.9       1.7       5.0       8.4       1.1      15.4
15 H  s               2.1       6.0      19.6       0.8       2.6       0.8
16 H  s              21.5      13.5       0.8       3.6       3.1       6.3
17 H  s               0.8       0.8       0.0       0.2       4.3       0.2

                     36        37        38        39        40        41   
                   0.15801   0.17700   0.20232   0.21159   0.22633   0.23747
                   0.00000   0.00000   0.00000   0.00000   0.00000   0.00000
                  --------  --------  --------  --------  --------  --------
 0 C  s               0.0       0.1       0.3       0.1       0.4       1.3
 0 C  pz              0.6       0.0       3.5       0.3       1.1       1.3
 0 C  px              0.2       3.3      12.5       0.3       5.3      12.8
 0 C  py              2.3       1.4       0.8       0.5       0.1       1.0
 0 C  dz2             0.3       0.0       0.4       0.1       0.6       0.1
 0 C  dxz             0.2       0.0       0.8       0.2       0.3       1.7
 0 C  dyz             0.0       0.0       0.3       0.5       0.1       0.0
 0 C  dx2y2           0.0       1.2       1.5       0.0       1.6       1.2
 0 C  dxy             0.1       0.0       0.1       0.1       0.1       0.9
 1 C  s               0.3       3.0       0.6       1.1       3.8       2.2
 1 C  pz              0.8       5.6       0.1       4.3       2.0       1.1
 1 C  px              1.0       0.1      14.6       7.0       3.6       8.2
 1 C  py              2.3       0.8       0.2       7.2       4.2       0.2
 1 C  dz2             0.1       0.6       0.1       0.0       0.3       0.0
 1 C  dxz             0.6       0.2       1.0       1.3       0.1       0.4
 1 C  dyz             0.0       0.6       0.1       1.8       0.4       0.4
 1 C  dx2y2           0.0       0.0       1.9       0.0       0.4       0.0
 1 C  dxy             0.2       0.7       0.5       1.2       0.9       0.3
 2 C  s               1.4       3.1       1.0       2.6       4.8       1.4
 2 C  pz              2.2       0.8       0.9       1.9       9.1       4.6
 2 C  px              2.9       3.7       7.6       7.9       0.6       7.6
 2 C  py              5.1       0.9       1.0       7.6       2.8       0.3
 2 C  dz2             0.3       0.7       0.2       0.0       0.0       0.5
 2 C  dxz             0.5       0.2       0.5       1.4       0.3       0.7
 2 C  dyz             0.0       0.1       0.4       1.9       0.6       0.3
 2 C  dx2y2           0.2       0.1       1.9       0.0       0.8       2.2
 2 C  dxy             0.3       1.2       0.6       0.4       0.6       0.0
 3 C  s               0.9       0.9       8.1       2.4       0.8       8.1
 3 C  pz              0.1       1.0       5.1       0.1       0.2       7.8
 3 C  px              1.7       2.7       0.8       3.5      21.8       0.7
 3 C  py              1.1      12.5       3.4       9.3       0.7       4.4
 3 C  dz2             0.1       0.0       0.6       0.9       0.0       0.4
 3 C  dxz             0.9       0.8       0.3       0.3       1.7       0.0
 3 C  dyz             0.1       1.0       0.1       0.5       0.6       0.5
 3 C  dx2y2           0.1       0.2       0.0       0.3       1.8       0.8
 3 C  dxy             0.3       1.5       0.1       0.3       0.0       0.5
 4 H  s               2.1       4.5       1.3       0.4       0.1       0.3
 5 C  s               0.1       0.1       0.7       0.9       0.3       0.0
 5 C  pz              6.8       0.2       0.1       0.6       0.5       2.2
 5 C  px              1.8       0.7       3.3       1.6       0.1       0.2
 5 C  py              1.8       2.9       7.3      14.9       5.2       0.1
 5 C  dz2             0.1       0.0       0.6       1.0       0.6       0.0
 5 C  dxz             0.1       0.0       0.0       0.0       0.2       0.1
 5 C  dyz             0.3       0.1       0.1       0.5       0.0       0.3
 5 C  dx2y2           0.0       0.0       0.7       0.9       1.9       0.0
 5 C  dxy             0.2       0.6       2.1       1.7       0.0       0.1
 6 O  s               0.5       0.4       0.0       0.2       1.2       1.7
 6 O  pz              0.0       1.5       0.1       0.4       2.1       0.4
 6 O  px              0.2       1.8       0.1       0.3       0.2       2.9
 6 O  py              0.0       7.9       0.3       0.3       3.0       2.7
 6 O  dxz             0.0       0.1       0.0       0.1       0.0       0.1
 6 O  dyz             0.0       0.1       0.0       0.0       0.4       0.0
 6 O  dx2y2           0.0       0.1       0.0       0.0       0.2       0.0
 6 O  dxy             0.0       0.2       0.2       0.1       0.1       0.6
 7 H  s               1.9       0.3       1.6       0.2       1.2       0.3
 8 H  s               4.7       3.2       1.7       0.1       1.0       0.4
 9 H  s               0.2       0.1       0.8       0.2       0.6       4.9
10 H  s               1.2       2.5       0.0       0.9       0.7       0.5
11 H  s               7.7       1.8       0.5       1.3       1.2       0.1
12 H  s              13.4       0.4       3.5       1.5       2.4       1.9
13 H  s               7.9      10.0       1.0       0.5       0.9       0.7
14 H  s               5.7       3.4       0.1       1.7       0.1       2.0
15 H  s               8.8       0.1       1.3       1.6       1.1       3.3
16 H  s               6.5       0.7       0.4       0.4       1.3       0.0
17 H  s               0.6       7.3       0.1       0.0       0.9       0.1

                     42        43        44        45        46        47   
                   0.38601   0.39350   0.40129   0.42683   0.43664   0.44784
                   0.00000   0.00000   0.00000   0.00000   0.00000   0.00000
                  --------  --------  --------  --------  --------  --------
 0 C  s               0.2       0.1       0.0       0.1       3.7       0.2
 0 C  pz              1.7       0.8      12.1       4.1      12.0       0.7
 0 C  px              2.1       0.8       0.3       0.9      16.0       1.1
 0 C  py              0.2       6.9      13.7       3.3       2.6       0.2
 0 C  dz2             0.1       0.0       6.3       0.6       0.4       0.1
 0 C  dxz             0.1       0.0       0.0       0.9       0.7       0.1
 0 C  dyz             0.3       0.7       0.0       1.2       0.6       0.1
 0 C  dx2y2           0.0       0.9       1.2       0.2       1.1       0.0
 0 C  dxy             0.1       0.0       1.2       2.0       0.0       0.3
 1 C  s               0.2       0.0       0.0       1.5       0.1       0.2
 1 C  pz              5.8       0.1       2.3       4.7       6.8       0.3
 1 C  px              1.4       3.2       0.2       1.4       7.1       0.2
 1 C  py              3.2       3.5       3.6       5.0       1.1       0.3
 1 C  dz2             0.3       0.7       3.5       0.3       1.4       0.0
 1 C  dxz             0.1       0.0       0.3       0.4       1.7       0.0
 1 C  dyz             0.7       0.4       0.1       0.7       1.0       0.0
 1 C  dx2y2           0.2       0.6       0.8       0.7       1.4       0.3
 1 C  dxy             0.3       0.0       1.4       1.1       0.0       0.0
 2 C  s               2.0       0.9       0.1       0.8       0.1       0.6
 2 C  pz              5.9       8.0       0.1       3.4       0.8       0.3
 2 C  px              2.7       0.1       0.1      13.5       0.2       3.7
 2 C  py              9.4       3.1       0.1       4.3       0.6       0.2
 2 C  dz2             0.2       3.7       0.1       0.3       1.4       0.0
 2 C  dxz             0.0       0.1       0.2       0.6       0.0       0.0
 2 C  dyz             0.9       0.4       0.0       1.7       0.0       0.0
 2 C  dx2y2           1.1       0.2       0.3       0.0       0.1       0.1
 2 C  dxy             0.8       0.6       0.1       0.2       0.0       0.2
 3 C  s               0.0       0.0       0.0       0.4       0.6       2.6
 3 C  pz              0.8       0.1       0.3       1.9       0.6       0.9
 3 C  px              1.9       4.3       0.2       1.4      13.2       0.8
 3 C  py              3.4       3.1       0.2       1.6       1.5       1.9
 3 C  dz2             0.2       0.5       0.1       1.6       0.1       1.4
 3 C  dxz             1.0       1.1       0.0       0.3       0.1       0.0
 3 C  dyz             1.1       0.0       0.0       0.1       0.1       0.1
 3 C  dx2y2           0.4       0.2       0.0       0.5       0.0       2.1
 3 C  dxy             0.1       1.0       0.0       0.0       0.1       0.1
 4 H  s               2.0       0.4       0.1       5.0       0.3       5.2
 5 C  s               0.8       1.2       0.0       0.2       0.2       1.3
 5 C  pz             11.6       0.5       0.0       0.6       3.3       6.4
 5 C  px              2.3      16.4       0.6       0.2       0.4       2.7
 5 C  py              2.0       2.5       0.3       1.3       0.4      20.4
 5 C  dz2             4.1       0.0       0.0       0.1       0.6       0.1
 5 C  dxz             0.2       1.3       0.1       0.0       0.0       1.9
 5 C  dyz             0.7       0.3       0.0       0.7       0.0       2.7
 5 C  dx2y2           0.4       1.0       0.0       0.3       0.0       0.2
 5 C  dxy             0.0       0.2       0.0       0.0       0.0       2.1
 6 O  s               0.0       0.1       0.0       0.2       0.3       0.8
 6 O  pz              0.0       0.0       0.0       1.8       0.4       0.6
 6 O  px              0.1       0.0       0.0       0.7       0.5       0.6
 6 O  py              0.2       0.4       0.1       1.0       0.9       2.1
 6 O  dz2             0.0       0.1       0.0       0.0       0.0       0.2
 6 O  dxz             0.0       0.0       0.0       0.0       0.1       0.1
 6 O  dyz             0.1       0.1       0.0       0.0       0.1       0.1
 6 O  dx2y2           0.0       0.0       0.0       0.1       0.0       0.8
 6 O  dxy             0.0       0.1       0.0       0.1       0.1       0.9
 7 H  s               0.2       0.5      14.0       2.9       2.7       0.4
 8 H  s               0.1       1.6      14.3       1.6       2.3       0.2
 9 H  s               0.5       0.6       0.1      11.0       0.2       1.4
10 H  s               1.5       1.2       9.0       2.5       3.4       0.2
11 H  s               0.8       2.3      10.7       2.8       0.4       0.4
12 H  s               0.2      10.5       0.6       1.7       2.9       0.6
13 H  s               6.1       5.8       0.5       0.4       0.2       0.0
14 H  s               0.3       0.7       0.0       0.7       1.4      17.2
15 H  s              11.4       0.4       0.0       0.9       1.2       1.3
16 H  s               4.9       5.0       0.2       0.8       0.1       0.7
17 H  s               0.4       0.7       0.1       0.5       0.2       9.5

                     48        49        50        51        52        53   
                   0.47870   0.55412   0.56002   0.57250   0.58375   0.60137
                   0.00000   0.00000   0.00000   0.00000   0.00000   0.00000
                  --------  --------  --------  --------  --------  --------
 0 C  s               0.1       0.1       4.3       0.2       4.0       1.1
 0 C  pz              0.5       6.0       1.0       5.7       1.6       0.0
 0 C  px              1.1       0.9      15.1       1.9       3.4       1.1
 0 C  py              5.4       0.8       1.2       2.6       0.4       0.1
 0 C  dz2             0.1       0.6       0.3       0.6       0.0       0.0
 0 C  dxz             0.1       0.2       0.0       0.1       0.1       0.1
 0 C  dyz             1.1       0.3       0.3       0.0       0.4       0.1
 0 C  dx2y2           0.1       0.6       0.2       0.5       0.0       0.0
 0 C  dxy             0.2       0.1       0.2       0.2       0.4       0.0
 1 C  s               2.1       1.2       1.5       2.0       0.8      11.9
 1 C  pz              3.3       8.1       0.9       2.0       0.7       0.3
 1 C  px              2.2       4.5       3.6       0.3      13.0       4.8
 1 C  py              4.7       0.1       2.2      12.9       0.6       1.9
 1 C  dz2             0.1       0.6       0.3       0.9       0.0       0.0
 1 C  dxz             0.0       0.1       0.1       0.2       0.0       0.1
 1 C  dyz             0.7       0.2       0.0       0.0       0.1       0.0
 1 C  dx2y2           0.0       0.2       0.9       0.5       0.0       0.2
 1 C  dxy             0.1       0.0       0.2       0.0       0.0       0.0
 2 C  s               1.6       3.2       0.5       0.5       1.5       1.4
 2 C  pz              2.5       5.3       0.3       0.1       1.3       4.4
 2 C  px              2.0       1.5       3.1       6.5       1.2       4.2
 2 C  py              0.7       2.1       0.6       1.8       1.6       3.3
 2 C  dz2             0.0       0.1       0.3       0.3       0.6       0.0
 2 C  dxz             0.2       1.4       0.6       0.0       0.8       0.0
 2 C  dyz             0.4       0.2       0.0       0.0       0.3       0.0
 2 C  dx2y2           0.0       0.1       0.0       0.9       0.2       0.1
 2 C  dxy             1.1       0.0       0.0       0.6       0.4       0.0
 3 C  s               8.3       1.2       2.7       1.7       1.1       9.9
 3 C  pz              2.8       4.0       0.0       1.3       5.8       2.0
 3 C  px              2.4       0.2      10.3      17.7       0.6       2.1
 3 C  py             13.2       7.0      12.9       0.5       8.0       0.2
 3 C  dz2             0.2       1.3       0.0       0.1       1.9       0.3
 3 C  dxz             0.1       0.0       0.0       0.2       0.1       0.0
 3 C  dyz             0.3       0.2       0.0       0.0       0.1       0.1
 3 C  dx2y2           0.3       0.0       0.1       0.0       0.2       0.0
 3 C  dxy             0.4       0.1       0.1       0.4       0.0       0.2
[...]
 3 C  dx2y2           0.1       0.7       4.9       0.7       2.6       0.6
 3 C  dxy             1.0       0.1       0.5       8.7      14.1       0.0
 4 H  s               1.0       0.4       0.2       0.5       0.3       0.1
 5 C  s               0.2       0.1       0.2       0.2       1.3       0.0
 5 C  px              0.2       0.0       0.1       0.1       0.5       0.0
 5 C  py              0.5       0.0       0.3       0.6       2.3       0.0
 5 C  dz2            10.8       0.0       0.7       0.6       6.0       0.1
 5 C  dxz             3.2       0.1       1.3       0.3       0.1       0.1
 5 C  dyz             0.1       0.6       0.1       1.5       0.4       0.1
 5 C  dx2y2           2.8       0.0       1.6       8.0       9.8       0.2
 5 C  dxy             5.2       0.0       9.4       0.8       7.5       0.1
 6 O  s               0.0       0.0       0.1       0.1       0.1       0.1
 6 O  pz              0.1       0.1       0.0       0.0       0.0       0.0
 6 O  px              0.1       0.0       0.1       0.0       0.0       0.0
 6 O  py              0.0       0.0       0.1       0.0       0.1       0.0
 6 O  dz2             1.6       0.4       0.2       2.2       0.1       5.5
 6 O  dxz             0.5       0.6       1.6       1.3       0.4      15.2
 6 O  dyz             0.8       1.1       2.2       0.7       1.1      19.2
 6 O  dx2y2           0.4       0.0       3.3       2.1       0.1      10.7
 6 O  dxy             0.3       0.2       0.3       1.1       2.6       3.0
 7 H  s               0.0       2.3       0.0       0.1       0.0       0.0
 8 H  s               1.3       0.1       1.1       0.1       0.0       0.0
 9 H  s               0.6       0.6       0.4       0.0       0.0       0.2
10 H  s               0.8       0.5       0.8       0.3       0.5       0.1
11 H  s               0.4       0.2       0.2       1.1       0.2       0.1
12 H  s               0.0       1.7       2.1       0.2       0.2       0.0
13 H  s               0.2       1.7       0.9       0.7       0.1       0.0
14 H  s               0.6       0.0       0.6       0.0       0.1       0.0
15 H  s               1.2       0.0       0.0       0.0       0.2       0.0
16 H  s               1.3       0.0       0.2       0.3       0.3       0.0
17 H  s               0.0       0.0       0.2       0.0       0.1       0.0

                    102       103       104       105       106       107   
                   2.58342   2.59329   2.79404   2.88505   2.95210   3.29817
                   0.00000   0.00000   0.00000   0.00000   0.00000   0.00000
                  --------  --------  --------  --------  --------  --------
 0 C  s               0.5       0.8       0.0       0.1       0.0       0.0
 0 C  pz              0.1       0.0       0.0       0.0       0.0       0.0
 0 C  px              1.0       1.1       0.0       0.1       0.0       0.0
 0 C  dz2             0.3       1.8       0.0       0.1       0.0       0.0
 0 C  dxz             3.8       0.3       0.0       0.1       0.0       0.0
 0 C  dx2y2           2.7       5.7       0.0       0.2       0.0       0.0
 0 C  dxy             1.2       0.2       0.0       0.0       0.0       0.0
 1 C  s               0.1       0.0       0.0       0.1       0.0       0.0
 1 C  px              1.3       2.7       0.0       0.4       0.1       0.0
 1 C  py              0.1       0.1       0.0       0.1       0.0       0.0
 1 C  dz2             1.9       0.4       0.0       0.0       0.0       0.1
 1 C  dxz             4.4      10.3       0.1       1.1       0.3       0.0
 1 C  dyz             2.1       0.0       0.0       0.3       0.2       0.0
 1 C  dx2y2           6.0       0.4       0.0       0.3       0.2       0.1
 1 C  dxy             1.5       8.8       0.0       0.9       0.1       0.0
 2 C  s               1.0       0.1       0.0       0.0       0.0       0.0
 2 C  pz              0.3       0.1       0.0       0.0       0.0       0.0
 2 C  px              0.1       3.6       0.3       0.8       0.1       0.0
 2 C  py              0.2       0.3       0.0       0.1       0.0       0.1
 2 C  dz2             2.2       1.2       0.1       0.0       0.8       0.1
 2 C  dxz             0.2      11.5       0.1       3.4       1.0       0.0
 2 C  dyz             0.0       1.5       0.0       0.0       0.0       0.2
 2 C  dx2y2           7.7       9.1       1.1       0.1       0.0       0.1
 2 C  dxy             4.7       2.3       0.0       3.4       0.7       0.0
 3 C  s               0.2       0.6       0.1       0.0       0.1       1.9
 3 C  pz              0.1       0.3       0.7       0.5       0.0       0.6
 3 C  px              0.2       3.1       0.2       0.1       0.1       1.3
 3 C  py              0.1       0.3       0.1       0.0       0.0       1.9
 3 C  dz2             0.8       0.0       3.4       3.1       0.5       0.3
 3 C  dxz             5.2       6.2       0.8       1.4       1.6       2.8
 3 C  dyz             1.5       1.7       0.0       3.6       0.5       3.1
 3 C  dx2y2           4.6       4.0      10.6       3.7       5.0       0.0
 3 C  dxy             0.5       0.0       0.1       3.3       0.2       7.2
 4 H  s               0.2       0.0       0.1       0.0       0.0       0.1
 5 C  s               0.0       0.3       0.0       0.0       0.1       0.2
 5 C  px              0.0       0.3       0.1       0.1       0.0       0.0
 5 C  py              0.0       0.3       0.1       0.0       0.1       0.2
 5 C  dz2             0.4       1.0       0.3       0.0       0.0       0.1
 5 C  dxz             0.0       0.0       0.1       0.1       0.0       0.0
 5 C  dyz             1.0       0.2       0.7       0.0       0.3       0.0
 5 C  dx2y2           0.1       0.8       0.1       0.3       0.2       0.3
 5 C  dxy             0.7       0.8       2.0       0.3       0.6       0.0
 6 O  s               0.1       0.0       0.2       0.8       2.0       4.2
 6 O  pz              0.0       0.0       0.4       0.3       0.1       0.5
 6 O  px              0.0       0.1       0.4       0.8       0.1       0.8
 6 O  py              0.0       0.0       1.3       0.2       0.3       3.6
 6 O  dz2             2.2       7.2       0.1      52.7      12.4       1.9
 6 O  dxz             3.5       1.8      46.7       0.3       1.5      12.7
 6 O  dyz            27.3       2.5       0.8      13.1       3.1      16.0
 6 O  dx2y2           3.2       5.4       8.1       1.0      49.7       0.0
 6 O  dxy             3.5       0.1      19.1       0.9      11.9      38.7
 9 H  s               0.2       0.0       0.0       0.0       0.0       0.0
12 H  s               0.2       0.1       0.0       0.0       0.0       0.0
13 H  s               0.4       0.1       0.1       0.0       0.0       0.0
15 H  s               0.1       0.0       0.0       0.0       0.0       0.0
17 H  s               0.0       0.0       1.1       1.2       5.6       0.8



                      *****************************
                      * MAYER POPULATION ANALYSIS *
                      *****************************

  NA   - Mulliken gross atomic population
  ZA   - Total nuclear charge
  QA   - Mulliken gross atomic charge
  VA   - Mayer's total valence
  BVA  - Mayer's bonded valence
  FA   - Mayer's free valence

  ATOM       NA         ZA         QA         VA         BVA        FA
  0 C      6.2577     6.0000    -0.2577     4.0119     4.0119    -0.0000
  1 C      6.2126     6.0000    -0.2126     4.1409     4.1409    -0.0000
  2 C      6.1695     6.0000    -0.1695     4.0230     4.0230    -0.0000
  3 C      5.9652     6.0000     0.0348     4.2132     4.2132    -0.0000
  4 H      0.9461     1.0000     0.0539     0.9481     0.9481    -0.0000
  5 C      6.2529     6.0000    -0.2529     3.9334     3.9334     0.0000
  6 O      8.4281     8.0000    -0.4281     1.9868     1.9868     0.0000
  7 H      0.9013     1.0000     0.0987     0.9569     0.9569     0.0000
  8 H      0.9028     1.0000     0.0972     0.9574     0.9574     0.0000
  9 H      0.8979     1.0000     0.1021     0.9499     0.9499     0.0000
 10 H      0.9156     1.0000     0.0844     0.9493     0.9493    -0.0000
 11 H      0.9031     1.0000     0.0969     0.9488     0.9488     0.0000
 12 H      0.9168     1.0000     0.0832     0.9663     0.9663     0.0000
 13 H      0.9357     1.0000     0.0643     0.9641     0.9641    -0.0000
 14 H      0.8938     1.0000     0.1062     0.9614     0.9614     0.0000
 15 H      0.9021     1.0000     0.0979     0.9712     0.9712     0.0000
 16 H      0.8905     1.0000     0.1095     0.9652     0.9652    -0.0000
 17 H      0.7083     1.0000     0.2917     0.8909     0.8909     0.0000

  Mayer bond orders larger than 0.100000
B(  0-C ,  1-C ) :   1.1511 B(  0-C ,  7-H ) :   0.9548 B(  0-C ,  8-H ) :   0.9549 
B(  0-C ,  9-H ) :   0.9526 B(  1-C ,  2-C ) :   1.1126 B(  1-C , 10-H ) :   0.9253 
B(  1-C , 11-H ) :   0.9212 B(  2-C ,  3-C ) :   1.0704 B(  2-C , 12-H ) :   0.9093 
B(  2-C , 13-H ) :   0.9172 B(  3-C ,  4-H ) :   0.9098 B(  3-C ,  5-C ) :   1.1122 
B(  3-C ,  6-O ) :   1.0582 B(  5-C , 14-H ) :   0.9424 B(  5-C , 15-H ) :   0.9446 
B(  5-C , 16-H ) :   0.9432 B(  6-O , 17-H ) :   0.8530 

-------
TIMINGS
-------

Total SCF time: 0 days 0 hours 0 min 5 sec 

Total time                  ....       5.316 sec
Sum of individual times     ....       4.948 sec  ( 93.1%)

SCF preparation             ....       0.150 sec  (  2.8%)
Fock matrix formation       ....       4.184 sec  ( 78.7%)
  Startup                   ....       0.050 sec  (  1.2% of F)
  Split-RI-J                ....       1.215 sec  ( 29.0% of F)
  XC integration            ....       2.518 sec  ( 60.2% of F)
    Basis function eval.    ....       0.858 sec  ( 34.1% of XC)
    Density eval.           ....       0.279 sec  ( 11.1% of XC)
    XC-Functional eval.     ....       0.241 sec  (  9.6% of XC)
    XC-Potential eval.      ....       0.481 sec  ( 19.1% of XC)
Diagonalization             ....       0.000 sec  (  0.0%)
Density matrix formation    ....       0.140 sec  (  2.6%)
Total Energy calculation    ....       0.026 sec  (  0.5%)
Population analysis         ....       0.055 sec  (  1.0%)
Orbital Transformation      ....       0.041 sec  (  0.8%)
Orbital Orthonormalization  ....       0.000 sec  (  0.0%)
DIIS solution               ....       0.292 sec  (  5.5%)
  MO trafo                  ....       0.000 sec  (  0.0 % of DIIS)
  Orb grad                  ....       0.000 sec  (  0.0 % of DIIS)
  Energy W gradient         ....       0.000 sec  (  0.0 % of DIIS)
  DIIS error                ....       0.002 sec  (  0.6 % of DIIS)
  DIIS work                 ....       0.254 sec  ( 87.0 % of DIIS)
  Form Q                    ....       0.000 sec  (  0.0 % of DIIS)
  Form QpQm                 ....       0.000 sec  (  0.0 % of DIIS)
  Exp/Cayley                ....       0.000 sec  (  0.0 % of DIIS)
  Orb update                ....       0.000 sec  (  0.0 % of DIIS)
  Wake-sleep                ....       0.014 sec  (  4.9 % of DIIS)
SOSCF solution              ....       0.059 sec  (  1.1%)
  MO trafo                  ....       0.035 sec  ( 58.9 % of SOSCF)
  Orb grad                  ....       0.001 sec  (  2.3 % of SOSCF)
  Rot update                ....       0.010 sec  ( 17.2 % of SOSCF)
  Step                      ....       0.013 sec  ( 21.6 % of SOSCF)
Finished LeanSCF after   5.4 sec

Maximum memory used throughout the entire LEANSCF-calculation: 10.6 MB


-------------------------------------------------------------------------------
                          DFT DISPERSION CORRECTION                            
                                                                               
                                DFTD4 V3.4.0                                   
-------------------------------------------------------------------------------
The PBE functional is recognized
Active option DFTDOPT                   ...         5   

-------------------------   ----------------
Dispersion correction           -0.012333347
-------------------------   ----------------

------------------   -----------------
gCP correction             0.082070250
------------------   -----------------

-------------------------   --------------------
FINAL SINGLE POINT ENERGY      -272.305385032868
-------------------------   --------------------


------------------------------------------------------------------------------
                              ORCA PROPERTY CALCULATIONS
------------------------------------------------------------------------------

GBWName                                 ... sp.gbw
Number of atoms                         ...     18
Number of basis functions               ...    108
Max core memory                         ...   1024 MB

Electric properties:
Dipole moment                           ... YES
Quadrupole moment                       ...  NO
Static polarizability (Dipole/Dipole)   ...  NO
Static polarizability (Dipole/Quad.)    ...  NO
Static polarizability (Quad./Quad.)     ...  NO
Static polarizability (Velocity)        ...  NO

Atomic electric properties:
Dipole moment                           ...  NO
Quadrupole moment                       ...  NO
Static polarizability                   ...  NO

Choice of electric origin               ... Center of mass
Position of electric origin             ...     0.000027    -0.000017    -0.000004

General magnetic properties:
Magnetizability                         ...  NO

EPR properties:
g-Tensor (aka g-matrix)                 ...  NO
Zero-Field splitting spin-orbit         ...  NO
Zero-field splitting spin-spin          ...  NO
Hyperfine couplings                     ...  NO (   0 nuclei)
Quadrupole couplings                    ...  NO (   0 nuclei)
Contact density                         ...  NO (   0 nuclei)

NMR properties:
Chemical shifts                         ...  NO (   0 nuclei)
Spin-rotation constants                 ...  NO (   0 nuclei)
Spin-spin couplings                     ...  NO (   0 nuclei,    0 pairs)

Choice of magnetic origin               ... GIAO
Position of magnetic origin             ...     0.000000     0.000000     0.000000

Properties with geometric perturbations:
SCF Hessian                             ...  NO
IR spectrum                             ...  NO
VCD spectrum                            ...  NO
X-ray spectroscopy properties:
SCF XES/XAS/RIXS spectra                ...  NO


-------------
DIPOLE MOMENT
-------------

Method             : SCF
Type of density    : Electron Density
Multiplicity       :   1
Irrep              :   0
Energy             :  -272.3751219361741391 Eh
Relativity type    : 
Basis              : AO
                                X                 Y                 Z
Electronic contribution:     -4.480037846       2.985839485       0.369062270
Nuclear contribution   :      5.002578746      -2.828111764      -0.605204593
                        -----------------------------------------
Total Dipole Moment    :      0.522540900       0.157727721      -0.236142324
                        -----------------------------------------
Magnitude (a.u.)       :      0.594718609
Magnitude (Debye)      :      1.511654570



--------------------
Rotational spectrum 
--------------------
 
Rotational constants in cm-1:             0.234622             0.057909             0.049944 
Rotational constants in MHz :          7033.783225          1736.073718          1497.284718 

Dipole components along the rotational axes: 
x,y,z [a.u.] :     0.489834     0.185758    -0.281508 
x,y,z [Debye]:     1.245060     0.472159    -0.715536 

 

Dipole moment calculation done in   0.0 sec 

Maximum memory used throughout the entire PROP-calculation: 6.6 MB

--------------------------------
SUGGESTED CITATIONS FOR THIS RUN
--------------------------------

Below you find a list of papers that are relevant to this ORCA run
We neither can nor want to force you to cite these papers, but we appreciate if you do
You receive ORCA, which is the product of decades of hard work by many enthusiastic individuals, for free
The only thing we kindly ask in return is that you cite our papers,
We deeply appreciate it, if you show your appreciation for ORCA by not just citing the generic ORCA reference.

Please note that relegating all ORCA citations to the supporting information does *not* help us.
SI sections are not indexed - citations you put there will not count into any citation statistics
But we need these citations in order to attract the funding resources that allow us to do what we are doing

Therefore, if you are a happy ORCA user, please consider citing a few of the papers listed below in the main body of your paper

In addition to the list printed below, the program has created the file sp.bibtex that contains the list in bibtex format
You can import this file easily into all common literature databanks and citation aid programs


List of essential papers. We consider these as the minimum necessary citations

  1. Neese,F.
     Software update: the ORCA program system, version 5.0
     WIRES Comput. Molec. Sci., 2022 12(1)e1606
     doi.org/10.1002/wcms.1606

List of papers to cite with high priority. The work reported in these papers was absolutely
necessary for this run to complete.
Our perspective: the developers of density functionals and basis sets usually get cited in chemistry papers
Good! But without the algorithms to do something with them, the functionals or basis sets would not do anything.
Hence, in our opinion, the algorithm design and method developments papers are equally worthy of getting cited

  1. Neese,F.
     An improvement of the resolution of the identity approximation for the formation of the Coulomb matrix
     J. Comp. Chem., 2003 24(14)1740-1747
     doi.org/10.1002/jcc.10318
  2. Neese,F.
     The SHARK Integral Generation and Digestion System
     J. Comp. Chem., 2022  1-16
     doi.org/10.1002/jcc.26942
  3. Caldeweyher,E.; Bannwarth,C.; Grimme,S.
     Extension of the D3 dispersion coefficient model
     J. Chem. Phys., 2017 147 034112-XXXX
     doi.org/10.1063/1.4993215
  4. Caldeweyher,E.; Ehlert,S.; Hansen,A.; Neugebauer,H.; Spicher,S.; Bannwarth,C.; Grimme,S.
     A generally applicable atomic-charge dependent London dispersion correction
     J. Chem. Phys., 2019 150 154122-XXXX
     doi.org/10.1063/1.5090222
  5. Caldeweyher,E.; Mewes,J.; Ehlert,S.; Grimme,S.
     Extension and evaluation of the D4 London-dispersion model for periodic systems
     Phys. Chem. Chem. Phys., 2020 22(16)8499-8512
     doi.org/10.1039/D0CP00502A

List of suggested additional citations. These are papers that are important in the 'surrounding' of 
of this run, or papers that preceded the highly important papers. If you like your results we are grateful for a citation.

  1. Neese,F.
     The ORCA program system
     WIRES Comput. Molec. Sci., 2012 2(1)73-78
     doi.org/10.1002/wcms.81
  2. Neese,F.
     Software update: the ORCA program system, version 4.0
     WIRES Comput. Molec. Sci., 2018 8(1)1-6
     doi.org/10.1002/wcms.1327
  3. Neese,F.; Wennmohs,F.; Becker,U.; Riplinger,C.
     The ORCA quantum chemistry program package
     J. Chem. Phys., 2020 152 Art. No. L224108
     doi.org/10.1063/5.0004608

List of optional additional citations

  1. Neese,F.
     Approximate second-order SCF convergence for spin unrestricted wavefunctions
     Chem. Phys. Lett., 2000 325(1-3)93-98
     doi.org/10.1016/s0009-2614(00)00662-x

Timings for individual modules:

Sum of individual times          ...        6.805 sec (=   0.113 min)
Startup calculation              ...        0.648 sec (=   0.011 min)   9.5 %
SCF iterations                   ...        6.061 sec (=   0.101 min)  89.1 %
Property calculations            ...        0.097 sec (=   0.002 min)   1.4 %
                             ****ORCA TERMINATED NORMALLY****
TOTAL RUN TIME: 0 days 0 hours 0 minutes 7 seconds 606 msec
