22
 energy: -39.984138729998 gnorm: 0.031569750352 xtb: 6.7.1 (edcfbbe)
C            5.17039429964351        0.35818335884982       -1.06655782022040
C            4.49870426046387        0.15136317902735        0.29655695182369
C            3.06033624151273       -0.26602682776797        0.10693900219288
O            2.76243323849185       -1.38404071777994       -0.32609918404336
N            2.13478318863041        0.69336853228997        0.41062823516093
C            0.74115869629575        0.64613248260724        0.26224148521740
C            0.04923792602203        1.86339601129318        0.29405013367299
C           -1.32894602377964        1.89036437238849        0.17488381449204
C           -2.04273050473221        0.70560535343196        0.01796029775625
C           -1.35364467998808       -0.50573106476523       -0.00546556394873
C            0.03033031713084       -0.54769396193639        0.11805390833092
Cl          -2.21072526926673       -2.01851386430630       -0.18199196068505
Cl          -3.78056444625273        0.76973932533377       -0.14298711407195
H            5.12269659641235       -0.55527680020682       -1.66573385223292
H            6.22173131907616        0.62342696951798       -0.92945401346794
H            4.68261781050167        1.16399975587538       -1.62328047213134
H            4.57208874606169        1.06064985144775        0.89947907774126
H            4.99893211859501       -0.65757693751057        0.83854802565136
H            2.50500832729433        1.59345308805139        0.68652396010197
H            0.59555105331003        2.79387549970418        0.41065621784081
H           -1.85740125360666        2.83651030407912        0.19715374480973
H            0.53946208576048       -1.49948713438880        0.11178802889922
22
 energy: -39.985249949845 gnorm: 0.011602889150 xtb: 6.7.1 (edcfbbe)
C            5.16434767184228        0.35816984185117       -1.06063446629099
C            4.48991765951722        0.14955679620139        0.29663346683612
C            3.05076334737699       -0.26917498371607        0.09998458958786
O            2.74954241255973       -1.38359912982400       -0.31047034286718
N            2.13558726039246        0.69383922701265        0.40034539977218
C            0.74610184573068        0.65158595715143        0.26605741728467
C            0.05132343190355        1.86360190997744        0.29816006628183
C           -1.32279187256362        1.88845866720812        0.17537558307879
C           -2.02909585345585        0.70429784215770        0.01979781481733
C           -1.34178115472443       -0.50071687079039       -0.00333478364256
C            0.03778324013876       -0.53838173951331        0.12080206263035
Cl          -2.20886207001880       -2.00064517216814       -0.18470701386538
Cl          -3.76174952343421        0.74471592030662       -0.14024421220661
H            5.10655840359130       -0.55363766156423       -1.65221606493706
H            6.21193782277211        0.61777078387585       -0.92230656452498
H            4.67746780201349        1.15876759964415       -1.61474843188145
H            4.56165257878923        1.05999402878348        0.89239337926018
H            4.99819718784128       -0.65797499668515        0.82824569960561
H            2.50760632066572        1.59654043811527        0.66756689589078
H            0.59069799815394        2.79128263071261        0.41497961465712
H           -1.85601091055473        2.82599877310111        0.19771289753548
H            0.55226044903953       -1.48472908660214        0.09449989586769
22
 energy: -39.985468716466 gnorm: 0.004515760028 xtb: 6.7.1 (edcfbbe)
C            5.15537106489444        0.35787182445501       -1.05909778197906
C            4.48570880580714        0.14815608420382        0.30078709323457
C            3.04608793112369       -0.27729920716488        0.10752074665088
O            2.74491811188455       -1.39100169729954       -0.29172200832707
N            2.13803678813724        0.69545300796002        0.39109724127983
C            0.75143658125207        0.65773028034971        0.26060959188308
C            0.05317416592922        1.86659845584330        0.29896789223192
C           -1.32011988450313        1.88904023017174        0.17856453985050
C           -2.02212096530385        0.70355425979746        0.02316730250331
C           -1.33350299304069       -0.49964468913204       -0.00541346688612
C            0.04474034174685       -0.53179844823777        0.11355838016965
Cl          -2.20083999602036       -1.99380736429943       -0.18759053199456
Cl          -3.75058387927039        0.73086553016830       -0.13544680055490
H            5.09102991168379       -0.55282850286106       -1.64872054679597
H            6.20189731907831        0.61259594402271       -0.92226405474766
H            4.66966046955982        1.15838155966403       -1.61019034012973
H            4.55285364777950        1.05791055043196        0.89497117239659
H            4.99886144408108       -0.65862771343827        0.82583529995770
H            2.51046091224423        1.60146672215085        0.64834196515792
H            0.58786785401452        2.79394684151123        0.41947852018811
H           -1.85767940380643        2.82155316932849        0.20083146320198
H            0.56419582030504       -1.47439606239008        0.08060722559879
22
 energy: -39.985579078600 gnorm: 0.003562899934 xtb: 6.7.1 (edcfbbe)
C            5.14725963798984        0.35709701113975       -1.05783288208310
C            4.48511505933676        0.14590725002427        0.30633914079809
C            3.04493004398505       -0.28288255336542        0.11397050935163
O            2.74414644952007       -1.40327011047772       -0.26441209391602
N            2.14100863407642        0.69949527290990        0.37870615545749
C            0.75517146944351        0.66305286704167        0.25503075476324
C            0.05391433921909        1.86980174399166        0.30015064199555
C           -1.31971050339885        1.88962912714614        0.18249975234780
C           -2.01933673497121        0.70289455092978        0.02494898174257
C           -1.32838178304964       -0.50023058840355       -0.00962313141094
C            0.04971930928364       -0.52734736871239        0.10473961948000
Cl          -2.19150190457428       -1.99261880406622       -0.19328574689966
Cl          -3.74532459845687        0.72383279333181       -0.12819579868183
H            5.07551886435358       -0.55259098919487       -1.64793889763498
H            6.19484699142722        0.60730594379124       -0.92541215743215
H            4.66086762885775        1.16005984082263       -1.60407522796679
H            4.54920276515864        1.05552583416572        0.89963866874652
H            5.00222197377895       -0.65981601848044        0.82798697299681
H            2.51351590471961        1.60947550651794        0.62262853385970
H            0.58565139610300        2.79825058808852        0.42347276924823
H           -1.86105822467260        2.81931350137836        0.20874390924892
H            0.57367732944695       -1.46716462334325        0.06581242887869
22
 energy: -39.985728087961 gnorm: 0.006296887725 xtb: 6.7.1 (edcfbbe)
C            5.13173879911379        0.35650920080132       -1.05575929047997
C            4.48707965948536        0.14151407987396        0.31764791698617
C            3.04585973947879       -0.29353163359738        0.13599505554260
O            2.74667533281767       -1.42961105793855       -0.19824034920857
N            2.14671249807723        0.70764480223451        0.35301252501815
C            0.76097032322095        0.67166585123586        0.23947699774106
C            0.05503185919813        1.87505863151712        0.29960736726988
C           -1.32003904843356        1.88987635335377        0.19121448429637
C           -2.01712256933648        0.70176140658676        0.02911838145757
C           -1.32162512775910       -0.50128546134879       -0.01965462504439
C            0.05701940832325       -0.52038730110657        0.08350386688322
Cl          -2.17580112104513       -1.99271386855715       -0.20797516429016
Cl          -3.74042618345292        0.71560564347124       -0.11119259811772
H            5.04489973834047       -0.55052015778106       -1.64885585114843
H            6.18309806167821        0.59833388972502       -0.93688866333076
H            4.64225166253915        1.16568252190217       -1.59048956193009
H            4.54954016485971        1.05077000734308        0.91045793547422
H            5.01321159563399       -0.66209844600905        0.83265740977040
H            2.51943292143682        1.62565281609250        0.56757346992215
H            0.58242943337397        2.80589273402084        0.42897705911534
H           -1.86722959829281        2.81605711674059        0.22864033708982
H            0.58774649831915       -1.45615635332469        0.03506619987289
22
 energy: -39.985830285189 gnorm: 0.008276700795 xtb: 6.7.1 (edcfbbe)
C            5.11887141510869        0.35726469784117       -1.05400278221588
C            4.49059814089129        0.13871602155993        0.32706960891782
C            3.04900850305212       -0.29919035020171        0.15645242948957
O            2.75079302898604       -1.44829443947090       -0.13819783130955
N            2.15119343284981        0.71305351521576        0.33180460661201
C            0.76447378490159        0.67560817467973        0.22595615571815
C            0.05645855026629        1.87727275064539        0.29756568484342
C           -1.31990717278231        1.88908045341768        0.19794301845099
C           -2.01672700485706        0.70101533791992        0.03239534147233
C           -1.31847223784650       -0.50150250519148       -0.02885566269239
C            0.06093989057044       -0.51697944113943        0.06493756102780
Cl          -2.16749495646407       -1.99368230233494       -0.22129814991624
Cl          -3.74029970582630        0.71303936530614       -0.09433824483708
H            5.02078187061516       -0.54694839614171       -1.65073240412005
H            6.17361224088172        0.59304275541983       -0.94791832846402
H            4.62657238342216        1.17189329063234       -1.57888578202411
H            4.55566604290244        1.04730683899259        0.92101767362539
H            5.02378248353323       -0.66417446902379        0.83627272257589
H            2.52460882509215        1.63642835654156        0.52189968494798
H            0.58201068660634        2.80961802074898        0.42930349249719
H           -1.86950258780019        2.81415473026662        0.24593283497801
H            0.59448643347355       -1.45100163044817        0.00957127331250
22
 energy: -39.985974306209 gnorm: 0.008149872179 xtb: 6.7.1 (edcfbbe)
C            5.10403172295549        0.36071832808027       -1.05182233461824
C            4.49577181118550        0.13642999978219        0.33722063256268
C            3.05425654753358       -0.30283149112641        0.18296067542371
O            2.75593966758781       -1.46344591492577       -0.06810493873915
N            2.15581243040135        0.71609648895014        0.30972842857263
C            0.76736586120628        0.67595751570074        0.21008385356843
C            0.05943743794707        1.87709423606607        0.29236635372474
C           -1.31828693016570        1.88733281388956        0.20374860435021
C           -2.01686594562834        0.70048486802765        0.03627586178699
C           -1.31722184918303       -0.50083992214369       -0.03906973373374
C            0.06333498232760       -0.51609123298113        0.04373467400925
Cl          -2.16416632874438       -1.99516656864463       -0.23635873076625
Cl          -3.74346676667483        0.71472597931480       -0.07237036577352
H            4.99507456133211       -0.53983840349077       -1.65326995375898
H            6.16233157416265        0.59157111585239       -0.96158658089595
H            4.60757398823009        1.18098106860938       -1.56529967184525
H            4.56831252394280        1.04324087153645        0.93480095667293
H            5.03679765257543       -0.66719348597325        0.83812064094767
H            2.53108277663432        1.64322973287036        0.47341091610718
H            0.58512870604983        2.81020891188434        0.42393083664401
H           -1.86738627135249        2.81312513815242        0.26361868506256
H            0.59659589525345       -1.45006927419560       -0.01822590641217
22
 energy: -39.986104839602 gnorm: 0.005324368689 xtb: 6.7.1 (edcfbbe)
C            5.09180801347711        0.36710408771807       -1.05002579815034
C            4.49937993235221        0.13532238490617        0.34353199653688
C            3.05839611633212       -0.30435788976500        0.20446792674554
O            2.75759788522325       -1.47066291932331       -0.01192660435711
N            2.15897794160042        0.71416482220835        0.29519451138416
C            0.76928599943421        0.67187502383806        0.19887778887510
C            0.06390111125937        1.87407883978235        0.28591057314302
C           -1.31427915605611        1.88565681093944        0.20617878475957
C           -2.01554448289483        0.70057593447669        0.03985792628698
C           -1.31731900624303       -0.49903560798588       -0.04563831066352
C            0.06399936032609       -0.51840115730565        0.02979429154143
Cl          -2.16833543342578       -1.99474584428787       -0.24758815016779
Cl          -3.74630866235153        0.71937243004328       -0.05488952689574
H            4.97792592382360       -0.53012169304050       -1.65526026059611
H            6.15115737502878        0.59802739852824       -0.97112234893565
H            4.59045712589975        1.18990615286374       -1.55461969466910
H            4.58057417692697        1.03961715198603        0.94577209254540
H            5.04641197721735       -0.67022385347056        0.83568387220746
H            2.53747013916761        1.64209322834544        0.43954319735929
H            0.59192398073732        2.80620450607135        0.41487433506474
H           -1.85970365094100        2.81339843890274        0.27302479130613
H            0.59367738068270       -1.45412747019566       -0.03774849043063
22
 energy: -39.986176218455 gnorm: 0.009318645791 xtb: 6.7.1 (edcfbbe)
C            5.07399327804897        0.37603808908599       -1.04823620797898
C            4.50153730514604        0.13245014001396        0.35137527892814
C            3.06084474377415       -0.31276681685966        0.23163953282750
O            2.75693903222678       -1.48975847326708        0.06855020540706
N            2.16377209809622        0.71190323875913        0.27378041257090
C            0.77405202614714        0.66913577494103        0.18436097189655
C            0.07029384596779        1.87177812873917        0.27922316159376
C           -1.30799715273521        1.88510483432955        0.21047382870255
C           -2.01048879985716        0.70115131830368        0.04492780683575
C           -1.31400626735648       -0.49651391745537       -0.05388069664806
C            0.06765346370064       -0.51916504491109        0.01297941550377
Cl          -2.17047839243319       -1.99073877232718       -0.26322425591070
Cl          -3.74356987156706        0.72085041762079       -0.03626982462707
H            4.95437414808307       -0.51676578398923       -1.65797597295396
H            6.13322409884534        0.60897775348984       -0.98162996313983
H            4.56430706055746        1.20073780767539       -1.54033342117871
H            4.58798987599978        1.03391539802809        0.95737903631038
H            5.05861882255743       -0.67364845331061        0.83132968061711
H            2.54658984718893        1.64340512016600        0.38952652433050
H            0.59984923939415        2.80211986615862        0.40852407133934
H           -1.85097642181134        2.81305422646795        0.28564392309701
H            0.59493206760310       -1.45554407642346       -0.06427060463329
22
 energy: -39.986248738159 gnorm: 0.005060648937 xtb: 6.7.1 (edcfbbe)
C            5.06164410748626        0.38678538035204       -1.04768667439885
C            4.50143768434817        0.12897728638362        0.35397120043525
C            3.06091110485357       -0.31952786800916        0.24687884518205
O            2.75325926237276       -1.49445882500186        0.10944736499995
N            2.16648983659760        0.70403097450708        0.26652945901335
C            0.77779258836676        0.66339304330305        0.17843274354508
C            0.07718679795541        1.86808929625468        0.27310605473071
C           -1.30030863722659        1.88614810538406        0.20848664396350
C           -2.00442470382058        0.70284325460617        0.04648263730671
C           -1.31208611402928       -0.49421190175759       -0.05637482595533
C            0.06945270754189       -0.52269825686188        0.00844008592587
Cl          -2.17764080101573       -1.98607617940524       -0.26653871333752
Cl          -3.73877459179320        0.72518572432560       -0.03042690258947
H            4.94541432892942       -0.50256834608237       -1.66163016036942
H            6.11803821756048        0.62863902901007       -0.98552997398429
H            4.54204629778208        1.20950890247242       -1.53112815862964
H            4.58922807967931        1.02621540211594        0.96530891710966
H            5.06552211279828       -0.67871581988878        0.82225859639035
H            2.55333788642035        1.63452689417894        0.37003393143326
H            0.61039582819688        2.79556604830627        0.40030350365080
H           -1.83954660236633        2.81496374286799        0.28436871632906
H            0.59207865693901       -1.46089511182551       -0.07084038786139
22
 energy: -39.986297533793 gnorm: 0.005648278155 xtb: 6.7.1 (edcfbbe)
C            5.04534314624526        0.39631266238546       -1.04679879066235
C            4.50267168364878        0.12333198101768        0.35998519000678
C            3.06188124596205       -0.32895850877979        0.26533022829276
O            2.75176151645189       -1.50872042859870        0.16964308777840
N            2.17125458490861        0.69994374957355        0.25102897399263
C            0.78297041053090        0.66135647868115        0.16880249373651
C            0.08365046597362        1.86682284467609        0.26815388617543
C           -1.29388915031759        1.88744370318095        0.20899838308509
C           -1.99935105420949        0.70448109290066        0.04739906918295
C           -1.30889571883096       -0.49320313981395       -0.06208445843683
C            0.07290482188833       -0.52363286097068       -0.00233369435672
Cl          -2.17739751206204       -1.98306484297230       -0.27336349682624
Cl          -3.73353052640335        0.72811801245627       -0.02100510597804
H            4.92870011339764       -0.48868349199829       -1.66709900443849
H            6.10073812583649        0.64492671612706       -0.99358076244384
H            4.51445511905268        1.21946570862750       -1.51768462610563
H            4.59058310210919        1.01622648013746        0.97709303158213
H            5.07581104443947       -0.68500633950612        0.81565190756135
H            2.56095626777476        1.63160532169729        0.33545403301386
H            0.61914005650601        2.79297455298832        0.39512615532544
H           -1.83235246834184        2.81610531760322        0.28993050794062
H            0.59404877301610       -1.46212423417724       -0.08475410553610
22
 energy: -39.986342027344 gnorm: 0.003221590934 xtb: 6.7.1 (edcfbbe)
C            5.03245330961119        0.40640626465835       -1.04655224338544
C            4.50314828633541        0.11591910081404        0.36248550274578
C            3.06165931985091       -0.33806190390740        0.27494649003039
O            2.74886590370480       -1.51804668205597        0.20888535905428
N            2.17540477281648        0.69422107166973        0.24282065807919
C            0.78733215439380        0.65934004685652        0.16491817017290
C            0.08976395737169        1.86598209972444        0.26444597657731
C           -1.28782395283729        1.88948423325694        0.20602240397918
C           -1.99545209248455        0.70697020557222        0.04485979783265
C           -1.30714495605274       -0.49349778345569       -0.06375344661258
C            0.07477452940383       -0.52509019822871       -0.00522390620775
Cl          -2.17625554618556       -1.98106442254937       -0.27309453953804
Cl          -3.72772766382336        0.73332526584258       -0.02114302524786
H            4.92064544166715       -0.47451342738377       -1.67425803409748
H            6.08589930018345        0.66603778668620       -0.99867227760237
H            4.48905001210767        1.22824953955148       -1.50598149075243
H            4.59007649340954        1.00297390570074        0.98775878082038
H            5.08294299607728       -0.69378609302869        0.80576961747218
H            2.56681632077560        1.62541357184825        0.31676189461330
H            0.62805223335797        2.79122645879171        0.39119807237768
H           -1.82630259776242        2.81826198617608        0.28804721724207
H            0.59527582565566       -1.46403025130411       -0.08634807466366
22
 energy: -39.986367060984 gnorm: 0.002093452152 xtb: 6.7.1 (edcfbbe)
C            5.02521272365982        0.41465689836655       -1.04711556645685
C            4.50382246159206        0.11004544494346        0.36148964304876
C            3.06151743234509       -0.34437135475634        0.28092203315528
O            2.74630608238032       -1.52266709667911        0.22885873505234
N            2.17759412843669        0.68918539984802        0.24237720089523
C            0.78923583643216        0.65720781408606        0.16511519178806
C            0.09384022302238        1.86501758070521        0.26206667073588
C           -1.28377257326593        1.89041370905824        0.20220696411496
C           -1.99380109368208        0.70911916071392        0.04133931206487
C           -1.30735296614022       -0.49377307206781       -0.06308185101668
C            0.07444954222324       -0.52659260232829       -0.00295803040150
Cl          -2.17702653977639       -1.97949868855516       -0.27076843997772
Cl          -3.72476740061504        0.73866389442850       -0.02623053316530
H            4.91997660214852       -0.46324725334316       -1.68040749867486
H            6.07653179437198        0.68408688104133       -1.00127192850978
H            4.47306298617327        1.23439884352587       -1.49948819680707
H            4.59261954993848        0.99163109615680        0.99474565381159
H            5.08733359120082       -0.70203189379541        0.79513370946159
H            2.57001714773765        1.62023076114335        0.31093256220272
H            0.63397509844148        2.78967085013552        0.38877290990156
H           -1.82163672979469        2.81995702895999        0.28225167221587
H            0.59431615074689       -1.46638262635194       -0.08099731054932
22
 energy: -39.986386684300 gnorm: 0.001628057288 xtb: 6.7.1 (edcfbbe)
C            5.01412716348006        0.42598645112788       -1.04792139116800
C            4.50571565733417        0.10262954934301        0.36070464527346
C            3.06246109238610       -0.35157213203335        0.29290159170008
O            2.74346373661445       -1.53023276096887        0.26575092687470
N            2.18069643935328        0.68324188732809        0.24013843544674
C            0.79171325103782        0.65385442302421        0.16402912401018
C            0.09934396123129        1.86323936188504        0.25856303019538
C           -1.27827645380543        1.89085544636098        0.19812125222603
C           -1.99139639920242        0.71155973768903        0.03793672911868
C           -1.30734457064980       -0.49335446019346       -0.06367382812059
C            0.07431996083945       -0.52867234724238       -0.00218187220053
Cl          -2.17951827210413       -1.97689823789844       -0.27095942704748
Cl          -3.72194649890509        0.74534278338397       -0.03087294218036
H            4.91602294377554       -0.44725892224872       -1.68886416734258
H            6.06271389538019        0.70721308290656       -1.00609718178877
H            4.45058164375622        1.24349658887585       -1.49007120693855
H            4.59989721477207        0.97654294067105        1.00486382338354
H            5.09424513190721       -0.71366902009338        0.78019772386405
H            2.57502950025740        1.61448187030765        0.29778609923173
H            0.64135874616497        2.78699745078863        0.38459046272653
H           -1.81427936509554        2.82183040267418        0.27622740522779
H            0.59252526904862       -1.46989332045187       -0.07727632960241
22
 energy: -39.986401331324 gnorm: 0.004186841304 xtb: 6.7.1 (edcfbbe)
C            5.00619237134758        0.43833273537809       -1.04988276268943
C            4.50856848666485        0.09287353191638        0.35567394739527
C            3.06399512889887       -0.35654477221343        0.29946106536275
O            2.74164576805952       -1.53249653792161        0.28120333868523
N            2.18251503358428        0.67720646543912        0.24835960524314
C            0.79260559639200        0.65014765484715        0.17004379967042
C            0.10361997708387        1.86163098931777        0.25670133764366
C           -1.27388018695067        1.89116948265644        0.18990201750702
C           -1.99018044439604        0.71436020855010        0.03133538829556
C           -1.30850392608724       -0.49308137692147       -0.06046100159473
C            0.07267985875836       -0.53122805830037        0.00800394892629
Cl          -2.18374677396209       -1.97453826933155       -0.26452331659099
Cl          -3.72041368547562        0.75315951490554       -0.04829549718405
H            4.91873649881820       -0.42864263882244       -1.70105493239238
H            6.05086099667172        0.73357929920894       -1.00807603887834
H            4.43098170338045        1.25262600080667       -1.48189997152319
H            4.61187974559891        0.95571309415276        1.01433448608542
H            5.09828938456198       -0.73145756983573        0.75815140982984
H            2.57776607781887        1.60769334295903        0.30217672535569
H            0.64611048990452        2.78504540450667        0.38071108101226
H           -1.80726722581361        2.82461016837871        0.26052165739393
H            0.58899917271772       -1.47443789444107       -0.05849338466377
22
 energy: -39.986412013359 gnorm: 0.002484863828 xtb: 6.7.1 (edcfbbe)
C            4.99795120165862        0.44530635532389       -1.05008298217318
C            4.50985768712762        0.08763746596370        0.35640642766174
C            3.06479090735292       -0.36114183114570        0.30865753778324
O            2.74080206496689       -1.53770240157079        0.30314574614596
N            2.18455272273631        0.67466647865491        0.24704967608728
C            0.79474276020544        0.64864206697901        0.16940062992557
C            0.10685966456924        1.86096468278160        0.25434553881299
C           -1.27061733445413        1.89180362938312        0.18700452401283
C           -1.98770721729749        0.71545993598219        0.02945012685260
C           -1.30723362279576       -0.49248623826287       -0.06087547723279
C            0.07385254234484       -0.53214947060207        0.00850017274108
Cl          -2.18450831421721       -1.97320963078240       -0.26445405823390
Cl          -3.71821585591463        0.75562975063852       -0.05189720341810
H            4.91136602515645       -0.41750137416080       -1.70689036973956
H            6.04150115976396        0.74518332850270       -1.01193358533326
H            4.41610065954683        1.25983504306757       -1.47370736423302
H            4.61734341949140        0.94521250961151        1.02114827767556
H            5.10261797505288       -0.74004692293868        0.74834257859558
H            2.58137253183568        1.60556961878637        0.29278715677885
H            0.64970481431603        2.78406652176932        0.37746534846972
H           -1.80279448038658        2.82593030645257        0.25680592543759
H            0.58911473651712       -1.47594904919796       -0.05677572372718
22
 energy: -39.986423172584 gnorm: 0.000916241358 xtb: 6.7.1 (edcfbbe)
C            4.99440433261614        0.44871794593477       -1.05014435054284
C            4.50986983685719        0.08482462875890        0.35599609524454
C            3.06474217162400       -0.36256871791229        0.30953656039981
O            2.74019033397466       -1.53999186519575        0.30502414817077
N            2.18526827891520        0.67393985989577        0.24960797357066
C            0.79595492934140        0.64817001600529        0.17210999499414
C            0.10802458193153        1.86094062171015        0.25408575391520
C           -1.26931364389560        1.89270168501401        0.18428940196957
C           -1.98586846930753        0.71579826397251        0.02761728678988
C           -1.30589285768676       -0.49220738166621       -0.05949426439184
C            0.07505931097537       -0.53267878202688        0.01209516191565
Cl          -2.18401008404624       -1.97337523500575       -0.26198015159922
Cl          -3.71667926469595        0.75608291697137       -0.05819146187095
H            4.90547484929774       -0.41077669572380       -1.71052471158144
H            6.03771006357169        0.74836099033436       -1.01297031741322
H            4.41121690707121        1.26489827071813       -1.46829679041160