20
 energy: -19.991609064717 gnorm: 0.021626156320 xtb: 6.7.1 (edcfbbe)
C            2.09253141431106        0.97869007662731       -0.44798397697457
C            1.73885242282087       -0.39461248958404        0.11705965553178
C            0.33969172647262       -0.50196890218134        0.73241383281687
C           -0.82601567987896       -0.22466529367882       -0.24311319510644
C           -1.31533593156079        1.22395553991686       -0.15861901884418
C           -1.99439291166863       -1.17745670162659        0.01815608319989
H            1.44196435736666        1.25187298284655       -1.28494890920491
H            2.00192774425609        1.75806634107506        0.31754368026314
H            3.12362676494750        0.99244853672931       -0.81729959635687
H            1.82971383065408       -1.14565239837402       -0.67959217806485
H            2.47777992142634       -0.66758057022978        0.88146929481741
H            0.23156909413582       -1.51668986758807        1.13799226397403
H            0.26058649067215        0.18072566726262        1.59154617148499
H           -0.46380142032899       -0.40777414989226       -1.26552652587969
H           -2.08655469444428        1.42480211330072       -0.91100711372591
H           -0.50480076598960        1.94311735089908       -0.30640211931694
H           -1.75395040593667        1.41658503464342        0.82856554299165
H           -1.69312184758365       -2.22230308626628       -0.11369018433037
H           -2.36183002193058       -1.06132147779789        1.04547142534364
H           -2.83141635952963       -0.97755162625806       -0.66045728327510
20
 energy: -19.992348144055 gnorm: 0.007121480868 xtb: 6.7.1 (edcfbbe)
C            2.08848019598117        0.97610427617158       -0.44461189571156
C            1.73189513307408       -0.39600705325004        0.11003884804077
C            0.33655245041803       -0.49121776719218        0.73074613102852
C           -0.82169322533559       -0.22267043136881       -0.24884085767458
C           -1.31736351712204        1.21919949784510       -0.15285961117097
C           -1.98656131189649       -1.17347025457106        0.02230665891741
H            1.44263875821347        1.24212389466108       -1.27982141369208
H            1.99510807470398        1.74244940496534        0.32525471528213
H            3.11748739983063        0.98005961453450       -0.80384538556835
H            1.81811394194521       -1.13866351593037       -0.69007903918819
H            2.46445044604588       -0.66312392970971        0.87819866037892
H            0.22936446150038       -1.50356358497660        1.13190531689548
H            0.26401183878144        0.19734194573610        1.57887169619444
H           -0.46394636206529       -0.40608853482092       -1.26969124378027
H           -2.08384424813429        1.40959465668602       -0.90398328488135
H           -0.50874460148371        1.93001250404175       -0.30527005787914
H           -1.75257678279058        1.40612518257370        0.82997801755260
H           -1.68241469554797       -2.21089120417900       -0.11316422772078
H           -2.35002547145880       -1.05372589158638        1.04380812375582
H           -2.81390875644810       -0.97090172980633       -0.65736330143525
20
 energy: -19.992429735419 gnorm: 0.001554132918 xtb: 6.7.1 (edcfbbe)
C            2.08941860195187        0.97519185028709       -0.44299893813403
C            1.73124625054199       -0.39898801315293        0.10731349676741
C            0.33639799898376       -0.48808642123048        0.73003097754832
C           -0.82172695009654       -0.22045687841413       -0.24759240214411
C           -1.32054158114522        1.22020841858969       -0.15296502934616
C           -1.98450082262748       -1.17457832330243        0.02255508460043
H            1.44629838953053        1.24081530050849       -1.27740241154164
H            1.99257206864424        1.73444936462634        0.32985624873453
H            3.11796777760547        0.97795519001683       -0.79703006210615
H            1.80981685744862       -1.13695335977347       -0.69507246068134
H            2.46191002318421       -0.66983478645957        0.87396703775550
H            0.22799804087228       -1.49641760853477        1.13644308052645
H            0.26969879042670        0.20788299069867        1.56885388836616
H           -0.46571891636006       -0.40287258424532       -1.26744432704637
H           -2.08752489006473        1.40636184341803       -0.90169749558896
H           -0.51368568698993        1.92957970264789       -0.30643134759677
H           -1.75275328214980        1.40104401151208        0.82910641605567
H           -1.67693852489159       -2.20886538916410       -0.11279651939983
H           -2.34388261902107       -1.05196669852527        1.04203743339076
H           -2.80902779763183       -0.97178152967886       -0.65715482081630
20
 energy: -19.992458648966 gnorm: 0.001861218364 xtb: 6.7.1 (edcfbbe)
C            2.09305301985744        0.97389223262258       -0.44087777475220
C            1.73020766278427       -0.40319740574431        0.10315076180320
C            0.33612621682963       -0.48287895638626        0.73082221571676
C           -0.82129923081657       -0.21917618030836       -0.24856847710710
C           -1.32473430665631        1.22083887598510       -0.15228442267803
C           -1.98284107759135       -1.17655238299342        0.02243135432397
H            1.45264587761475        1.24251604125858       -1.27586366038263
H            1.99290430306654        1.72842783041833        0.33552389369885
H            3.12267487639565        0.97694447176503       -0.79055589932205
H            1.80067069747221       -1.13723552655396       -0.70272643371987
H            2.46104257720022       -0.68168526505789        0.86612343681184
H            0.22462425775899       -1.48676044645624        1.14604800929042
H            0.27524380169302        0.22133768705623        1.56244899126997
H           -0.46520135371362       -0.39987927762933       -1.26850519577242
H           -2.09351546788284        1.40359474879524       -0.89954343197760
H           -0.51999411191346        1.93180037256339       -0.30799462125059
H           -1.75515256601982        1.39938122320766        0.83053197448304
H           -1.67104616812174       -2.20924615990624       -0.11234421023384
H           -2.34136164179756       -1.05339602593479        1.04161861838134
H           -2.80702363794804       -0.97603877687761       -0.65785727923949
20
 energy: -19.992486066317 gnorm: 0.001626404680 xtb: 6.7.1 (edcfbbe)
C            2.09924266258966        0.97093015484754       -0.43751487152837
C            1.72873432890558       -0.40838828831465        0.09770130574222
C            0.33663655594194       -0.47557833336608        0.73199395102434
C           -0.82243803065314       -0.21681651814765       -0.24739230957932
C           -1.33155247936729        1.22193506807358       -0.15184369867026
C           -1.98036392808693       -1.18021065522964        0.02145327096572
H            1.46258280151895        1.24650177356652       -1.27383526960897
H            1.99651586284014        1.72107964888449        0.34335968758221
H            3.13081349557630        0.97426683121985       -0.78239130966760
H            1.78682134515938       -1.13688061381153       -0.71445649456083
H            2.46218755067881       -0.69983002466011        0.85360358047564
H            0.22088482753182       -1.47314489359651        1.16189396642906
H            0.28343916037424        0.24025614237583        1.55474936981958
H           -0.46498716261781       -0.39464854094896       -1.26747194494024
H           -2.10370188799112        1.40120150229053       -0.89715382837681
H           -0.52934061448346        1.93591535848806       -0.31143784578728
H           -1.75939080568902        1.40052364307406        0.83262593449312
H           -1.66281061654965       -2.21176112867589       -0.11228235059085
H           -2.34138414810690       -1.05832341553572        1.04041765682790
H           -2.80486518936008       -0.98434063070999       -0.66044095070568
20
 energy: -19.992496524247 gnorm: 0.000664294327 xtb: 6.7.1 (edcfbbe)
C            2.10361663972534        0.96862432242433       -0.43558590316937
C            1.72625160420949       -0.41019046336184        0.09442075725612
C            0.33654571719215       -0.47023946304749        0.73302080978996
C           -0.82344006126471       -0.21510033626202       -0.24659876214873
C           -1.33612320103597        1.22181843317354       -0.15089398286369
C           -1.97768456281439       -1.18223243784106        0.02081648305580
H            1.46933117346109        1.25044151334976       -1.27182895857642
H            2.00304496324739        1.71722884102145        0.34717017767413
H            3.13565709657281        0.96949560187236       -0.77918823800087
H            1.77686882441300       -1.13582095440216       -0.72097420897286
H            2.46066840759542       -0.71029726405979        0.84613263781420
H            0.21857598275147       -1.46420103317238        1.17052277994739
H            0.28731736606206        0.25119144752132        1.55124894564380
H           -0.46493591964366       -0.39095254141053       -1.26682657182967
H           -2.11027539543499        1.39871170178751       -0.89474199530992
H           -0.53579821252393        1.93746860734970       -0.31347310786316
H           -1.76243815354869        1.40183222723749        0.83414083105302
H           -1.65622941998898       -2.21277524356420       -0.11199382943857
H           -2.34214726144787       -1.06217835886121        1.03900948470714
H           -2.80178185931562       -0.99013751993105       -0.66279949942470
20
 energy: -19.992500608202 gnorm: 0.000242506686 xtb: 6.7.1 (edcfbbe)
C            2.10633316898135        0.96726977669971       -0.43491280215519
C            1.72538907903233       -0.41054700652209        0.09363433241122
C            0.33643705737415       -0.46750875646633        0.73325796913883
C           -0.82460243661460       -0.21377276900235       -0.24577242356013
C           -1.33907858878905        1.22211295864505       -0.15042883341531
C           -1.97646583605053       -1.18341152572809        0.02014547408052
H            1.47181361155846        1.25300395149963       -1.26971415385236
H            2.01002689947857        1.71545708896383        0.34893414221152
H            3.13781684387878        0.96469451890325       -0.78029587372297
H            1.77277548770237       -1.13516388766786       -0.72286712211909
H            2.45999722324811       -0.71405313726784        0.84380994149068
H            0.21787441214900       -1.46017156823905        1.17327770720685
H            0.28817201360088        0.25586962159971        1.54971462240879
H           -0.46533637350843       -0.38849503821395       -1.26594082635509
H           -2.11453644329490        1.39770223940727       -0.89328396370509
H           -0.53981054587531        1.93867945731153       -0.31443123792590
H           -1.76432818842241        1.40222332414141        0.83507376330674
H           -1.65232789684916       -2.21330458180661       -0.11158589382687
H           -2.34294561009385       -1.06394699987299        1.03772194937945
H           -2.80018014929437       -0.99395058656051       -0.66475892165303
20
 energy: -19.992503428766 gnorm: 0.000463655411 xtb: 6.7.1 (edcfbbe)
C            2.10859698426825        0.96632700100213       -0.43487216205651
C            1.72461499974967       -0.41049800993876        0.09355157342256
C            0.33597378167863       -0.46574623114817        0.73367151861718
C           -0.82511244111401       -0.21283649775374       -0.24580177039666
C           -1.34135377449355        1.22222312209596       -0.14981490314586
C           -1.97542450183936       -1.18419614756201        0.01937670225124
H            1.47218450910451        1.25553209190062       -1.26705923576479
H            2.01804577897133        1.71433884344196        0.34994131172784
H            3.13884992644145        0.96033764960674       -0.78407137439399
H            1.77050982089377       -1.13517935075257       -0.72300462186092
H            2.45883691490058       -0.71551697520984        0.84349273750640
H            0.21694097550961       -1.45776724387488        1.17510332466687
H            0.28817208648081        0.25882612353828        1.54916489573075
H           -0.46528876142137       -0.38656086955498       -1.26601995861801
H           -2.11782237069127        1.39695673836478       -0.89183594346988
H           -0.54311021150367        1.93977151153209       -0.31468777788016
H           -1.76590566196350        1.40213886875115        0.83607586380902
H           -1.64926033795002       -2.21361562987783       -0.11116465892035
H           -2.34382025426356       -1.06489443447701        1.03634119682053
H           -2.79860373454690       -0.99695348026021       -0.66680886870167
20
 energy: -19.992506344564 gnorm: 0.000419096405 xtb: 6.7.1 (edcfbbe)
C            2.11112665820831        0.96490929657457       -0.43482383824316
C            1.72431420722471       -0.41101998365923        0.09376222926735
C            0.33558074278809       -0.46277738970456        0.73414562424389
C           -0.82562050059636       -0.21152397756770       -0.24572665306932
C           -1.34444211425725        1.22250840956020       -0.14886867179228
C           -1.97424444027069       -1.18534509027243        0.01786572426080
H            1.47085995156428        1.25853193408575       -1.26247716926265
H            2.02924279506902        1.71213148758142        0.35172817558443
H            3.13911408325957        0.95430052046782       -0.79055910106493
H            1.76828680378693       -1.13590757800048       -0.72274827027848
H            2.45807268838396       -0.71748384764856        0.84360012212360
H            0.21565082320721       -1.45365506012786        1.17785992424903
H            0.28865124473450        0.26368070905647        1.54801607596155
H           -0.46497725848516       -0.38364674624442       -1.26589336434513
H           -2.12211613193212        1.39578210089240       -0.88993120231876
H           -0.54769730737884        1.94153804066436       -0.31464024263397
H           -1.76816656144364        1.40148574351083        0.83750228358589
H           -1.64519730761259       -2.21403765874149       -0.11093623264813
H           -2.34497064667846       -1.06588307275554        1.03391620937335
H           -2.79644400136007       -1.00090075784783       -0.67021377364951
20
 energy: -19.992508108274 gnorm: 0.000246158550 xtb: 6.7.1 (edcfbbe)
C            2.11408599462709        0.96290287274689       -0.43501362615455
C            1.72363475916273       -0.41198935702588        0.09396740721909
C            0.33503326365201       -0.45960133720762        0.73519266549569
C           -0.82572475925514       -0.20964455513827       -0.24551276337852
C           -1.34838613225680        1.22309740015941       -0.14774835989886
C           -1.97226656321878       -1.18676427799305        0.01588449938653
H            1.46884162383214        1.26136850785327       -1.25700504637353
H            2.04183294204016        1.70867883475904        0.35379068963176
H            3.13930332243237        0.94768547176760       -0.79859572613572
H            1.76498405510311       -1.13709382501544       -0.72240750144487
H            2.45703046719543       -0.72027022252443        0.84335671999087
H            0.21355803011072       -1.44844131710202        1.18312550953183
H            0.28998188117094        0.27040303405362        1.54595917098662
H           -0.46390390721828       -0.37966645244255       -1.26556618690613
H           -2.12726744446853        1.39462930055464       -0.88794920003353
H           -0.55352917107370        1.94415426015584       -0.31396008168000
H           -1.77149776405466        1.40037355964164        0.83913886301585
H           -1.63974722956624       -2.21452231612539       -0.11134140815036
H           -2.34589765080092       -1.06747040526750        1.03084295065628
H           -2.79304198920224       -1.00514209602608       -0.67458072641485
20
 energy: -19.992507237017 gnorm: 0.000531971216 xtb: 6.7.1 (edcfbbe)
C            2.11701429342200        0.96092955665730       -0.43519940343493
C            1.72296103227558       -0.41293803354394        0.09416887268037
C            0.33448821870415       -0.45648867330760        0.73621961427482
C           -0.82582902160860       -0.20778878766474       -0.24530439912726
C           -1.35227957813269        1.22368167155595       -0.14665258386316
C           -1.97031518757269       -1.18816203761811        0.01394003166207
H            1.46685522214765        1.26417655313892       -1.25160145464767
H            2.05426256969623        1.70527286978606        0.35583387880050
H            3.13949988344478        0.94116510522101       -0.80652550759796
H            1.76173170236260       -1.13825254847090       -0.72207376167213
H            2.45599547451118       -0.72301039558401        0.84311895237553
H            0.21149259142117       -1.44332475661158        1.18830677842740
H            0.29128419267566        0.27700953949512        1.54392801536873
H           -0.46285221680808       -0.37574450890390       -1.26524640160123
H           -2.13236136983409        1.39349736710113       -0.88599370223323
H           -0.55928378413820        1.94673433778495       -0.31330634293928
H           -1.77477262317144        1.39927911798500        0.84074936750855
H           -1.63437322067857       -2.21500024771819       -0.11172381001187
H           -2.34681004848726       -1.06902233402158        1.02782016419454
H           -2.78968440201800       -1.00932671545719       -0.67888045882022
20
 energy: -19.992508550040 gnorm: 0.000098738413 xtb: 6.7.1 (edcfbbe)
C            2.11498656796132        0.96176434067365       -0.43519405057385
C            1.72349332776374       -0.41278799654524        0.09412705263631
C            0.33498340724134       -0.45745806604655        0.73588906457851
C           -0.82563028039401       -0.20885458285972       -0.24539924511518
C           -1.35000439307694        1.22328143607614       -0.14691055188357
C           -1.97133407580928       -1.18744900192430        0.01466691073513
H            1.46792991136870        1.26204170013815       -1.25503759492410
H            2.04651109146690        1.70714642048336        0.35419108131754
H            3.13900564265039        0.94482711932100       -0.80180896980485
H            1.76332351177588       -1.13815470205332       -0.72210922204898
H            2.45685033510478       -0.72192061400353        0.84320455953121
H            0.21256209540138       -1.44511900530097        1.18595419045131
H            0.29100949773299        0.27425776608617        1.54514198635470
H           -0.46312894323185       -0.37773459768963       -1.26542039203526
H           -2.12890232906377        1.39403619601458       -0.88725103105276
H           -0.55601991531662        1.94543882138780       -0.31277844269580
H           -1.77359508059492        1.39974270091005        0.83993545780415
H           -1.63725119085424       -2.21471441801051       -0.11233028575120
H           -2.34608827237601       -1.06880039847992        1.02928695739163
H           -2.79167717953840       -1.00685603835348       -0.67657962557140
20
 energy: -19.992508764523 gnorm: 0.000060974854 xtb: 6.7.1 (edcfbbe)
C            2.11458823270173        0.96165772171063       -0.43550660421720
C            1.72349079690306       -0.41282194053979        0.09425678022592
C            0.33503520951677       -0.45756261452984        0.73607703928450
C           -0.82550159356329       -0.20880241436299       -0.24524179847376
C           -1.34980956405004        1.22333258195132       -0.14680144188196
C           -1.97121633207628       -1.18739585021441        0.01459312400542
H            1.46803344085390        1.26093585536923       -1.25608792780695
H            2.04481690452287        1.70738297488535        0.35342513985567
H            3.13894564988468        0.94522712465041       -0.80116582407655
H            1.76347604045242       -1.13840926819826       -0.72175571192389
H            2.45697653673130       -0.72152122322749        0.84336471522987
H            0.21252107661466       -1.44515832198598        1.18622930274087
H            0.29105380618987        0.27423659068935        1.54522324765458
H           -0.46287191481918       -0.37761139694187       -1.26521418521027
H           -2.12810332072317        1.39443949197979       -0.88769266531520
H           -0.55557721687894        1.94539108843318       -0.31181105068592
H           -1.77411043819273        1.39952175847254        0.83977849437185
H           -1.63735423512017       -2.21463362384031       -0.11317025717264
H           -2.34566745759852       -1.06932226572508        1.02938704722284
H           -2.79170189313757       -1.00619918875207       -0.67630957448364
20
 energy: -19.992509011790 gnorm: 0.000045550589 xtb: 6.7.1 (edcfbbe)
C            2.11406995287146        0.96136300663758       -0.43612991205823
C            1.72349100910365       -0.41291156031310        0.09463852064374
C            0.33507635124632       -0.45752798407738        0.73643429938128
C           -0.82530704303113       -0.20865494470412       -0.24505968605637
C           -1.34967161792866        1.22344668640395       -0.14649206849317
C           -1.97096377575298       -1.18740363913247        0.01429144904576
H            1.46804322536343        1.25933691681072       -1.25765406414728
H            2.04286722970996        1.70780010399592        0.35205119771866
H            3.13883727225948        0.94547663158724       -0.80072323171224
H            1.76360856198049       -1.13906013393047       -0.72087070472028
H            2.45710848621428       -0.72091421790113        0.84391254035954
H            0.21238628870929       -1.44496004246835        1.18686616557259
H            0.29124940793886        0.27451170751575        1.54534979412038
H           -0.46243952603547       -0.37723832064785       -1.26498137807736
H           -2.12677021304079        1.39515837457483       -0.88851351256415
H           -0.55508122203275        1.94553300732379       -0.30976353982655
H           -1.77552546171245        1.39901347550444        0.83953956268932
H           -1.63728729061362       -2.21454604688869       -0.11479389283225
H           -2.34484805952112       -1.07043320456410        1.02943142429171
H           -2.79181984751687       -1.00530273590286       -0.67595511399157
20
 energy: -19.992509181736 gnorm: 0.000041091846 xtb: 6.7.1 (edcfbbe)
C            2.11399181047459        0.96093425807151       -0.43661616991136
C            1.72347332526688       -0.41305330146715        0.09494898665148
C            0.33504681897472       -0.45711569673889        0.73678714465852
C           -0.82518851551784       -0.20838248133845       -0.24492084335930
C           -1.34995414158147        1.22356014126179       -0.14615437697501
C           -1.97062279245881       -1.18753755458460        0.01389960611893
H            1.46777003782467        1.25845705736049       -1.25813851152962
H            2.04293446459143        1.70780595690797        0.35117405984960
H            3.13867237854615        0.94490330574087       -0.80142213629775
H            1.76366399811945       -1.13971052187151       -0.72011616874554
H            2.45710533142726       -0.72051797245132        0.84442213275876
H            0.21207538182486       -1.44430370699635        1.18765132516811
H            0.29132021159369        0.27529442085853        1.54536272283519
H           -0.46203073591386       -0.37658191318086       -1.26479910125760
H           -2.12617826602592        1.39561386383452       -0.88902739236179
H           -0.55525667598201        1.94586183521779       -0.30802517464058
H           -1.77701522625750        1.39845677961121        0.83947760500857
H           -1.63679261865637       -2.21451240894305       -0.11610128572561
H           -2.34434335378958       -1.07146697164802        1.02921185324765
H           -2.79164770424895       -1.00501800982076       -0.67603642614908
20
 energy: -19.992509322319 gnorm: 0.000028359104 xtb: 6.7.1 (edcfbbe)
C            2.11405124970071        0.96056468773493       -0.43710146213791
C            1.72346118989354       -0.41305174026528        0.09535783934659
C            0.33496303737230       -0.45670789339958        0.73706133319357
C           -0.82512908600247       -0.20812455819730       -0.24487004785455
C           -1.35029632031214        1.22366389626631       -0.14577667124959
C           -1.97032201362510       -1.18769778019489        0.01346931986257
H            1.46750771836171        1.25785724112919       -1.25845320311285
H            2.04358060519168        1.70783840758767        0.35034739555754
H            3.13855147238936        0.94404957280109       -0.80239298168890
H            1.76361469917460       -1.14020660827363       -0.71925944247002
H            2.45701508525655       -0.72013848706932        0.84507435917954
H            0.21182840589496       -1.44372785703299        1.18826893778879
H            0.29130142308173        0.27600261046715        1.54537609639809
H           -0.46172261964772       -0.37596303397248       -1.26471821326727
H           -2.12582390552844        1.39598885654404       -0.88930096819743
H           -0.55557026003645        1.94619538286537       -0.30648010969066
H           -1.77835346095129        1.39792883575751        0.83953079265703
H           -1.63621702367289       -2.21450457674525       -0.11715378223416
H           -2.34395795417680       -1.07229444837271        1.02888235347198
H           -2.79145851415243       -1.00498542780615       -0.67628369620879
20
 energy: -19.992509410869 gnorm: 0.000027892176 xtb: 6.7.1 (edcfbbe)
C            2.11414202231430        0.96028233856406       -0.43741291290459
C            1.72341929475651       -0.41309055651482        0.09558126531819
C            0.33489950173780       -0.45637369343014        0.73730199675609
C           -0.82509585128014       -0.20789962195978       -0.24477460068407
C           -1.35058746467703        1.22375610463811       -0.14550747504972
C           -1.97008791927868       -1.18782422110874        0.01313478812131
H            1.46731646486754        1.25750961802877       -1.25857029562431
H            2.04425928049754        1.70785006144964        0.34981515430653
H            3.13846633764906        0.94333994463000       -0.80317677608290
H            1.76356343739930       -1.14060730652871       -0.71871644644797
H            2.45692328866799       -0.71987499028422        0.84546145362933
H            0.21165217724061       -1.44327974371698        1.18873241675870
H            0.29124263463613        0.27652928629160        1.54544972630976
H           -0.46148244514426       -0.37543714287857       -1.26459768749821
H           -2.12581235721039        1.39619187352428       -0.88932677874478
H           -0.55589730607715        1.94647297948564       -0.30559271988218
H           -1.77912285275414        1.39758961778710        0.83966769990524
H           -1.63570297875016       -2.21450839625856       -0.11773293525692
H           -2.34389399211906       -1.07279912338975        1.02852685131594
H           -2.79117754426438       -1.00513994850522       -0.67668487490189
