
                                 *****************
                                 * O   R   C   A *
                                 *****************

                                            #,                                       
                                            ###                                      
                                            ####                                     
                                            #####                                    
                                            ######                                   
                                           ########,                                 
                                     ,,################,,,,,                         
                               ,,#################################,,                 
                          ,,##########################################,,             
                       ,#########################################, ''#####,          
                    ,#############################################,,   '####,        
                  ,##################################################,,,,####,       
                ,###########''''           ''''###############################       
              ,#####''   ,,,,##########,,,,          '''####'''          '####       
            ,##' ,,,,###########################,,,                        '##       
           ' ,,###''''                  '''############,,,                           
         ,,##''                                '''############,,,,        ,,,,,,###''
      ,#''                                            '''#######################'''  
     '                                                          ''''####''''         
             ,#######,   #######,   ,#######,      ##                                
            ,#'     '#,  ##    ##  ,#'     '#,    #''#        ,####,   ,####,        
            ##       ##  ##   ,#'  ##            #'  '#       #'       #'  '#        
            ##       ##  #######   ##           ,######,      #####,   #    #        
            '#,     ,#'  ##    ##  '#,     ,#' ,#      #,     #,   #   #,  ,#        
             '#######'   ##     ##  '#######'  #'      '#     '####' # '####'        



                #########################################################
                #                        -***-                          #
                #          Department of theory and spectroscopy        #
                #                                                       #
                #                      Frank Neese                      #
                #                                                       #
                #     Directorship, Architecture, Infrastructure        #
                #                    SHARK, DRIVERS                     #
                #        Core code/Algorithms in most modules           #
                #                                                       #
                #        Max Planck Institute fuer Kohlenforschung      #
                #                Kaiser Wilhelm Platz 1                 #
                #                 D-45470 Muelheim/Ruhr                 #
                #                      Germany                          #
                #                                                       #
                #                  All rights reserved                  #
                #                        -***-                          #
                #########################################################


                         Program Version 6.0.0  -   RELEASE  -


 With contributions from (in alphabetic order):
   Daniel Aravena         : Magnetic Suceptibility
   Michael Atanasov       : Ab Initio Ligand Field Theory (pilot matlab implementation)
   Alexander A. Auer      : GIAO ZORA, VPT2 properties, NMR spectrum
   Ute Becker             : All parallelization in ORCA, NUMFREQ, NUMCALC
   Giovanni Bistoni       : ED, misc. LED, open-shell LED, HFLD
   Martin Brehm           : Molecular dynamics
   Dmytro Bykov           : pre 5.0 version of the SCF Hessian
   Marcos Casanova-Páez   : Triplet and SCS-CIS(D). UHF-(DLPNO)-IP/EA/STEOM-CCSD. UHF-CVS-IP/STEOM-CCSD
   Vijay G. Chilkuri      : MRCI spin determinant printing, contributions to CSF-ICE
   Pauline Colinet        : FMM embedding
   Dipayan Datta          : RHF DLPNO-CCSD density
   Achintya Kumar Dutta   : EOM-CC, STEOM-CC
   Nicolas Foglia         : Exact transition moments, OPA infrastructure, MCD improvements
   Dmitry Ganyushin       : Spin-Orbit,Spin-Spin,Magnetic field MRCI
   Miquel Garcia          : C-PCM and meta-GGA Hessian, CCSD/C-PCM, Gaussian charge scheme
   Tiago L. C. Gouveia    : GS-ROHF, GS-ROCIS
   Yang Guo               : DLPNO-NEVPT2, F12-NEVPT2, CIM, IAO-localization
   Andreas Hansen         : Spin unrestricted coupled pair/coupled cluster methods
   Ingolf Harden          : AUTO-CI MPn and infrastructure 
   Benjamin Helmich-Paris : MC-RPA, TRAH-(SCF,CASSCF), AVAS, COSX integrals, SCF dyn. polar.
   Lee Huntington         : MR-EOM, pCC
   Robert Izsak           : Overlap fitted RIJCOSX, COSX-SCS-MP3, EOM
   Riya Kayal             : Wick's Theorem for AUTO-CI, AUTO-CI UHF-CCSDT
   Emily Kempfer          : AUTO-CI, RHF CISDT and CCSDT
   Christian Kollmar      : KDIIS, OOCD, Brueckner-CCSD(T), CCSD density, CASPT2, CASPT2-K, improved NEVPT2
   Axel Koslowski         : Symmetry handling
   Simone Kossmann        : Meta GGA functionals, TD-DFT gradient, OOMP2, (MP2 Hessian; deprecated post 5.0)
   Lucas Lang             : DCDCAS
   Marvin Lechner         : AUTO-CI (C++ implementation), FIC-MRCC
   Spencer Leger          : CASSCF response
   Dagmar Lenk            : GEPOL surface, SMD, ORCA-2-JSON
   Dimitrios Liakos       : Extrapolation schemes; Compound Job, initial MDCI parallelization
   Dimitrios Manganas     : Further ROCIS development; embedding schemes. LFT, Crystal Embedding
   Dimitrios Pantazis     : SARC Basis sets
   Anastasios Papadopoulos: AUTO-CI, single reference methods and gradients
   Taras Petrenko         : pre 6.0 DFT Hessian and TD-DFT gradient, (ASA, deprecated), ECA, 1-Electron XAS/XES, NRVS
   Peter Pinski           : DLPNO-MP2, DLPNO-MP2 Gradient
   Christoph Reimann      : Effective Core Potentials
   Marius Retegan         : Local ZFS, SOC
   Christoph Riplinger    : Optimizer, TS searches, QM/MM, DLPNO-CCSD(T), (RO)-DLPNO pert. Triples
   Michael Roemelt        : Original ROCIS implementation
   Masaaki Saitow         : Open-shell DLPNO-CCSD energy and density
   Barbara Sandhoefer     : DKH picture change effects
   Kantharuban Sivalingam : CASSCF convergence/infrastructure, NEVPT2 and variants, FIC-MRCI
   Bernardo de Souza      : ESD, SOC TD-DFT
   Georgi Stoychev        : AutoAux, RI-MP2 NMR, DLPNO-MP2 response, X2C
   Van Anh Tran           : RI-MP2 g-tensors
   Willem Van den Heuvel  : Paramagnetic NMR
   Zikuan Wang            : NOTCH, Electric field optimization 
   Frank Wennmohs         : Technical directorship and infrastructure
   Hang Xu                : AUTO-CI-Response properties 


 We gratefully acknowledge several colleagues who have allowed us to
 interface, adapt or use parts of their codes:
   Stefan Grimme, W. Hujo, H. Kruse, P. Pracht,  : VdW corrections, initial TS optimization,
                  C. Bannwarth, S. Ehlert,         DFT functionals, gCP, sTDA/sTD-DF
                  L. Wittmann, M. Mueller
   Ed Valeev, F. Pavosevic, A. Kumar             : LibInt (2-el integral package), F12 methods
   Garnet Chan, S. Sharma, J. Yang, R. Olivares  : DMRG
   Ulf Ekstrom                                   : XCFun DFT Library
   Mihaly Kallay                                 : mrcc  (arbitrary order and MRCC methods)
   Frank Weinhold                                : gennbo (NPA and NBO analysis)
   Simon Mueller                                 : openCOSMO-RS
   Christopher J. Cramer and Donald G. Truhlar   : smd solvation model
   Lars Goerigk                                  : TD-DFT with DH, B97 family of functionals
   V. Asgeirsson, H. Jonsson                     : NEB implementation
   FAccTs GmbH                                   : IRC, NEB, NEB-TS, DLPNO-Multilevel, CI-OPT
                                                   MM, QMMM, 2- and 3-layer-ONIOM, Crystal-QMMM,
                                                   LR-CPCM, SF, NACMEs, symmetry and pop. for TD-DFT,
                                                   nearIR, NL-DFT gradient (VV10), updates on ESD,
                                                   ML-optimized integration grids, MBIS, APM,
                                                   GOAT, DOCKER, SOLVATOR, interface openCOSMO-RS
   S Lehtola, MJT Oliveira, MAL Marques          : LibXC Library
   Liviu Ungur et al                             : ANISO software


 Your calculation uses the libint2 library for the computation of 2-el integrals
 For citations please refer to: http://libint.valeyev.net

 Your ORCA version has been built with support for libXC version: 6.2.2
 For citations please refer to: https://libxc.gitlab.io

 This ORCA versions uses:
   CBLAS   interface :  Fast vector & matrix operations
   LAPACKE interface :  Fast linear algebra routines
   SCALAPACK package :  Parallel linear algebra routines
   Shared memory     :  Shared parallel matrices
   BLAS/LAPACK       :  OpenBLAS 0.3.27  USE64BITINT DYNAMIC_ARCH NO_AFFINITY SkylakeX SINGLE_THREADED
        Core in use  :  SkylakeX
   Copyright (c) 2011-2014, The OpenBLAS Project


Your calculation utilizes the geometrical counterpoise correction gCP
Please cite in your paper:
H.Kruse, S. Grimme J.Chem.Phys., 136, (2012), 154101 
   

Your calculation utilizes the atom-pairwise dispersion correction
based on EEQ partial charges (D4)


Your calculation utilizes the SMD solvation module
Please cite in your paper:
A.V. Marenich, C.J. Cramer, D.G. Truhlar J. Phys. Chem. B, 113, (2009), 6378 

================================================================================

----- Orbital basis set information -----
Your calculation utilizes the basis: def2-mTZVPP
   Stefan Grimme, Andreas Hansen, Sebastian Ehlert, and Jan-Michael Mewes 
   J. Chem. Phys. 154, 064103 (2021). DOI: 10.1063/5.0040021

----- AuxJ basis set information -----
Your calculation utilizes the auxiliary basis: def2/J
   F. Weigend, Phys. Chem. Chem. Phys. 8, 1057 (2006).

================================================================================
                                        WARNINGS
                       Please study these warnings very carefully!
================================================================================

Using LibXC functional ID 497 : Re-regularized SCAN exchange by Furness et al
[ 1]  J. W. Furness, A. D. Kaplan, J. Ning, J. P. Perdew, and J. Sun.,  J. Phys. Chem. Lett. 11, 8208-8215 (2020)
[ 2]  J. W. Furness, A. D. Kaplan, J. Ning, J. P. Perdew, and J. Sun.,  J. Phys. Chem. Lett. 11, 9248-9248 (2020)
Using LibXC functional ID 498 : Re-regularized SCAN correlation by Furness et al
[ 1]  J. W. Furness, A. D. Kaplan, J. Ning, J. P. Perdew, and J. Sun.,  J. Phys. Chem. Lett. 11, 8208-8215 (2020)
[ 2]  J. W. Furness, A. D. Kaplan, J. Ning, J. P. Perdew, and J. Sun.,  J. Phys. Chem. Lett. 11, 9248-9248 (2020)
Using LibXC functional ID 497 : Re-regularized SCAN exchange by Furness et al
[ 1]  J. W. Furness, A. D. Kaplan, J. Ning, J. P. Perdew, and J. Sun.,  J. Phys. Chem. Lett. 11, 8208-8215 (2020)
[ 2]  J. W. Furness, A. D. Kaplan, J. Ning, J. P. Perdew, and J. Sun.,  J. Phys. Chem. Lett. 11, 9248-9248 (2020)
Using LibXC functional ID 498 : Re-regularized SCAN correlation by Furness et al
[ 1]  J. W. Furness, A. D. Kaplan, J. Ning, J. P. Perdew, and J. Sun.,  J. Phys. Chem. Lett. 11, 8208-8215 (2020)
[ 2]  J. W. Furness, A. D. Kaplan, J. Ning, J. P. Perdew, and J. Sun.,  J. Phys. Chem. Lett. 11, 9248-9248 (2020)

================================================================================
                                       INPUT FILE
================================================================================
NAME = sp_solv.inp
|  1> ! r2scan-3c def2/J RI DEFGRID2 scfconv6 printgap
|  2> %output
|  3>     printlevel normal
|  4> end
|  5> %cpcm
|  6>     smd true
|  7>     smdsolvent "water"
|  8> end
|  9> * xyz 0 1
| 10> C -2.6402760843 -0.580417426 -0.1427170429
| 11> C -1.2564771922 -0.2880762528 0.42467146
| 12> C -0.5402179775 0.8043309058 -0.3655997713
| 13> C 0.8634065657 1.0856387464 0.1834645431
| 14> C 1.7402217119 -0.0570379495 0.0257056192
| 15> C 2.4514256403 -1.0087349155 -0.1202240314
| 16> H -3.2596529739 0.3136502666 -0.1177185891
| 17> H -3.134167589 -1.3571738282 0.4357663887
| 18> H -2.565102249 -0.9160396468 -1.1746985135
| 19> H -1.350564031 0.0231156622 1.4680088178
| 20> H -0.6514964931 -1.1975750142 0.4034444018
| 21> H -0.4629492715 0.5012220152 -1.4123401283
| 22> H -1.125715468 1.7255034772 -0.3238904829
| 23> H 0.8004611173 1.3377943902 1.2456098649
| 24> H 1.3026451175 1.9355652075 -0.3455508038
| 25> H 3.0813989594 -1.8382157626 -0.2417956093
| 26> *
| 27> 
| 28>                          ****END OF INPUT****
================================================================================

                       ****************************
                       * Single Point Calculation *
                       ****************************

---------------------------------
CARTESIAN COORDINATES (ANGSTROEM)
---------------------------------
  C     -2.640276   -0.580417   -0.142717
  C     -1.256477   -0.288076    0.424671
  C     -0.540218    0.804331   -0.365600
  C      0.863407    1.085639    0.183465
  C      1.740222   -0.057038    0.025706
  C      2.451426   -1.008735   -0.120224
  H     -3.259653    0.313650   -0.117719
  H     -3.134168   -1.357174    0.435766
  H     -2.565102   -0.916040   -1.174699
  H     -1.350564    0.023116    1.468009
  H     -0.651496   -1.197575    0.403444
  H     -0.462949    0.501222   -1.412340
  H     -1.125715    1.725503   -0.323890
  H      0.800461    1.337794    1.245610
  H      1.302645    1.935565   -0.345551
  H      3.081399   -1.838216   -0.241796

----------------------------
CARTESIAN COORDINATES (A.U.)
----------------------------
  NO LB      ZA    FRAG     MASS         X           Y           Z
   0 C     6.0000    0    12.011   -4.989399   -1.096830   -0.269696
   1 C     6.0000    0    12.011   -2.374398   -0.544385    0.802513
   2 C     6.0000    0    12.011   -1.020864    1.519965   -0.690883
   3 C     6.0000    0    12.011    1.631602    2.051560    0.346698
   4 C     6.0000    0    12.011    3.288542   -0.107786    0.048577
   5 C     6.0000    0    12.011    4.632523   -1.906233   -0.227190
   6 H     1.0000    0     1.008   -6.159851    0.592713   -0.222456
   7 H     1.0000    0     1.008   -5.922718   -2.564687    0.823479
   8 H     1.0000    0     1.008   -4.847341   -1.731064   -2.219858
   9 H     1.0000    0     1.008   -2.552196    0.043682    2.774135
  10 H     1.0000    0     1.008   -1.231150   -2.263089    0.762399
  11 H     1.0000    0     1.008   -0.874847    0.947172   -2.668936
  12 H     1.0000    0     1.008   -2.127294    3.260729   -0.612064
  13 H     1.0000    0     1.008    1.512652    2.528065    2.353862
  14 H     1.0000    0     1.008    2.461643    3.657688   -0.652996
  15 H     1.0000    0     1.008    5.823000   -3.473724   -0.456927

--------------------------------
INTERNAL COORDINATES (ANGSTROEM)
--------------------------------
 C      0   0   0     0.000000000000     0.00000000     0.00000000
 C      1   0   0     1.523906968469     0.00000000     0.00000000
 C      2   1   0     1.526731568359   111.74962114     0.00000000
 C      3   2   1     1.533221308489   112.04927876   181.06879394
 C      4   3   2     1.448931575344   111.73473015    65.06034583
 C      5   4   3     1.197010278063   178.95590866    20.53185610
 H      1   2   3     1.087938276289   110.53401201   300.31284330
 H      1   2   3     1.087162548752   110.57751342   180.22037849
 H      1   2   3     1.087786346793   110.46648152    60.21260947
 H      2   1   3     1.092815438845   109.38505800   121.19575861
 H      2   1   3     1.092538434688   109.62708360   239.02358530
 H      3   2   1     1.092479211454   109.30591461   302.28776800
 H      3   2   1     1.092293862667   109.40148823    60.31662495
 H      4   3   2     1.093479438671   109.72221600   304.28490200
 H      4   3   2     1.093234984768   109.70450893   185.43136697
 H      6   5   4     1.048658432015   179.43923923   171.95168550

---------------------------
INTERNAL COORDINATES (A.U.)
---------------------------
 C      0   0   0     0.000000000000     0.00000000     0.00000000
 C      1   0   0     2.879766823980     0.00000000     0.00000000
 C      2   1   0     2.885104544210   111.74962114     0.00000000
 C      3   2   1     2.897368375736   112.04927876   181.06879394
 C      4   3   2     2.738083864191   111.73473015    65.06034583
 C      5   4   3     2.262021605029   178.95590866    20.53185610
 H      1   2   3     2.055905392796   110.53401201   300.31284330
 H      1   2   3     2.054439480197   110.57751342   180.22037849
 H      1   2   3     2.055618287658   110.46648152    60.21260947
 H      2   1   3     2.065121894338   109.38505800   121.19575861
 H      2   1   3     2.064598432344   109.62708360   239.02358530
 H      3   2   1     2.064486516651   109.30591461   302.28776800
 H      3   2   1     2.064136258204   109.40148823    60.31662495
 H      4   3   2     2.066376672162   109.72221600   304.28490200
 H      4   3   2     2.065914721233   109.70450893   185.43136697
 H      6   5   4     1.981677244536   179.43923923   171.95168550

---------------------
BASIS SET INFORMATION
---------------------
There are 2 groups of distinct atoms

 Group   1 Type C   : 11s6p1d contracted to 5s3p1d pattern {62111/411/1}
 Group   2 Type H   : 4s1p contracted to 2s1p pattern {31/1}

Atom   0C    basis set group =>   1
Atom   1C    basis set group =>   1
Atom   2C    basis set group =>   1
Atom   3C    basis set group =>   1
Atom   4C    basis set group =>   1
Atom   5C    basis set group =>   1
Atom   6H    basis set group =>   2
Atom   7H    basis set group =>   2
Atom   8H    basis set group =>   2
Atom   9H    basis set group =>   2
Atom  10H    basis set group =>   2
Atom  11H    basis set group =>   2
Atom  12H    basis set group =>   2
Atom  13H    basis set group =>   2
Atom  14H    basis set group =>   2
Atom  15H    basis set group =>   2
---------------------------------
AUXILIARY/J BASIS SET INFORMATION
---------------------------------
There are 2 groups of distinct atoms

 Group   1 Type C   : 12s5p4d2f1g contracted to 6s4p3d1f1g pattern {711111/2111/211/2/1}
 Group   2 Type H   : 5s2p1d contracted to 3s1p1d pattern {311/2/1}

Atom   0C    basis set group =>   1
Atom   1C    basis set group =>   1
Atom   2C    basis set group =>   1
Atom   3C    basis set group =>   1
Atom   4C    basis set group =>   1
Atom   5C    basis set group =>   1
Atom   6H    basis set group =>   2
Atom   7H    basis set group =>   2
Atom   8H    basis set group =>   2
Atom   9H    basis set group =>   2
Atom  10H    basis set group =>   2
Atom  11H    basis set group =>   2
Atom  12H    basis set group =>   2
Atom  13H    basis set group =>   2
Atom  14H    basis set group =>   2
Atom  15H    basis set group =>   2

Checking for AutoStart:
The File: sp_solv.gbw exists
Trying to determine its content:
     ... Fine, the file contains calculation information
     ... Fine, the calculation information was read
     ... Fine, the file contains a basis set
     ... Fine, the basis set was read
     ... Fine, the file contains a geometry
     ... Fine, the geometry was read
     ... Fine, the file contains a set of orbitals
     ... Fine, the orbitals can be read
     => possible old guess file was deleted
     => GBW file was renamed to GES file
     => GES file is set as startup file
     => Guess is set to MORead
     ... now leaving AutoStart

------------------------------------------------------------------------------
                             ORCA STARTUP CALCULATIONS
                           -- RI-GTO INTEGRALS CHOSEN --
------------------------------------------------------------------------------
------------------------------------------------------------------------------
                   ___                                                        
                  /   \      - P O W E R E D   B Y -                         
                 /     \                                                     
                 |  |  |   _    _      __       _____    __    __             
                 |  |  |  | |  | |    /  \     |  _  \  |  |  /  |          
                  \  \/   | |  | |   /    \    | | | |  |  | /  /          
                 / \  \   | |__| |  /  /\  \   | |_| |  |  |/  /          
                |  |  |   |  __  | /  /__\  \  |    /   |      \           
                |  |  |   | |  | | |   __   |  |    \   |  |\   \          
                \     /   | |  | | |  |  |  |  | |\  \  |  | \   \       
                 \___/    |_|  |_| |__|  |__|  |_| \__\ |__|  \__/        
                                                                              
                      - O R C A' S   B I G   F R I E N D -                    
                                      &                                       
                       - I N T E G R A L  F E E D E R -                       
                                                                              
 v1 FN, 2020, v2 2021, v3 2022-2024                                           
------------------------------------------------------------------------------


----------------------
SHARK INTEGRAL PACKAGE
----------------------

Number of atoms                             ...     16
Number of basis functions                   ...    164
Number of shells                            ...     84
Maximum angular momentum                    ...      2
Integral batch strategy                     ... SHARK/LIBINT Hybrid
RI-J (if used) integral strategy            ... SPLIT-RIJ (Revised 2003 algorithm where possible)
Printlevel                                  ...      1
Contraction scheme used                     ... SEGMENTED contraction
Prescreening option                         ... SCHWARTZ
   Thresh                                   ... 1.000e-10
   Tcut                                     ... 1.000e-11
   Tpresel                                  ... 1.000e-11 
Coulomb Range Separation                    ... NOT USED
Exchange Range Separation                   ... NOT USED
Multipole approximations                    ... NOT USED
Finite Nucleus Model                        ... NOT USED
CABS basis                                  ... NOT available
Auxiliary Coulomb fitting basis             ... AVAILABLE
   # of basis functions in Aux-J            ...    404
   # of shells in Aux-J                     ...    140
   Maximum angular momentum in Aux-J        ...      4
Auxiliary J/K fitting basis                 ... NOT available
Auxiliary Correlation fitting basis         ... NOT available
Auxiliary 'external' fitting basis          ... NOT available

Checking pre-screening integrals            ... done (  0.0 sec) Dimension = 84
Check shell pair data                       ... done (  0.0 sec)
Shell pair information
Shell pair cut-off parameter TPreSel        ...   1.0e-11
Total number of shell pairs                 ...      3570
Shell pairs after pre-screening             ...      3268
Total number of primitive shell pairs       ...     12723
Primitive shell pairs kept                  ...      8582
          la=0 lb=0:   1156 shell pairs
          la=1 lb=0:   1286 shell pairs
          la=1 lb=1:    378 shell pairs
          la=2 lb=0:    274 shell pairs
          la=2 lb=1:    154 shell pairs
          la=2 lb=2:     20 shell pairs

Calculating one electron integrals          ... done (  0.0 sec)
Calculating RI/J V-Matrix + Cholesky decomp.... done (  0.1 sec)
Calculating Nuclear repulsion               ... done (  0.0 sec) ENN=    216.393261339644 Eh

Diagonalization of the overlap matrix:
Smallest eigenvalue                        ... 5.554e-05
Time for diagonalization                   ...    0.003 sec
Threshold for overlap eigenvalues          ... 1.000e-07
Number of eigenvalues below threshold      ... 0
Time for construction of square roots      ...    0.012 sec
Total time needed                          ...    0.024 sec

-------------------
DFT GRID GENERATION
-------------------

General Integration Accuracy     IntAcc      ... 4.388
Radial Grid Type                 RadialGrid  ... OptM3 with GC (2021)
Angular Grid (max. ang.)         AngularGrid ... 4 (Lebedev-302)
Angular grid pruning method      GridPruning ... 4 (adaptive)
Weight generation scheme         WeightScheme... mBecke (2022)
Basis function cutoff            BFCut       ... 1.0000e-10
Integration weight cutoff        WCut        ... 1.0000e-14
Partially contracted basis set               ... off
Rotationally invariant grid construction     ... off
Angular grids for H and He will be reduced by one unit

Total number of grid points                  ...    68361
Total number of batches                      ...     1075
Average number of points per batch           ...       63
Average number of grid points per atom       ...     4273
Initializing property integral containers    ... done (  0.0 sec)

SHARK setup successfully completed in   0.9 seconds

Maximum memory used throughout the entire STARTUP-calculation: 28.9 MB
-------------------------------------------------------------------------------
                                 ORCA GUESS
                   Start orbitals & Density for SCF / CASSCF
-------------------------------------------------------------------------------

------------
SCF SETTINGS
------------
Hamiltonian:
 Density Functional     Method          .... DFT(GTOs)
  Functional kind                       .... Exchange
  Functional name                       .... Re-regularized SCAN exchange by Furness et al
  Functional family                     .... MGGA
  Functional refs                              
    [ 0] J. W. Furness, A. D. Kaplan, J. Ning, J. P. Perdew, and J. Sun.,  J. Phys. Chem. Lett. 11, 8208-8215 (2020), doi: 10.1021/acs.jpclett.0c02405
    [ 1] J. W. Furness, A. D. Kaplan, J. Ning, J. P. Perdew, and J. Sun.,  J. Phys. Chem. Lett. 11, 9248-9248 (2020), doi: 10.1021/acs.jpclett.0c03077
  Functional external parameters        .... 6
    Parameter  0 _c1        =  6.670000e-01 : c1 parameter        
    Parameter  1 _c2        =  8.000000e-01 : c2 parameter        
    Parameter  2 _d         =  1.240000e+00 : d parameter         
    Parameter  3 _k1        =  6.500000e-02 : k1 parameter        
    Parameter  4 _eta       =  1.000000e-03 : eta parameter       
    Parameter  5 _dp2       =  3.610000e-01 : dp2 parameter       
  Functional kind                       .... Correlation
  Functional name                       .... Re-regularized SCAN correlation by Furness et al
  Functional family                     .... MGGA
  Functional refs                              
    [ 0] J. W. Furness, A. D. Kaplan, J. Ning, J. P. Perdew, and J. Sun.,  J. Phys. Chem. Lett. 11, 8208-8215 (2020), doi: 10.1021/acs.jpclett.0c02405
    [ 1] J. W. Furness, A. D. Kaplan, J. Ning, J. P. Perdew, and J. Sun.,  J. Phys. Chem. Lett. 11, 9248-9248 (2020), doi: 10.1021/acs.jpclett.0c03077
  Functional external parameters        .... 1
    Parameter  0 _eta       =  1.000000e-03 : Regularization parameter
 Gradients option       PostSCFGGA      .... off
 RI-approximation to the Coulomb term is turned on
   Number of AuxJ basis functions       .... 404


General Settings:
 Integral files         IntName         .... sp_solv
 Hartree-Fock type      HFTyp           .... RHF
 Total Charge           Charge          ....    0
 Multiplicity           Mult            ....    1
 Number of Electrons    NEL             ....   46
 Basis Dimension        Dim             ....  164
 Nuclear Repulsion      ENuc            ....    216.3932613396 Eh

Convergence Acceleration:
 AO-DIIS                CNVDIIS         .... on
   Start iteration      DIISMaxIt       ....    12
   Startup error        DIISStart       ....  0.200000
   # of expansion vecs  DIISMaxEq       ....     5
   Bias factor          DIISBfac        ....   1.050
   Max. coefficient     DIISMaxC        ....  10.000
 MO-DIIS                CNVKDIIS        .... off
 Trust-Rad. Augm. Hess. CNVTRAH         .... auto
   Auto Start mean grad. ratio tolernc. ....  1.125000
   Auto Start start iteration           ....     1
   Auto Start num. interpolation iter.  ....    10
   Max. Number of Micro iterations      ....    24
   Max. Number of Macro iterations      .... Maxiter - #DIIS iter
   Number of Davidson start vectors     ....     2
   Converg. threshold    (grad. norm)   ....   3.330e-04
   Grad. Scal. Fac. for Micro threshold ....   0.100
   Minimum threshold for Micro iter.    ....   1.000e-02
   NR start threshold (gradient norm)   ....   1.000e-04
   Initial trust radius                 ....   0.400
   Minimum AH scaling param. (alpha)    ....   1.000
   Maximum AH scaling param. (alpha)    .... 1000.000
   Quad. conv. algorithm                .... NR
   White noise on init. David. guess    .... on
   Maximum white noise                  ....   0.010
   Pseudo random numbers                .... off
   Inactive MOs                         .... canonical
   Orbital update algorithm             .... Taylor
   Preconditioner                       .... Diag
   Full preconditioner red. dimension   ....   250
   COSX micro iterations for RIJONX calc.... off
 SOSCF                  CNVSOSCF        .... on
   Start iteration      SOSCFMaxIt      ....   150
   Startup grad/error   SOSCFStart      ....  0.003300
   Hessian update       SOSCFHessUp     .... L-BFGS
 Level Shifting         CNVShift        .... on
   Level shift para.    LevelShift      ....    0.2500
   Turn off err/grad.   ShiftErr        ....    0.0010
 Zerner damping         CNVZerner       .... off
 Static damping         CNVDamp         .... on
   Fraction old density DampFac         ....    0.7000
   Max. Damping (<1)    DampMax         ....    0.9800
   Min. Damping (>=0)   DampMin         ....    0.0000
   Turn off err/grad.   DampErr         ....    0.1000

SCF Procedure:
 Maximum # iterations   MaxIter         ....   125
 SCF integral mode      SCFMode         .... Direct
   Integral package                     .... SHARK and LIBINT hybrid scheme
 Reset frequency        DirectResetFreq ....    20
 Integral Threshold     Thresh          ....  1.000e-10 Eh
 Primitive CutOff       TCut            ....  1.000e-11 Eh

Convergence Tolerance:
 Convergence Check Mode ConvCheckMode   .... Total+1el-Energy
 Convergence forced     ConvForced      .... 0
 Energy Change          TolE            ....  1.000e-06 Eh
 1-El. energy change                    ....  1.000e-03 Eh
 Orbital Gradient       TolG            ....  3.330e-04
 Orbital Rotation angle TolX            ....  3.330e-04
 DIIS Error             TolErr          ....  1.000e-06

---------------------
INITIAL GUESS: MOREAD
---------------------
Guess MOs are being read from file: sp_solv.ges
Input Geometry matches current geometry (good)
Atom 0: N(Shells)= 9 and 6 - projection required
Input basis set needs projection
NBasis(read)= 104
NBasis(calc)= 164
Basis set overlap was calculated
Using GuessMode=FMatrix for the initial guess
C*T matrix was formed
Effective Fockian was calculated
Effective Fockian was diagonalized
Initial density was built
                      ------------------
                      INITIAL GUESS DONE (   0.0 sec)
                      ------------------
             **** ENERGY FILE WAS UPDATED (sp_solv.en.tmp) ****
Finished Guess after   0.3 sec
Maximum memory used throughout the entire GUESS-calculation: 11.1 MB

-------------------------------------------------------------------------------------------
                                      ORCA LEAN-SCF
                              memory conserving SCF solver
-------------------------------------------------------------------------------------------

--------------------
CPCM SOLVATION MODEL
--------------------
CPCM parameters:
  Epsilon                                         ...      78.3550
  Refrac                                          ...       1.3328
  Rsolv                                           ...       1.3000
  Surface type                                    ... GAUSSIAN VDW
  Discretization scheme                           ... Constant charge density
    Threshold for H atoms                         ...       5.0000 (charges/Ang^2)
    Threshold for non-H atoms                     ...       5.0000 (charges/Ang^2)
  Epsilon function type                           ...         CPCM
Solvent:                                          ... WATER
SMD-CDS solvent descriptors:
  Soln                                            ...       1.3328
  Soln25                                          ...       1.3323
  Sola                                            ...       0.0000
  Solb                                            ...       0.0000
  Solg                                            ...       0.0000
  Solc                                            ...       0.0000
  Solh                                            ...       0.0000
Radii:
  Scheme                                          ... Element-dependent radii
  Radius for C  used is    3.4960 Bohr (=   1.8500 Ang.)
  Radius for H  used is    2.2677 Bohr (=   1.2000 Ang.)
Calculating surface                               ...        done! (  0.0s)
Cavity surface points                             ...         1257
Cavity Volume                                     ...     746.7426
Cavity Surface-area                               ...     498.9115
Calculating surface distance matrix               ...        done! (  0.0s)
Performing Cholesky decomposition & store         ...        done! (  0.1s)
Overall time for CPCM initialization              ...                 0.1s

----------------------------------------D-I-I-S--------------------------------------------
Iteration    Energy (Eh)           Delta-E    RMSDP     MaxDP     DIISErr   Damp  Time(sec)
-------------------------------------------------------------------------------------------
               ***  Starting incremental Fock matrix formation  ***
    1    -234.4006918877352064     0.00e+00  2.14e-02  1.29e+00  2.80e-01  0.700   2.1
    2    -234.4358457974468593    -3.52e-02  1.50e-02  8.74e-01  1.97e-01  0.700   1.9
                               ***Turning on AO-DIIS***
    3    -234.4607880395529946    -2.49e-02  1.03e-02  5.88e-01  1.38e-01  0.700   1.9
    4    -234.4783241298543430    -1.75e-02  7.16e-03  4.05e-01  9.64e-02  0.700   1.9
    5    -234.4906393828379123    -1.23e-02  1.66e-02  9.36e-01  6.75e-02  0.000   1.8
                              *** Initializing SOSCF ***
---------------------------------------S-O-S-C-F--------------------------------------
Iteration    Energy (Eh)           Delta-E    RMSDP     MaxDP     MaxGrad    Time(sec)
--------------------------------------------------------------------------------------
    6    -234.5195117288870392    -2.89e-02  1.39e-04  6.08e-03  5.02e-04     1.9
               *** Restarting incremental Fock matrix formation ***
    7    -234.5195132827248017    -1.55e-06  6.77e-05  2.95e-03  2.46e-04     2.1
    8    -234.5195100633199559     3.22e-06  2.06e-05  5.04e-04  5.35e-04     1.6
    9    -234.5195142950004765    -4.23e-06  4.95e-06  1.28e-04  1.35e-05     1.6
                  *** Gradient check signals convergence ***

               *****************************************************
               *                     SUCCESS                       *
               *           SCF CONVERGED AFTER   9 CYCLES          *
               *****************************************************


SMD CDS free energy correction energy :                 4.47594     Kcal/mol
Total Energy after SMD CDS correction =              -234.512381432 Eh
             **** ENERGY FILE WAS UPDATED (sp_solv.en.tmp) ****

----------------
TOTAL SCF ENERGY
----------------

Total Energy       :       -234.51238143247988 Eh           -6381.40632 eV

Components:
Nuclear Repulsion  :        216.39326133964425 Eh            5888.36000 eV
Electronic Energy  :       -450.90400355536531 Eh          -12269.72172 eV
One Electron Energy:       -742.55516285805493 Eh          -20205.95323 eV
Two Electron Energy:        291.65115930268962 Eh            7936.23151 eV
CPCM Dielectric    :         -0.00877207927940 Eh              -0.23870 eV
SMD CDS (Gcds)     :          0.00713286252059 Eh               0.19410 eV

Virial components:
Potential Energy   :       -467.99726503491894 Eh          -12734.85301 eV
Kinetic Energy     :        233.48488360243906 Eh            6353.44669 eV
Virial Ratio       :          2.00440070386651

DFT components:
N(Alpha)           :       23.000013516042 electrons
N(Beta)            :       23.000013516042 electrons
N(Total)           :       46.000027032085 electrons
E(X)               :      -34.746496059787 Eh       
E(C)               :       -1.419497931655 Eh       
E(XC)              :      -36.165993991442 Eh       

CPCM Solvation Model Properties:
Surface-charge          :         -0.04454713694530
Corrected charge        :         -0.00000000000000
Outlying charge corr.   :          0.00016072477006 Eh               0.00437 eV
Free-energy (cav+disp)  :          0.00713286252059 Eh               0.19410 eV

---------------
SCF CONVERGENCE
---------------

  Last Energy change         ...    4.2317e-06  Tolerance :   1.0000e-06
  Last MAX-Density change    ...    1.2773e-04  Tolerance :   1.0000e-05
  Last RMS-Density change    ...    4.9504e-06  Tolerance :   1.0000e-06
  Last DIIS Error            ...    5.0240e-04  Tolerance :   1.0000e-06
  Last Orbital Gradient      ...    1.3486e-05  Tolerance :   3.3300e-04
  Last Orbital Rotation      ...    2.2843e-05  Tolerance :   3.3300e-04


----------------
ORBITAL ENERGIES
----------------

  NO   OCC          E(Eh)            E(eV) 
   0   2.0000     -10.047429      -273.4044 
   1   2.0000     -10.036931      -273.1188 
   2   2.0000     -10.025388      -272.8047 
   3   2.0000     -10.019379      -272.6412 
   4   2.0000     -10.017537      -272.5911 
   5   2.0000     -10.008386      -272.3420 
   6   2.0000      -0.780719       -21.2445 
   7   2.0000      -0.728649       -19.8275 
   8   2.0000      -0.683878       -18.6093 
   9   2.0000      -0.609200       -16.5772 
  10   2.0000      -0.546165       -14.8619 
  11   2.0000      -0.494206       -13.4480 
  12   2.0000      -0.446131       -12.1398 
  13   2.0000      -0.414633       -11.2827 
  14   2.0000      -0.403222       -10.9722 
  15   2.0000      -0.394080       -10.7235 
  16   2.0000      -0.352561        -9.5937 
  17   2.0000      -0.331362        -9.0168 
  18   2.0000      -0.308995        -8.4082 
  19   2.0000      -0.296941        -8.0802 
  20   2.0000      -0.290675        -7.9097 
  21   2.0000      -0.251127        -6.8335 
  22   2.0000      -0.248407        -6.7595 
  23   0.0000       0.020182         0.5492 
  24   0.0000       0.024406         0.6641 
  25   0.0000       0.092110         2.5064 
  26   0.0000       0.111705         3.0396 
  27   0.0000       0.136768         3.7217 
  28   0.0000       0.141396         3.8476 
  29   0.0000       0.147666         4.0182 
  30   0.0000       0.150250         4.0885 
  31   0.0000       0.156655         4.2628 
  32   0.0000       0.164926         4.4879 
  33   0.0000       0.183382         4.9901 
*Only the first 10 virtual orbitals were printed.

                    ********************************
                    * MULLIKEN POPULATION ANALYSIS *
                    ********************************

-----------------------
MULLIKEN ATOMIC CHARGES
-----------------------
   0 C :   -0.507834
   1 C :   -0.254974
   2 C :   -0.283985
   3 C :   -0.379828
   4 C :   -0.013719
   5 C :   -0.230845
   6 H :    0.152850
   7 H :    0.156869
   8 H :    0.153719
   9 H :    0.148440
  10 H :    0.151263
  11 H :    0.154993
  12 H :    0.164331
  13 H :    0.195245
  14 H :    0.190785
  15 H :    0.202691
Sum of atomic charges:   -0.0000000

--------------------------------
MULLIKEN REDUCED ORBITAL CHARGES
--------------------------------
  0 C s       :     3.340873  s :     3.340873
      pz      :     1.073954  p :     3.139889
      px      :     0.970763
      py      :     1.095172
      dz2     :     0.006785  d :     0.027072
      dxz     :     0.004283
      dyz     :     0.003811
      dx2y2   :     0.004019
      dxy     :     0.008174

  1 C s       :     3.225541  s :     3.225541
      pz      :     1.018009  p :     2.992463
      px      :     0.965705
      py      :     1.008748
      dz2     :     0.009691  d :     0.036971
      dxz     :     0.005686
      dyz     :     0.004840
      dx2y2   :     0.006698
      dxy     :     0.010056

  2 C s       :     3.259796  s :     3.259796
      pz      :     1.018130  p :     2.987692
      px      :     0.921867
      py      :     1.047696
      dz2     :     0.009832  d :     0.036496
      dxz     :     0.005537
      dyz     :     0.004612
      dx2y2   :     0.007227
      dxy     :     0.009288

  3 C s       :     3.317182  s :     3.317182
      pz      :     1.093309  p :     3.022561
      px      :     0.958706
      py      :     0.970546
      dz2     :     0.008920  d :     0.040085
      dxz     :     0.005729
      dyz     :     0.005534
      dx2y2   :     0.007663
      dxy     :     0.012239

  4 C s       :     3.306219  s :     3.306219
      pz      :     0.966991  p :     2.670006
      px      :     0.962213
      py      :     0.740802
      dz2     :     0.003260  d :     0.037494
      dxz     :     0.004618
      dyz     :     0.008507
      dx2y2   :     0.012676
      dxy     :     0.008434

  5 C s       :     3.316930  s :     3.316930
      pz      :     1.031422  p :     2.890823
      px      :     0.970260
      py      :     0.889141
      dz2     :     0.002385  d :     0.023092
      dxz     :     0.002556
      dyz     :     0.004525
      dx2y2   :     0.006858
      dxy     :     0.006769

  6 H s       :     0.828856  s :     0.828856
      pz      :     0.003696  p :     0.018294
      px      :     0.006043
      py      :     0.008556

  7 H s       :     0.824760  s :     0.824760
      pz      :     0.005697  p :     0.018372
      px      :     0.005227
      py      :     0.007447

  8 H s       :     0.827988  s :     0.827988
      pz      :     0.010328  p :     0.018293
      px      :     0.003579
      py      :     0.004387

  9 H s       :     0.833736  s :     0.833736
      pz      :     0.010383  p :     0.017824
      px      :     0.003417
      py      :     0.004023

 10 H s       :     0.830613  s :     0.830613
      pz      :     0.003487  p :     0.018124
      px      :     0.005956
      py      :     0.008681

 11 H s       :     0.827125  s :     0.827125
      pz      :     0.010596  p :     0.017881
      px      :     0.003279
      py      :     0.004007

 12 H s       :     0.817825  s :     0.817825
      pz      :     0.003471  p :     0.017844
      px      :     0.005560
      py      :     0.008812

 13 H s       :     0.786892  s :     0.786892
      pz      :     0.011011  p :     0.017864
      px      :     0.003245
      py      :     0.003607

 14 H s       :     0.791301  s :     0.791301
      pz      :     0.005214  p :     0.017914
      px      :     0.004520
      py      :     0.008180

 15 H s       :     0.773513  s :     0.773513
      pz      :     0.005031  p :     0.023796
      px      :     0.008156
      py      :     0.010609


------------------------
MULLIKEN OVERLAP CHARGES
------------------------
B(  0-C ,  1-C ) :   0.4620 B(  0-C ,  2-C ) :  -0.1691 B(  0-C ,  6-H ) :   0.8613 
B(  0-C ,  7-H ) :   0.8082 B(  0-C ,  8-H ) :   0.8491 B(  0-C ,  9-H ) :  -0.0662 
B(  1-C ,  2-C ) :   0.4801 B(  1-C ,  3-C ) :  -0.1815 B(  1-C ,  6-H ) :  -0.0971 
B(  1-C ,  7-H ) :  -0.0783 B(  1-C ,  8-H ) :  -0.0847 B(  1-C ,  9-H ) :   0.8525 
B(  1-C , 10-H ) :   0.8491 B(  1-C , 11-H ) :  -0.0924 B(  1-C , 12-H ) :  -0.0612 
B(  2-C ,  3-C ) :   0.4572 B(  2-C ,  4-C ) :  -0.0898 B(  2-C ,  9-H ) :  -0.0987 
B(  2-C , 10-H ) :  -0.0777 B(  2-C , 11-H ) :   0.8550 B(  2-C , 12-H ) :   0.8557 
B(  2-C , 13-H ) :  -0.0869 B(  2-C , 14-H ) :  -0.0814 B(  3-C ,  4-C ) :   0.1483 
B(  3-C ,  5-C ) :  -0.4573 B(  3-C , 10-H ) :  -0.0963 B(  3-C , 12-H ) :  -0.1603 
B(  3-C , 13-H ) :   0.9550 B(  3-C , 14-H ) :   0.8375 B(  4-C ,  5-C ) :   1.1155 
B(  4-C , 12-H ) :   0.0614 B(  4-C , 13-H ) :  -0.1439 B(  4-C , 14-H ) :  -0.0774 
B(  4-C , 15-H ) :  -0.2349 B(  5-C , 15-H ) :   0.9990 B(  6-H ,  8-H ) :  -0.0537 
B(  9-H , 10-H ) :  -0.0546 


                     *******************************
                     * LOEWDIN POPULATION ANALYSIS *
                     *******************************

----------------------
LOEWDIN ATOMIC CHARGES
----------------------
   0 C :   -0.431450
   1 C :   -0.314612
   2 C :   -0.290808
   3 C :   -0.279498
   4 C :   -0.096105
   5 C :   -0.253437
   6 H :    0.152938
   7 H :    0.153214
   8 H :    0.152593
   9 H :    0.155146
  10 H :    0.157817
  11 H :    0.162745
  12 H :    0.162573
  13 H :    0.186272
  14 H :    0.186445
  15 H :    0.196167

-------------------------------
LOEWDIN REDUCED ORBITAL CHARGES
-------------------------------
  0 C s       :     2.974573  s :     2.974573
      pz      :     1.148935  p :     3.393771
      px      :     1.089994
      py      :     1.154842
      dz2     :     0.016282  d :     0.063105
      dxz     :     0.009379
      dyz     :     0.009404
      dx2y2   :     0.009140
      dxy     :     0.018899

  1 C s       :     2.937526  s :     2.937526
      pz      :     1.118597  p :     3.297062
      px      :     1.070719
      py      :     1.107747
      dz2     :     0.021587  d :     0.080023
      dxz     :     0.011678
      dyz     :     0.010722
      dx2y2   :     0.013999
      dxy     :     0.022038

  2 C s       :     2.938470  s :     2.938470
      pz      :     1.119830  p :     3.273432
      px      :     1.038715
      py      :     1.114886
      dz2     :     0.021872  d :     0.078907
      dxz     :     0.011434
      dyz     :     0.010143
      dx2y2   :     0.015130
      dxy     :     0.020327

  3 C s       :     2.912513  s :     2.912513
      pz      :     1.140790  p :     3.282049
      px      :     1.059140
      py      :     1.082119
      dz2     :     0.020153  d :     0.084935
      dxz     :     0.011048
      dyz     :     0.011942
      dx2y2   :     0.016244
      dxy     :     0.025548

  4 C s       :     2.935480  s :     2.935480
      pz      :     0.964327  p :     3.090299
      px      :     1.031055
      py      :     1.094917
      dz2     :     0.006349  d :     0.070326
      dxz     :     0.008410
      dyz     :     0.015456
      dx2y2   :     0.023257
      dxy     :     0.016853

  5 C s       :     2.999055  s :     2.999055
      pz      :     1.032754  p :     3.211399
      px      :     1.070968
      py      :     1.107678
      dz2     :     0.004641  d :     0.042982
      dxz     :     0.004610
      dyz     :     0.008128
      dx2y2   :     0.012433
      dxy     :     0.013170

  6 H s       :     0.803412  s :     0.803412
      pz      :     0.008162  p :     0.043651
      px      :     0.014276
      py      :     0.021213

  7 H s       :     0.802944  s :     0.802944
      pz      :     0.013608  p :     0.043843
      px      :     0.012211
      py      :     0.018023

  8 H s       :     0.803726  s :     0.803726
      pz      :     0.025628  p :     0.043681
      px      :     0.008082
      py      :     0.009971

  9 H s       :     0.801547  s :     0.801547
      pz      :     0.025607  p :     0.043307
      px      :     0.008133
      py      :     0.009567

 10 H s       :     0.798276  s :     0.798276
      pz      :     0.008087  p :     0.043906
      px      :     0.014295
      py      :     0.021524

 11 H s       :     0.793677  s :     0.793677
      pz      :     0.026425  p :     0.043578
      px      :     0.007487
      py      :     0.009667

 12 H s       :     0.793788  s :     0.793788
      pz      :     0.008072  p :     0.043639
      px      :     0.013496
      py      :     0.022071

 13 H s       :     0.770100  s :     0.770100
      pz      :     0.027927  p :     0.043628
      px      :     0.007535
      py      :     0.008165

 14 H s       :     0.769736  s :     0.769736
      pz      :     0.012894  p :     0.043819
      px      :     0.011129
      py      :     0.019797

 15 H s       :     0.748772  s :     0.748772
      pz      :     0.010427  p :     0.055061
      px      :     0.019046
      py      :     0.025588


---------------------------------
LOEWDIN BOND ORDERS (THRESH 0.050000)
---------------------------------
B(  0-C ,  1-C ) :   1.1453 B(  0-C ,  2-C ) :   0.0749 B(  0-C ,  6-H ) :   0.9283 
B(  0-C ,  7-H ) :   0.9297 B(  0-C ,  8-H ) :   0.9296 B(  1-C ,  2-C ) :   1.1013 
B(  1-C ,  3-C ) :   0.0684 B(  1-C ,  9-H ) :   0.8949 B(  1-C , 10-H ) :   0.8876 
B(  2-C ,  3-C ) :   1.0805 B(  2-C ,  4-C ) :   0.0777 B(  2-C , 11-H ) :   0.8888 
B(  2-C , 12-H ) :   0.8883 B(  3-C ,  4-C ) :   1.1516 B(  3-C ,  5-C ) :   0.1324 
B(  3-C , 13-H ) :   0.8618 B(  3-C , 14-H ) :   0.8621 B(  4-C ,  5-C ) :   2.9497 
B(  4-C , 15-H ) :   0.0923 B(  5-C , 15-H ) :   0.9034 

------------------------------------------
LOEWDIN REDUCED ORBITAL POPULATIONS PER MO
-------------------------------------------
THRESHOLD FOR PRINTING IS 0.1%%
                      0         1         2         3         4         5   
                 -10.04743 -10.03693 -10.02539 -10.01938 -10.01754 -10.00839
                   2.00000   2.00000   2.00000   2.00000   2.00000   2.00000
                  --------  --------  --------  --------  --------  --------
 0 C  s               0.0       0.0       0.0       0.0       0.0      99.7
 1 C  s               0.0       0.0       0.0       0.0      99.7       0.0
 2 C  s               0.0       0.0      99.7       0.0       0.0       0.0
 3 C  s              99.6       0.0       0.0       0.0       0.0       0.0
 4 C  s               0.0      98.9       0.0       0.5       0.0       0.0
 4 C  py              0.1       0.0       0.0       0.2       0.0       0.0
 5 C  s               0.0       0.5       0.0      99.0       0.0       0.0
 5 C  py              0.0       0.2       0.0       0.0       0.0       0.0

                      6         7         8         9        10        11   
                  -0.78072  -0.72865  -0.68388  -0.60920  -0.54617  -0.49421
                   2.00000   2.00000   2.00000   2.00000   2.00000   2.00000
                  --------  --------  --------  --------  --------  --------
 0 C  s               3.1      13.3      11.4      14.9       4.9       0.0
 0 C  pz              0.1       0.2       0.1       0.1       2.4       0.4
 0 C  px              1.1       1.4       0.1       2.1       4.9       0.0
 0 C  py              0.1       0.1       0.0       0.4       0.0       0.0
 1 C  s               9.9      16.2       3.3       2.1      13.1       0.2
 1 C  pz              0.6       0.4       0.0       0.0       5.9       1.5
 1 C  px              0.4       1.2       3.2       6.0       1.7       0.0
 1 C  py              0.9       0.0       1.2       2.4       2.2       0.0
 1 C  dxz             0.0       0.0       0.0       0.1       0.0       0.0
 1 C  dx2y2           0.0       0.0       0.0       0.1       0.0       0.0
 2 C  s              18.1       3.6       3.8      11.3       7.4       0.5
 2 C  pz              0.9       0.2       0.0       0.1       5.5       2.3
 2 C  px              1.1       3.6       2.7       2.1       0.1       0.3
 2 C  py              0.2       1.2       1.3       0.2       5.3       0.8
 2 C  dyz             0.0       0.0       0.0       0.0       0.1       0.0
 3 C  s              22.5       3.1       8.8       7.2       0.1       2.2
 3 C  pz              0.2       0.0       0.0       0.6       2.1       1.6
 3 C  px              0.3       3.6       1.2       6.2       3.0       0.4
 3 C  py              1.4       0.6       0.9       0.2       1.1       5.6
 4 C  s              14.0      17.0       5.8       0.5       0.6       5.7
 4 C  pz              0.0       0.0       0.2       0.3       0.4       0.1
 4 C  px              1.0       0.8       6.5       2.2       0.7       0.6
 4 C  py              0.8       0.7      11.4       7.7       1.1       0.5
 4 C  dz2             0.1       0.1       0.0       0.0       0.0       0.0
 4 C  dxy             0.3       0.3       0.0       0.0       0.0       0.0
 5 C  s               4.7      13.0      18.4       3.6       1.3       8.7
 5 C  pz              0.0       0.1       0.0       0.0       0.0       0.4
 5 C  px              0.8       1.1       0.7       0.1       0.3      13.0
 5 C  py              1.4       2.2       1.3       0.3       0.5      21.5
 5 C  dxy             0.0       0.2       0.2       0.0       0.0       0.0
 6 H  s               0.4       2.0       2.1       4.0       3.0       0.0
 6 H  py              0.0       0.1       0.1       0.2       0.2       0.0
 7 H  s               0.4       2.0       2.2       4.9       1.7       0.0
 7 H  pz              0.0       0.0       0.1       0.1       0.1       0.0
 7 H  py              0.0       0.1       0.1       0.2       0.1       0.0
 8 H  s               0.4       2.0       2.1       4.1       2.9       0.1
 8 H  pz              0.0       0.2       0.2       0.3       0.2       0.0
 9 H  s               1.2       2.4       0.6       0.5       6.9       0.7
 9 H  pz              0.1       0.2       0.0       0.0       0.4       0.0
10 H  s               1.3       2.3       0.6       0.5       7.2       0.1
10 H  px              0.0       0.1       0.0       0.0       0.1       0.0
10 H  py              0.1       0.1       0.0       0.1       0.4       0.0
11 H  s               2.2       0.5       0.7       3.0       4.4       1.4
11 H  pz              0.2       0.0       0.1       0.2       0.2       0.1
12 H  s               2.2       0.6       0.7       3.3       4.9       0.0
12 H  px              0.1       0.0       0.0       0.1       0.1       0.0
12 H  py              0.1       0.1       0.0       0.2       0.2       0.0
13 H  s               2.9       0.5       1.8       2.3       0.4       3.1
13 H  pz              0.3       0.0       0.2       0.2       0.0       0.2
14 H  s               2.9       0.5       1.9       2.7       0.0       1.9
14 H  py              0.2       0.0       0.1       0.2       0.0       0.0
15 H  s               0.4       1.4       2.6       1.1       1.0      24.3
15 H  px              0.0       0.0       0.1       0.0       0.0       0.4
15 H  py              0.0       0.0       0.1       0.0       0.0       0.7

                     12        13        14        15        16        17   
                  -0.44613  -0.41463  -0.40322  -0.39408  -0.35256  -0.33136
                   2.00000   2.00000   2.00000   2.00000   2.00000   2.00000
                  --------  --------  --------  --------  --------  --------
 0 C  s               0.0       0.1       0.2       0.1       0.0       0.0
 0 C  pz              1.7       1.8       1.0      14.6       9.6      13.0
 0 C  px              0.6       2.9       0.7      10.3       1.0       1.2
 0 C  py              1.7       1.9      17.0       0.2      15.5       8.9
 0 C  dz2             0.0       0.0       0.1       0.0       0.0       0.3
 0 C  dyz             0.0       0.0       0.0       0.1       0.1       0.1
 0 C  dxy             0.0       0.0       0.0       0.0       0.2       0.0
 1 C  s               0.0       0.8       0.3       0.2       0.2       0.0
 1 C  pz              5.1       0.4       0.0      15.9       0.0       1.0
 1 C  px              1.9       1.3       6.9       0.1       2.7       0.2
 1 C  py              5.4       6.8       9.4       0.3       1.9       0.8
 1 C  dx2y2           0.0       0.0       0.0       0.0       0.0       0.1
 2 C  s               0.0       0.2       0.1       0.2       0.5       0.0
 2 C  pz              7.3       5.8       1.0       0.3       5.1      11.2
 2 C  px              2.3       0.4      10.0       7.4       5.7       1.8
 2 C  py             10.5       2.0       0.1       1.1       4.7       8.7
 2 C  dz2             0.0       0.0       0.0       0.0       0.0       0.3
 2 C  dxz             0.0       0.0       0.2       0.0       0.0       0.0
 2 C  dx2y2           0.0       0.0       0.0       0.1       0.1       0.0
 2 C  dxy             0.0       0.0       0.0       0.1       0.3       0.1
 3 C  s               0.2       0.2       0.2       0.1       0.3       0.1
 3 C  pz              6.2      16.9       2.3       9.0       6.9       4.9
 3 C  px              1.8       2.0      15.9       3.4       2.8       0.2
 3 C  py              9.9      19.5       0.8       6.0       2.0       1.8
 3 C  dz2             0.1       0.0       0.1       0.1       0.0       0.3
 3 C  dyz             0.0       0.1       0.0       0.0       0.0       0.0
 3 C  dxy             0.0       0.1       0.2       0.0       0.3       0.1
 4 C  s               0.2       0.3       1.2       0.1       0.6       0.8
 4 C  pz              0.5       4.0       0.1       1.6       4.4       1.0
 4 C  px              5.4       4.0       0.9       2.5       0.2       0.5
 4 C  py              4.6       0.6       8.6       0.2       1.8       2.1
 5 C  s               0.3       0.0       0.1       0.0       0.1       0.1
 5 C  pz              0.5       0.4       0.1       0.4       1.0       0.6
 5 C  px              2.6       0.1       1.9       0.1       0.5       0.2
 5 C  py              6.6       1.5       0.6       0.4       0.2       0.1
 6 H  s               0.7       2.0       2.3       1.2       7.2       5.4
 6 H  px              0.0       0.0       0.1       0.0       0.1       0.0
 7 H  s               0.0       0.1       3.6       6.3       8.0       0.1
 7 H  pz              0.0       0.0       0.1       0.0       0.0       0.1
 7 H  px              0.0       0.0       0.0       0.0       0.2       0.0
 7 H  py              0.0       0.0       0.0       0.2       0.0       0.1
 8 H  s               0.8       0.4       2.4       4.4       1.6      10.6
 8 H  pz              0.0       0.0       0.1       0.1       0.0       0.2
 8 H  py              0.0       0.0       0.0       0.1       0.2       0.0
 9 H  s               2.6       0.2       1.1       4.6       0.1       0.8
 9 H  pz              0.1       0.0       0.1       0.1       0.0       0.0
10 H  s               2.1       1.9       4.3       0.3       0.0       0.1
10 H  px              0.0       0.1       0.0       0.0       0.0       0.0
11 H  s               3.7       0.9       0.1       0.0       2.0       9.4
11 H  pz              0.2       0.0       0.0       0.0       0.0       0.2
12 H  s               3.8       0.1       1.0       0.0       6.5       6.4
12 H  py              0.1       0.0       0.1       0.0       0.1       0.1
13 H  s               4.3       2.6       2.2       5.5       1.5       5.1
13 H  pz              0.2       0.0       0.1       0.2       0.0       0.1
13 H  px              0.0       0.0       0.1       0.0       0.1       0.0
13 H  py              0.0       0.2       0.0       0.0       0.0       0.0
14 H  s               0.4      15.6       0.5       0.9       3.0       0.0
14 H  pz              0.1       0.0       0.0       0.1       0.0       0.0
14 H  px              0.0       0.1       0.1       0.0       0.1       0.0
14 H  py              0.0       0.3       0.1       0.0       0.0       0.0
15 H  s               4.8       0.5       1.0       0.1       0.1       0.1

                     18        19        20        21        22        23   
                  -0.30900  -0.29694  -0.29068  -0.25113  -0.24841   0.02018
                   2.00000   2.00000   2.00000   2.00000   2.00000   0.00000
                  --------  --------  --------  --------  --------  --------
 0 C  s               0.9       0.0       0.0       0.1       0.0       0.1
 0 C  pz              3.8       3.7       4.9       0.0       0.0       0.0
 0 C  px             24.4       0.8       2.1       0.3       0.2       0.0
 0 C  py              0.3       8.5       2.2       0.1       0.7       0.1
 0 C  dz2             0.0       0.0       0.4       0.0       0.0       0.0
 0 C  dxz             0.1       0.1       0.0       0.0       0.0       0.0
 0 C  dyz             0.0       0.1       0.1       0.0       0.0       0.0
 0 C  dx2y2           0.1       0.0       0.0       0.0       0.0       0.0
 0 C  dxy             0.1       0.4       0.1       0.0       0.1       0.0
 1 C  s               0.3       0.4       0.0       0.1       0.0       0.4
 1 C  pz              6.5       6.2      12.1       0.1       0.0       0.1
 1 C  px             21.6       1.1       4.8       0.1       0.1       0.2
 1 C  py              0.0      15.0       6.1       0.0       2.9       0.2
 1 C  dz2             0.1       0.0       0.8       0.0       0.0       0.0
 1 C  dxz             0.1       0.1       0.0       0.0       0.0       0.0
 1 C  dyz             0.0       0.1       0.1       0.0       0.0       0.0
 1 C  dx2y2           0.3       0.0       0.0       0.0       0.0       0.0
 1 C  dxy             0.2       0.5       0.1       0.0       0.0       0.1
 2 C  s               0.2       0.9       0.0       0.4       0.1       3.5
 2 C  pz              2.2       6.2       7.1       0.7       0.0       0.4
 2 C  px              3.9       1.3       2.8       3.8       2.5       2.4
 2 C  py              0.4      16.1       2.4       0.0       0.8       0.4
 2 C  dz2             0.2       0.0       0.6       0.0       0.0       0.1
 2 C  dx2y2           0.3       0.0       0.1       0.0       0.0       0.0
 2 C  dxy             0.1       0.3       0.0       0.1       0.0       0.1
 3 C  s               0.8       0.0       0.0       0.1       0.0       0.3
 3 C  pz              0.4       0.1       0.6       3.8       1.3       0.1
 3 C  px              7.4       0.6       0.3       1.3       2.4       1.6
 3 C  py              1.2       1.0       0.0       0.2       1.8       0.2
 3 C  dz2             0.0       0.0       0.1       0.2       0.0       0.1
 3 C  dxz             0.0       0.1       0.0       0.1       0.0       0.4
 3 C  dyz             0.0       0.0       0.0       0.2       0.2       0.0
 3 C  dx2y2           0.0       0.0       0.0       0.1       0.4       1.9
 3 C  dxy             0.0       0.2       0.0       0.0       0.1       0.0
 4 C  s               0.1       0.1       0.1       0.0       0.0       0.0
 4 C  pz              0.9       1.8       0.0      25.7       7.0       4.9
 4 C  px              2.5       3.3       0.2       6.5      13.5      21.7
 4 C  py              1.8       1.1       0.2       1.1      10.2      10.0
 4 C  dxz             0.0       0.0       0.0       0.2       0.1       0.0
 4 C  dyz             0.0       0.0       0.0       0.5       0.1       0.3
 4 C  dx2y2           0.0       0.0       0.0       0.2       0.8       1.2
 4 C  dxy             0.0       0.0       0.0       0.1       0.0       0.1
 5 C  pz              0.5       1.0       0.0      36.4      10.4       5.4
 5 C  px              1.5       1.6       0.1       9.0      19.9      23.6
 5 C  py              0.5       1.5       0.1       1.9      14.7      11.3
 5 C  dxz             0.0       0.0       0.0       0.1       0.1       0.0
 5 C  dyz             0.0       0.0       0.0       0.2       0.0       0.3
 5 C  dx2y2           0.0       0.0       0.0       0.1       0.3       1.5
 5 C  dxy             0.0       0.0       0.0       0.0       0.0       0.2
 6 H  s               2.4       2.9       4.0       0.0       0.4       0.0
 6 H  px              0.1       0.1       0.0       0.0       0.0       0.0
 6 H  py              0.1       0.0       0.0       0.0       0.0       0.0
 7 H  s               0.9       8.9       0.4       0.1       0.6       0.2
 7 H  px              0.2       0.0       0.0       0.0       0.0       0.0
 8 H  s               1.1       0.8       6.5       0.0       0.0       0.0
 8 H  px              0.3       0.0       0.0       0.0       0.0       0.0
 8 H  py              0.0       0.1       0.0       0.0       0.0       0.0
 9 H  s               2.9       1.0      14.5       0.1       0.1       0.0
 9 H  pz              0.0       0.0       0.1       0.0       0.0       0.0
 9 H  px              0.2       0.0       0.0       0.0       0.0       0.0
 9 H  py              0.0       0.2       0.0       0.0       0.0       0.0
10 H  s               3.6       5.2       9.8       0.0       0.6       0.0
10 H  py              0.1       0.0       0.1       0.0       0.0       0.0
11 H  s               2.2       0.4       8.3       0.3       0.0       0.1
11 H  py              0.0       0.2       0.0       0.0       0.0       0.0
12 H  s               0.5       3.9       5.4       0.5       0.0       0.7
12 H  px              0.0       0.1       0.0       0.0       0.0       0.3
13 H  s               0.0       0.1       1.2       4.0       1.0       0.8
14 H  s               0.9       1.2       0.2       0.1       5.6       1.6
14 H  py              0.0       0.0       0.0       0.0       0.0       0.2
15 H  pz              0.0       0.0       0.0       0.4       0.1       0.2
15 H  px              0.0       0.0       0.0       0.1       0.2       1.1
15 H  py              0.0       0.0       0.0       0.0       0.2       0.5

                     24        25        26        27        28        29   
                   0.02441   0.09211   0.11170   0.13677   0.14140   0.14767
                   0.00000   0.00000   0.00000   0.00000   0.00000   0.00000
                  --------  --------  --------  --------  --------  --------
 0 C  s               0.1       0.4      25.6       5.9       0.6       0.0
 0 C  pz              0.0       0.8       0.2       0.3       0.6       0.9
 0 C  px              0.0       2.3       0.9       5.5       5.0       0.2
 0 C  py              0.0       0.1       0.5       1.1       2.4       1.2
 0 C  dz2             0.0       0.0       0.1       0.0       0.1       0.0
 0 C  dxz             0.0       0.1       0.2       0.0       0.4       0.0
 0 C  dyz             0.0       0.0       0.0       0.2       0.8       0.1
 0 C  dx2y2           0.0       0.1       0.2       0.2       0.2       0.0
 0 C  dxy             0.0       0.0       0.0       0.1       0.0       0.1
 1 C  s               0.0       5.3      10.4       1.1       0.9       0.6
 1 C  pz              0.0       0.4       0.3       6.0       9.5       4.4
 1 C  px              0.3       3.2       4.2       3.6       4.5       1.2
 1 C  py              0.1       1.6       4.1       3.1       0.8       4.5
 1 C  dz2             0.0       0.1       0.0       0.1       0.2       0.0
 1 C  dxz             0.0       0.0       0.3       0.5       0.5       0.0
 1 C  dyz             0.0       0.2       0.0       0.3       0.0       0.5
 1 C  dx2y2           0.0       0.1       0.4       0.0       0.2       0.1
 1 C  dxy             0.0       0.0       0.1       0.0       0.2       0.0
 2 C  s               0.1       4.1       1.1       1.9       2.1       7.3
 2 C  pz              0.3       1.3       1.0       0.9       3.1       2.3
 2 C  px              0.0       2.9       7.5       2.5       6.3       2.6
 2 C  py              0.1       0.0       2.8       0.7       8.1       4.1
 2 C  dxz             0.0       0.1       0.3       0.1       0.3       0.0
 2 C  dyz             0.1       0.0       0.6       0.1       0.2       0.0
 2 C  dx2y2           0.0       0.2       0.4       0.5       0.1       0.3
 2 C  dxy             0.0       0.1       0.0       0.0       0.0       0.3
 3 C  s               0.0      15.5       5.6       1.7       1.8       0.1
 3 C  pz              0.1       0.2       0.0       0.3       0.8       1.3
 3 C  px              0.0       2.6       0.8       0.4       2.0       1.3
 3 C  py              0.0       1.0       0.5       7.3       3.6       3.0
 3 C  dz2             0.4       0.0       0.1       0.3       0.2       0.0
 3 C  dxz             0.3       0.0       0.0       0.0       0.3       0.0
 3 C  dyz             1.4       0.0       0.0       0.1       0.2       0.0
 3 C  dx2y2           0.3       0.0       0.0       0.0       0.0       0.0
 3 C  dxy             0.1       0.0       0.0       0.4       0.1       0.1
 4 C  s               0.0      17.5       0.2       6.1       0.7       2.8
 4 C  pz             34.2       0.3       0.5       1.4       1.3       2.0
 4 C  px              2.1       1.0       0.2       0.8       3.3       0.4
 4 C  py              3.9       1.0       1.4       1.5       3.1       0.4
 4 C  dz2             0.0       0.4       0.1       0.1       0.0       0.2
 4 C  dxz             0.6       0.0       0.0       0.1       0.1       0.0
 4 C  dyz             0.7       0.1       0.0       0.0       0.0       0.0
 4 C  dx2y2           0.2       0.2       0.0       0.0       0.0       0.0
 4 C  dxy             0.0       1.7       0.1       0.4       0.1       0.3
 5 C  s               0.0      18.0       1.2       5.5       5.4       9.6
 5 C  pz             35.3       0.1       0.1       1.6       0.3       0.1
 5 C  px              2.2       0.8       1.4       4.1       1.4       7.8
 5 C  py              3.9       0.2       0.1       3.1       1.6      13.9
 5 C  dz2             0.1       0.0       0.1       0.7       0.2       0.3
 5 C  dxz             0.7       0.0       0.0       0.1       0.0       0.0
 5 C  dyz             1.0       0.0       0.0       0.2       0.0       0.0
 5 C  dx2y2           0.3       0.0       0.0       0.1       0.5       0.0
 5 C  dxy             0.0       0.1       0.2       2.2       0.4       1.0
 6 H  s               0.0       0.0       2.4       1.3       0.8       0.6
 6 H  pz              0.0       0.1       0.0       0.1       0.1       0.1
 6 H  px              0.0       0.1       0.1       0.7       0.0       0.0
 6 H  py              0.0       0.0       1.5       0.3       0.5       0.1
 7 H  s               0.0       0.0       3.0       0.8       4.3       0.5
 7 H  pz              0.0       0.0       1.0       0.0       0.3       0.0
 7 H  py              0.0       0.0       1.0       0.0       0.4       0.1
 8 H  s               0.0       0.2       3.4       1.2       0.9       0.2
 8 H  pz              0.0       0.0       1.7       0.4       0.1       0.0
 8 H  px              0.0       0.1       0.2       0.0       0.3       0.1
 8 H  py              0.0       0.0       0.1       0.3       0.2       0.1
 9 H  s               0.0       0.6       1.0       0.8       1.0       0.0
 9 H  pz              0.0       0.1       0.6       0.0       1.0       0.1
 9 H  px              0.0       0.0       0.4       0.3       0.6       0.0
 9 H  py              0.0       0.3       0.0       0.1       0.0       0.1
10 H  s               0.1       1.7       2.2       0.4       2.1       0.5
10 H  pz              0.0       0.1       0.0       0.6       0.2       0.2
10 H  px              0.0       0.8       0.1       0.4       0.0       0.0
10 H  py              0.0       0.2       1.5       0.2       0.2       0.4
11 H  s               0.2       1.8       0.7       0.5       0.3       1.7
11 H  pz              0.0       0.5       0.1       0.0       0.0       1.0
11 H  px              0.0       0.3       0.3       0.1       0.2       0.2
11 H  py              0.0       0.2       0.5       0.3       0.1       0.1
12 H  s               0.0       0.9       0.3       1.6       0.4       3.2
12 H  pz              0.0       0.2       0.1       0.2       0.3       0.0
12 H  px              0.0       0.0       0.4       0.0       0.5       0.2
12 H  py              0.0       0.4       0.0       0.8       0.3       1.9
13 H  s               4.0       1.5       1.3       0.2       1.5       0.1
13 H  pz              0.1       1.0       0.6       0.0       0.6       0.0
13 H  px              0.1       0.1       0.0       0.0       0.3       0.0
13 H  py              0.2       0.1       0.0       0.4       0.2       0.0
14 H  s               3.7       1.8       0.3       0.4       2.9       0.3
14 H  pz              0.0       0.4       0.1       0.1       0.9       0.1
14 H  px              0.0       0.2       0.0       0.0       0.0       0.0
14 H  py              0.3       0.8       0.1       0.2       0.1       0.1
15 H  s               0.0       0.7       1.0      11.1       3.2       8.2
15 H  pz              1.6       0.0       0.0       0.1       0.0       0.1
15 H  px              0.1       0.0       0.1       0.9       0.0       1.5
15 H  py              0.2       0.1       0.1       1.6       0.5       2.1

                     30        31        32        33        34        35   
                   0.15025   0.15665   0.16493   0.18338   0.19395   0.20454
                   0.00000   0.00000   0.00000   0.00000   0.00000   0.00000
                  --------  --------  --------  --------  --------  --------
 0 C  s               0.1       8.2       0.6       0.5       0.5       0.6
 0 C  pz              6.8       5.2       2.5       0.5       0.3       9.8
 0 C  px              0.3      29.5       0.6       1.0       1.4       2.6
 0 C  py              0.7       1.8       2.3      14.0      10.8       0.4
 0 C  dz2             0.0       0.3       0.5       0.0       0.9       0.8
 0 C  dxz             0.0       0.5       0.1       0.0       0.0       0.1
 0 C  dyz             0.0       0.0       0.0       0.1       0.5       0.2
 0 C  dx2y2           0.0       0.7       0.1       0.1       0.3       0.4
 0 C  dxy             0.3       0.5       0.4       0.0       1.6       0.0
 1 C  s               3.0       9.1       1.3       1.1       0.9       0.4
 1 C  pz              5.2       0.9       8.5       1.0       0.8       2.7
 1 C  px              1.3       1.6       0.6       0.7       0.0       1.2
 1 C  py              1.9       0.1       5.1       2.5       2.4       4.0
 1 C  dz2             0.6       0.0       0.3       0.7       0.2       0.9
 1 C  dxz             0.3       0.0       0.1       0.0       0.0       0.0
 1 C  dyz             0.0       0.0       0.9       0.1       0.4       0.0
 1 C  dx2y2           0.0       0.1       0.0       0.2       0.3       0.3
 1 C  dxy             0.1       0.1       1.4       0.1       0.0       0.2
 2 C  s               5.6       0.1       4.8       1.3       1.0       0.3
 2 C  pz             14.2       3.7       4.4       0.9       1.8       1.6
 2 C  px              1.4       0.3       0.8       2.2       0.3       2.9
 2 C  py              3.1       2.0       2.6       3.4       0.9       0.1
 2 C  dz2             1.1       0.2       0.1       0.7       0.3       0.2
 2 C  dxz             0.0       0.1       0.3       0.2       0.2       0.3
 2 C  dyz             0.0       0.6       0.0       0.0       0.0       0.4
 2 C  dx2y2           0.1       0.1       0.0       0.1       0.1       0.0
 2 C  dxy             0.4       0.4       1.0       0.1       0.1       0.1
 3 C  s               1.6       1.9       0.7       5.6       0.2       0.1
 3 C  pz              8.9       1.2       3.5       0.1       6.0      17.8
 3 C  px              3.5       1.9      14.7       0.7       2.1       4.1
 3 C  py              3.4       1.3       2.7       3.0      14.9       3.5
 3 C  dz2             0.0       0.8       0.3       0.0       1.1       0.7
 3 C  dxz             0.4       0.0       0.0       0.0       0.0       0.4
 3 C  dyz             0.3       0.0       0.0       0.0       0.3       0.2
 3 C  dx2y2           0.0       0.0       0.1       0.0       0.1       0.1
 3 C  dxy             0.3       0.0       1.6       0.0       0.8       0.2
 4 C  s               0.5       2.3       1.0       4.0       3.2       0.8
 4 C  pz              1.5       0.7       1.1       0.1       0.9       5.7
 4 C  px              0.4       1.7       2.5       2.2       0.3       1.3
 4 C  py              0.7       0.2       4.0       2.6       1.7       0.7
 4 C  dxy             0.0       0.0       0.0       0.1       0.5       0.2
 5 C  s               1.4       1.2       0.1      15.7       0.1       0.3
 5 C  pz              0.8       0.2       0.5       0.2       1.2       2.2
 5 C  px              0.1       0.0       4.2       5.5       1.8       0.2
 5 C  py              3.5       1.8       0.6       3.0       2.3       1.1
 5 C  dz2             0.0       0.2       0.0       0.2       0.0       0.0
 5 C  dx2y2           0.1       0.1       0.1       0.1       0.0       0.0
 5 C  dxy             0.1       0.4       0.0       0.7       0.0       0.0
 6 H  s               0.8       0.8       0.5       0.2      14.7       0.2
 6 H  pz              0.0       0.2       0.0       0.1       0.2       0.3
 6 H  px              0.2       0.5       0.1       0.2       0.8       0.3
 6 H  py              0.1       0.0       0.2       0.1       1.7       0.1
 7 H  s               0.8       1.8       0.2       0.3       4.7       0.2
 7 H  pz              0.0       0.0       0.1       0.0       0.8       0.1
 7 H  px              0.0       1.1       0.5       0.0       0.6       0.1
 7 H  py              0.0       0.6       0.1       0.1       0.0       0.1
 8 H  s               0.2       0.6       1.4       0.8       0.9       6.7
 8 H  pz              0.2       0.2       0.6       0.3       0.6       2.2
 8 H  px              0.0       0.4       0.0       0.0       0.1       0.0
 8 H  py              0.0       0.0       0.0       0.2       1.3       0.2
 9 H  s               4.3       0.2       4.8       1.4       0.0       2.1
 9 H  pz              2.0       0.4       0.7       0.1       0.0       0.8
 9 H  px              0.2       0.0       0.0       0.0       0.0       0.0
 9 H  py              0.0       0.0       1.5       0.0       0.5       0.1
10 H  s               0.5       0.0       2.2       3.0       1.0       1.0
10 H  pz              0.1       0.0       0.7       0.1       0.1       0.0
10 H  px              0.1       0.2       0.4       0.1       0.0       0.4
10 H  py              0.0       0.1       0.2       1.1       0.3       0.0
11 H  s               5.2       1.6       0.1       1.2       0.3       0.7
11 H  pz              3.6       0.1       0.0       0.2       0.0       0.0
11 H  px              0.1       0.0       0.0       0.0       0.2       0.1
11 H  py              0.0       0.6       0.1       0.0       0.2       0.0
12 H  s               2.2       0.5       0.6       5.0       0.4       1.0
12 H  pz              0.0       0.4       0.0       0.1       0.0       0.1
12 H  px              0.0       0.0       0.1       0.5       0.1       0.2
12 H  py              0.0       0.1       0.1       1.3       0.2       0.2
13 H  s               1.5       3.7       1.3       1.3       1.9       4.1
[...]
15 H  px              0.3       1.8       0.2       1.7       0.1       0.1
15 H  py              0.3       2.3       0.4       3.5       0.2       0.1

                    156       157       158       159       160       161   
                   3.66922   4.25842  21.47700  21.88269  21.98966  22.00662
                   0.00000   0.00000   0.00000   0.00000   0.00000   0.00000
                  --------  --------  --------  --------  --------  --------
 0 C  s               0.1       0.0       0.0      66.9      14.6       4.1
 0 C  px              0.6       0.0       0.0       0.0       0.0       0.0
 0 C  py              0.2       0.0       0.0       0.0       0.0       0.0
 0 C  dz2             0.6       0.0       0.0       0.0       0.0       0.0
 0 C  dx2y2           0.8       0.0       0.0       0.0       0.0       0.0
 0 C  dxy             0.9       0.0       0.0       0.0       0.0       0.0
 1 C  s               0.1       0.0       0.2      14.3      81.0       1.7
 1 C  pz              0.8       0.0       0.0       0.0       0.0       0.0
 1 C  px              2.9       0.0       0.0       0.0       0.0       0.0
 1 C  py              3.7       0.0       0.0       0.0       0.0       0.0
 1 C  dz2             8.6       0.0       0.0       0.0       0.0       0.0
 1 C  dyz             0.7       0.0       0.0       0.0       0.0       0.0
 1 C  dx2y2           1.1       0.0       0.0       0.0       0.0       0.0
 1 C  dxy             6.7       0.0       0.0       0.0       0.0       0.0
 2 C  s               0.0       0.1       0.3      17.0       0.1       0.1
 2 C  pz              0.7       0.0       0.0       0.0       0.0       0.0
 2 C  px              0.4       0.1       0.0       0.0       0.0       0.0
 2 C  py              1.8       0.0       0.0       0.0       0.0       0.0
 2 C  dz2             5.7       0.0       0.0       0.0       0.0       0.0
 2 C  dyz             0.5       0.0       0.0       0.0       0.0       0.0
 2 C  dx2y2           0.3       0.0       0.0       0.0       0.0       0.0
 2 C  dxy             2.7       0.0       0.0       0.0       0.0       0.0
 3 C  s               0.1       0.8       0.8       0.8       3.6      84.9
 3 C  pz              1.1       0.0       0.0       0.0       0.0       0.0
 3 C  px              0.3       0.9       0.0       0.0       0.0       0.0
 3 C  py              0.0       1.4       0.1       0.0       0.0       0.0
 3 C  dz2             2.3       0.6       0.0       0.0       0.0       0.0
 3 C  dyz             0.4       0.0       0.0       0.0       0.0       0.0
 3 C  dx2y2           0.4       0.1       0.0       0.0       0.0       0.0
 3 C  dxy             0.0       1.8       0.0       0.0       0.0       0.0
 4 C  s               0.2       8.6      59.1       0.0       0.4       1.2
 4 C  px              0.0       2.3       0.0       0.0       0.0       0.0
 4 C  py              0.1       4.0       0.0       0.0       0.0       0.1
 4 C  dz2             0.3       2.2       0.0       0.0       0.0       0.0
 4 C  dxz             0.0       0.1       0.0       0.0       0.0       0.0
 4 C  dyz             0.0       0.3       0.0       0.0       0.0       0.0
 4 C  dx2y2           0.0       0.6       0.0       0.0       0.0       0.0
 4 C  dxy             0.6       6.3       0.0       0.0       0.0       0.0
 5 C  s               0.2      11.6      39.3       0.5       0.2       7.5
 5 C  px              0.1       0.3       0.0       0.0       0.0       0.0
 5 C  py              0.2       0.6       0.0       0.0       0.0       0.0
 5 C  dz2             0.0       7.3       0.0       0.0       0.0       0.0
 5 C  dxz             0.0       0.5       0.0       0.0       0.0       0.0
 5 C  dyz             0.0       0.8       0.0       0.0       0.0       0.0
 5 C  dx2y2           0.0       1.7       0.0       0.0       0.0       0.0
 5 C  dxy             0.2      21.5       0.0       0.0       0.0       0.0
 6 H  s               0.7       0.0       0.0       0.0       0.0       0.0
 6 H  px              0.8       0.0       0.0       0.0       0.0       0.0
 6 H  py              1.0       0.0       0.0       0.0       0.0       0.0
 8 H  pz              0.2       0.0       0.0       0.0       0.0       0.0
 9 H  s               2.6       0.0       0.0       0.0       0.0       0.0
 9 H  pz              5.8       0.0       0.0       0.0       0.0       0.0
10 H  s               6.1       0.0       0.0       0.0       0.0       0.0
10 H  px              3.8       0.0       0.0       0.0       0.0       0.0
10 H  py             11.7       0.0       0.0       0.0       0.0       0.0
11 H  s               1.8       0.0       0.0       0.0       0.0       0.0
11 H  pz              4.2       0.0       0.0       0.0       0.0       0.0
12 H  s               2.4       0.0       0.0       0.0       0.0       0.0
12 H  px              1.6       0.0       0.0       0.0       0.0       0.0
12 H  py              4.4       0.0       0.0       0.0       0.0       0.0
13 H  s               1.1       0.1       0.0       0.0       0.0       0.0
13 H  pz              2.5       0.1       0.0       0.0       0.0       0.0
13 H  py              0.5       0.0       0.0       0.0       0.0       0.0
14 H  s               0.3       0.1       0.0       0.0       0.0       0.0
14 H  pz              0.2       0.1       0.0       0.0       0.0       0.0
14 H  px              0.1       0.1       0.0       0.0       0.0       0.0
14 H  py              0.4       0.0       0.0       0.0       0.0       0.0
15 H  s               0.1       9.8       0.0       0.0       0.0       0.0
15 H  pz              0.0       0.2       0.0       0.0       0.0       0.0
15 H  px              0.1       5.4       0.0       0.0       0.0       0.0
15 H  py              0.2       9.2       0.0       0.0       0.0       0.0

                    162       163   
                  22.02089  22.74366
                   0.00000   0.00000
                  --------  --------
 0 C  s              14.2       0.0
 1 C  s               2.5       0.0
 2 C  s              81.7       0.5
 3 C  s               1.2       8.2
 4 C  s               0.0      38.9
 4 C  py              0.0       0.1
 4 C  dxy             0.0       0.1
 5 C  s               0.3      51.4
 5 C  dxy             0.0       0.2


                      *****************************
                      * MAYER POPULATION ANALYSIS *
                      *****************************

  NA   - Mulliken gross atomic population
  ZA   - Total nuclear charge
  QA   - Mulliken gross atomic charge
  VA   - Mayer's total valence
  BVA  - Mayer's bonded valence
  FA   - Mayer's free valence

  ATOM       NA         ZA         QA         VA         BVA        FA
  0 C      6.5078     6.0000    -0.5078     3.7995     3.7995     0.0000
  1 C      6.2550     6.0000    -0.2550     3.6488     3.6488     0.0000
  2 C      6.2840     6.0000    -0.2840     3.6342     3.6342    -0.0000
  3 C      6.3798     6.0000    -0.3798     3.7045     3.7045     0.0000
  4 C      6.0137     6.0000    -0.0137     3.3643     3.3643     0.0000
  5 C      6.2308     6.0000    -0.2308     3.7731     3.7731    -0.0000
  6 H      0.8472     1.0000     0.1528     0.9612     0.9612    -0.0000
  7 H      0.8431     1.0000     0.1569     0.9592     0.9592     0.0000
  8 H      0.8463     1.0000     0.1537     0.9608     0.9608    -0.0000
  9 H      0.8516     1.0000     0.1484     0.9583     0.9583     0.0000
 10 H      0.8487     1.0000     0.1513     0.9605     0.9605     0.0000
 11 H      0.8450     1.0000     0.1550     0.9599     0.9599    -0.0000
 12 H      0.8357     1.0000     0.1643     0.9564     0.9564    -0.0000
 13 H      0.8048     1.0000     0.1952     0.9481     0.9481     0.0000
 14 H      0.8092     1.0000     0.1908     0.9465     0.9465     0.0000
 15 H      0.7973     1.0000     0.2027     0.9632     0.9632    -0.0000

  Mayer bond orders larger than 0.100000
B(  0-C ,  1-C ) :   0.9024 B(  0-C ,  6-H ) :   0.9818 B(  0-C ,  7-H ) :   0.9718 
B(  0-C ,  8-H ) :   0.9795 B(  1-C ,  2-C ) :   0.9211 B(  1-C ,  9-H ) :   0.9692 
B(  1-C , 10-H ) :   0.9647 B(  2-C ,  3-C ) :   0.8731 B(  2-C , 11-H ) :   0.9765 
B(  2-C , 12-H ) :   0.9691 B(  3-C ,  4-C ) :   0.9470 B(  3-C , 13-H ) :   1.0023 
B(  3-C , 14-H ) :   0.9593 B(  4-C ,  5-C ) :   2.5884 B(  5-C , 15-H ) :   1.0547 


-------
TIMINGS
-------

Total SCF time: 0 days 0 hours 0 min 17 sec 

Total time                  ....      17.406 sec
Sum of individual times     ....      16.975 sec  ( 97.5%)

SCF preparation             ....       0.300 sec  (  1.7%)
Fock matrix formation       ....      15.929 sec  ( 91.5%)
  Startup                   ....       0.046 sec  (  0.3% of F)
  Split-RI-J                ....       2.079 sec  ( 13.0% of F)
  XC integration            ....      10.525 sec  ( 66.1% of F)
    Basis function eval.    ....       1.942 sec  ( 18.5% of XC)
    Density eval.           ....       3.160 sec  ( 30.0% of XC)
    XC-Functional eval.     ....       1.531 sec  ( 14.5% of XC)
    XC-Potential eval.      ....       3.138 sec  ( 29.8% of XC)
  CPCM terms                ....       2.851 sec  ( 17.9% of F)
Diagonalization             ....       0.000 sec  (  0.0%)
Density matrix formation    ....       0.173 sec  (  1.0%)
Total Energy calculation    ....       0.039 sec  (  0.2%)
Population analysis         ....       0.088 sec  (  0.5%)
Orbital Transformation      ....       0.046 sec  (  0.3%)
Orbital Orthonormalization  ....       0.000 sec  (  0.0%)
DIIS solution               ....       0.286 sec  (  1.6%)
  MO trafo                  ....       0.000 sec  (  0.0 % of DIIS)
  Orb grad                  ....       0.000 sec  (  0.0 % of DIIS)
  Energy W gradient         ....       0.000 sec  (  0.0 % of DIIS)
  DIIS error                ....       0.005 sec  (  1.8 % of DIIS)
  DIIS work                 ....       0.245 sec  ( 85.5 % of DIIS)
  Form Q                    ....       0.000 sec  (  0.0 % of DIIS)
  Form QpQm                 ....       0.000 sec  (  0.0 % of DIIS)
  Exp/Cayley                ....       0.000 sec  (  0.0 % of DIIS)
  Orb update                ....       0.000 sec  (  0.0 % of DIIS)
  Wake-sleep                ....       0.013 sec  (  4.4 % of DIIS)
SOSCF solution              ....       0.113 sec  (  0.7%)
  MO trafo                  ....       0.046 sec  ( 40.6 % of SOSCF)
  Orb grad                  ....       0.002 sec  (  1.4 % of SOSCF)
  Rot update                ....       0.040 sec  ( 35.1 % of SOSCF)
  Step                      ....       0.026 sec  ( 22.7 % of SOSCF)
Finished LeanSCF after  17.5 sec

Maximum memory used throughout the entire LEANSCF-calculation: 21.3 MB


-------------------------------------------------------------------------------
                          DFT DISPERSION CORRECTION                            
                                                                               
                                DFTD4 V3.4.0                                   
-------------------------------------------------------------------------------
The R2SCAN3C composite method is recognized
Using three-body term ABC
Active option DFTDOPT                   ...         5   

-------------------------   ----------------
Dispersion correction           -0.003764404
-------------------------   ----------------

------------------   -----------------
gCP correction             0.005936152
------------------   -----------------

-------------------------   --------------------
FINAL SINGLE POINT ENERGY      -234.510209684854
-------------------------   --------------------


------------------------------------------------------------------------------
                              ORCA PROPERTY CALCULATIONS
------------------------------------------------------------------------------

GBWName                                 ... sp_solv.gbw
Number of atoms                         ...     16
Number of basis functions               ...    164
Max core memory                         ...   1024 MB

Electric properties:
Dipole moment                           ... YES
Quadrupole moment                       ...  NO
Static polarizability (Dipole/Dipole)   ...  NO
Static polarizability (Dipole/Quad.)    ...  NO
Static polarizability (Quad./Quad.)     ...  NO
Static polarizability (Velocity)        ...  NO

Atomic electric properties:
Dipole moment                           ...  NO
Quadrupole moment                       ...  NO
Static polarizability                   ...  NO

Choice of electric origin               ... Center of mass
Position of electric origin             ...    -0.000006     0.000000    -0.000000

General magnetic properties:
Magnetizability                         ...  NO

EPR properties:
g-Tensor (aka g-matrix)                 ...  NO
Zero-Field splitting spin-orbit         ...  NO
Zero-field splitting spin-spin          ...  NO
Hyperfine couplings                     ...  NO (   0 nuclei)
Quadrupole couplings                    ...  NO (   0 nuclei)
Contact density                         ...  NO (   0 nuclei)

NMR properties:
Chemical shifts                         ...  NO (   0 nuclei)
Spin-rotation constants                 ...  NO (   0 nuclei)
Spin-spin couplings                     ...  NO (   0 nuclei,    0 pairs)

Choice of magnetic origin               ... GIAO
Position of magnetic origin             ...     0.000000     0.000000     0.000000

Properties with geometric perturbations:
SCF Hessian                             ...  NO
IR spectrum                             ...  NO
VCD spectrum                            ...  NO
X-ray spectroscopy properties:
SCF XES/XAS/RIXS spectra                ...  NO


-------------
DIPOLE MOMENT
-------------

Method             : SCF
Type of density    : Electron Density
Multiplicity       :   1
Irrep              :   0
Energy             :  -234.5123814324798843 Eh
Relativity type    : 
Basis              : AO
                                X                 Y                 Z
Electronic contribution:      6.544776750      -0.130986892       0.104762953
Nuclear contribution   :     -6.909772158       0.495211153      -0.059259321
                        -----------------------------------------
Total Dipole Moment    :     -0.364995409       0.364224260       0.045503632
                        -----------------------------------------
Magnitude (a.u.)       :      0.517640358
Magnitude (Debye)      :      1.315737228



--------------------
Rotational spectrum 
--------------------
 
Rotational constants in cm-1:             0.247492             0.060415             0.052295 
Rotational constants in MHz :          7419.631597          1811.199649          1567.771539 

Dipole components along the rotational axes: 
x,y,z [a.u.] :    -0.364995    -0.364224     0.045504 
x,y,z [Debye]:    -0.927744    -0.925785     0.115661 

 

Dipole moment calculation done in   0.0 sec 

Maximum memory used throughout the entire PROP-calculation: 9.5 MB

--------------------------------
SUGGESTED CITATIONS FOR THIS RUN
--------------------------------

Below you find a list of papers that are relevant to this ORCA run
We neither can nor want to force you to cite these papers, but we appreciate if you do
You receive ORCA, which is the product of decades of hard work by many enthusiastic individuals, for free
The only thing we kindly ask in return is that you cite our papers,
We deeply appreciate it, if you show your appreciation for ORCA by not just citing the generic ORCA reference.

Please note that relegating all ORCA citations to the supporting information does *not* help us.
SI sections are not indexed - citations you put there will not count into any citation statistics
But we need these citations in order to attract the funding resources that allow us to do what we are doing

Therefore, if you are a happy ORCA user, please consider citing a few of the papers listed below in the main body of your paper

In addition to the list printed below, the program has created the file sp_solv.bibtex that contains the list in bibtex format
You can import this file easily into all common literature databanks and citation aid programs


List of essential papers. We consider these as the minimum necessary citations

  1. Neese,F.
     Software update: the ORCA program system, version 5.0
     WIRES Comput. Molec. Sci., 2022 12(1)e1606
     doi.org/10.1002/wcms.1606
  2. Grimme,S.; Hansen,A.; Ehlert,S.; Mewes,J.
     r2SCAN-3c: A 'Swiss army knife' composite electronic-structure method
     J. Chem. Phys., 2021 154 064103
     doi.org/10.1063/5.0040021

List of papers to cite with high priority. The work reported in these papers was absolutely
necessary for this run to complete.
Our perspective: the developers of density functionals and basis sets usually get cited in chemistry papers
Good! But without the algorithms to do something with them, the functionals or basis sets would not do anything.
Hence, in our opinion, the algorithm design and method developments papers are equally worthy of getting cited

  1. Neese,F.
     An improvement of the resolution of the identity approximation for the formation of the Coulomb matrix
     J. Comp. Chem., 2003 24(14)1740-1747
     doi.org/10.1002/jcc.10318
  2. Garcia-Rates,M.; Neese,F.
     Effect of the Solute Cavity on the Solvation Energy and its Derivatives within the Framework of the Gaussian Charge Scheme
     J. Comput. Chem., 2020 41 922-939
     doi.org/10.1002/jcc.26139
  3. Neese,F.
     The SHARK Integral Generation and Digestion System
     J. Comp. Chem., 2022  1-16
     doi.org/10.1002/jcc.26942
  4. Lehtola,S.; Steigemann,C.; Oliveira,M.; Marques,M.
     Recent developments in Libxc - A comprehensive library of functionals for density functional theory
     Software X, 2018 7 
     doi.org/10.1016/j.softx.2017.11.002
  5. Caldeweyher,E.; Bannwarth,C.; Grimme,S.
     Extension of the D3 dispersion coefficient model
     J. Chem. Phys., 2017 147 034112-XXXX
     doi.org/10.1063/1.4993215
  6. Caldeweyher,E.; Ehlert,S.; Hansen,A.; Neugebauer,H.; Spicher,S.; Bannwarth,C.; Grimme,S.
     A generally applicable atomic-charge dependent London dispersion correction
     J. Chem. Phys., 2019 150 154122-XXXX
     doi.org/10.1063/1.5090222
  7. Caldeweyher,E.; Mewes,J.; Ehlert,S.; Grimme,S.
     Extension and evaluation of the D4 London-dispersion model for periodic systems
     Phys. Chem. Chem. Phys., 2020 22(16)8499-8512
     doi.org/10.1039/D0CP00502A

List of suggested additional citations. These are papers that are important in the 'surrounding' of 
of this run, or papers that preceded the highly important papers. If you like your results we are grateful for a citation.

  1. Neese,F.
     The ORCA program system
     WIRES Comput. Molec. Sci., 2012 2(1)73-78
     doi.org/10.1002/wcms.81
  2. Neese,F.
     Software update: the ORCA program system, version 4.0
     WIRES Comput. Molec. Sci., 2018 8(1)1-6
     doi.org/10.1002/wcms.1327
  3. Neese,F.; Wennmohs,F.; Becker,U.; Riplinger,C.
     The ORCA quantum chemistry program package
     J. Chem. Phys., 2020 152 Art. No. L224108
     doi.org/10.1063/5.0004608

List of optional additional citations

  1. Neese,F.
     Approximate second-order SCF convergence for spin unrestricted wavefunctions
     Chem. Phys. Lett., 2000 325(1-3)93-98
     doi.org/10.1016/s0009-2614(00)00662-x

Timings for individual modules:

Sum of individual times          ...       18.914 sec (=   0.315 min)
Startup calculation              ...        0.966 sec (=   0.016 min)   5.1 %
SCF iterations                   ...       17.841 sec (=   0.297 min)  94.3 %
Property calculations            ...        0.107 sec (=   0.002 min)   0.6 %
                             ****ORCA TERMINATED NORMALLY****
TOTAL RUN TIME: 0 days 0 hours 0 minutes 19 seconds 588 msec
