18
 energy: -20.894040780894 gnorm: 0.028144016218 xtb: 6.7.1 (edcfbbe)
C           -1.75488823793217        0.97461299485769       -0.31882930404130
C           -1.03182870685314        0.20627392856106        0.78503709171351
C            0.12964425935354       -0.66424936069177        0.30130682256879
C            1.20746249334074        0.08804650895598       -0.47616943176822
C            1.83102509194560        1.24163438765281        0.30493662575146
O           -0.35558195540894       -1.77868095642171       -0.48903087043831
H           -2.12889100943722        0.30549876384029       -1.10230928021590
H           -2.61871663171742        1.50761578962854        0.09059027033569
H           -1.10377966494043        1.71651741160891       -0.79195947915178
H           -0.64985260492811        0.90897637703418        1.53535197868780
H           -1.74031666014253       -0.44792105047151        1.30724689766471
H            0.59074517984912       -1.13458599642691        1.17893392976576
H            1.98481123788433       -0.63462837670801       -0.75114111530436
H            0.77624698606236        0.46017740996722       -1.41521175833506
H            2.66601646574697        1.67790135110554       -0.25189459409015
H            1.10680496152479        2.03939825799839        0.49649245935948
H            2.21709922477225        0.89874295263086        1.27162091455752
H           -0.68295496055864       -1.41634283367357       -1.32315799998204
18
 energy: -20.894895224026 gnorm: 0.013777616329 xtb: 6.7.1 (edcfbbe)
C           -1.75772931658627        0.97644160162351       -0.32014247751372
C           -1.03718218353597        0.20935852442767        0.78150725727158
C            0.12979348624137       -0.66008247757361        0.29941399161043
C            1.20765508530042        0.09631873292633       -0.48039890717849
C            1.83416547574933        1.23990277664950        0.30510587317985
O           -0.34246129878826       -1.77280381548102       -0.47375320361868
H           -2.12931485176417        0.30280912120244       -1.09218394557228
H           -2.61358369859113        1.50483784805662        0.09737103102413
H           -1.10253016953573        1.71139181576062       -0.78522223108774
H           -0.65680872415764        0.91028253409601        1.52810151321451
H           -1.74932419571356       -0.44936861981699        1.28706041454787
H            0.58736912772218       -1.13429182175489        1.17596171566565
H            1.98394115286242       -0.62490415648281       -0.75160403570892
H            0.77999798511492        0.47899562187477       -1.41203036482235
H            2.66485255481021        1.66654772819254       -0.25481081631321
H            1.11159567026857        2.03162916828601        0.49354547393821
H            2.21385073229246        0.88590876111245        1.26336243771206
H           -0.68124136312804       -1.42398578365115       -1.30947056927128
18
 energy: -20.895095642653 gnorm: 0.003638876850 xtb: 6.7.1 (edcfbbe)
C           -1.75921879013773        0.97834169285957       -0.32373791112544
C           -1.04012528678356        0.21015818147550        0.77963486283896
C            0.12945034339957       -0.66092508737119        0.29599433635593
C            1.20621502290710        0.10287816365428       -0.48348861174622
C            1.83852854597505        1.24019780975596        0.30764898456040
O           -0.33264881138899       -1.77227268568660       -0.46314859299474
H           -2.13277474856329        0.30335160544602       -1.08908542368030
H           -2.60933743242344        1.50693053688130        0.09835735679975
H           -1.10268079056693        1.70851030589510       -0.78745410906476
H           -0.66181876772020        0.90760880984652        1.52672794561844
H           -1.75196624416622       -0.45412386305178        1.27482800140465
H            0.59033102851252       -1.12686626867018        1.17544297742187
H            1.97839674043148       -0.61918592284557       -0.75863158687177
H            0.77538816079193        0.49206134983190       -1.40800601833140
H            2.66725903661463        1.66277446447214       -0.25322661052040
H            1.11937985400472        2.03033514086935        0.49925095895038
H            2.21619709509072        0.87718065168677        1.25972481880801
H           -0.68752948741623       -1.43796732560109       -1.29901822134574
18
 energy: -20.895137297422 gnorm: 0.001967983161 xtb: 6.7.1 (edcfbbe)
C           -1.76046408674659        0.97897666290989       -0.32581565861507
C           -1.04193291586325        0.20913865092934        0.77827116256366
C            0.13039758984301       -0.66127371150887        0.29504809719736
C            1.20503493706667        0.10628609264501       -0.48621238426842
C            1.84152116713716        1.23917725959819        0.30951423488064
O           -0.32663090373586       -1.77403768986227       -0.45782850281328
H           -2.13639785704510        0.30403546383099       -1.09004067826695
H           -2.60860643821635        1.51043499942269        0.09711496242986
H           -1.10218823857799        1.70693505197555       -0.79054771768088
H           -0.66584798466790        0.90547654915065        1.52693486057974
H           -1.75392769114415       -0.45706512611254        1.27030289276066
H            0.59507562475707       -1.11861231256354        1.17774831853749
H            1.97536760292983       -0.61532548593762       -0.76777523129907
H            0.77048040540886        0.50029017299169       -1.40673635315527
H            2.67019100412710        1.66226783097117       -0.25130609332844
H            1.12425444485311        2.03001175751297        0.50627785271674
H            2.22017491824250        0.87026959383393        1.25902968705311
H           -0.69345610980701       -1.44799820033923       -1.29216629221429
18
 energy: -20.895167513125 gnorm: 0.003310885798 xtb: 6.7.1 (edcfbbe)
C           -1.76242178686573        0.97912545151275       -0.32977075110975
C           -1.04533663534471        0.20689212311375        0.77493202623546
C            0.13259310880146       -0.66001413793732        0.29418190576000
C            1.20191516798555        0.11333911010446       -0.49109814254858
C            1.84800427701869        1.23614191623410        0.31264366734166
O           -0.31523872548388       -1.78022196443625       -0.44777817065005
H           -2.14317110218867        0.30582257270790       -1.09432416699076
H           -2.60803435068181        1.51619416729400        0.09345551702871
H           -1.10143197247860        1.70434314521672       -0.79677427908324
H           -0.67476478218337        0.90220122561787        1.52773074393134
H           -1.75736349965441       -0.46279193020830        1.26276904813355
H            0.60432740760856       -1.10176098996332        1.18219224048052
H            1.96810960520115       -0.60738258050616       -0.78782457102406
H            0.75970478175627        0.51762443971208       -1.40400741448115
H            2.67647247333938        1.66289770518038       -0.24739829383868
H            1.13471058451641        2.02865587132039        0.52267853798828
H            2.23056072518212        0.85567751398234        1.25718009262593
H           -0.70558980796729       -1.46775607949738       -1.27697483272160
18
 energy: -20.895177787616 gnorm: 0.002061769417 xtb: 6.7.1 (edcfbbe)
C           -1.76283428181226        0.97868946321478       -0.33054620701552
C           -1.04609067394118        0.20662820773020        0.77387366905139
C            0.13330401325639       -0.65838583327314        0.29490164234265
C            1.20119949361954        0.11480429227837       -0.49165653368612
C            1.84958844460859        1.23505007694062        0.31294338490199
O           -0.31315302126738       -1.78129868844511       -0.44588588935581
H           -2.14334829742481        0.30597379401021       -1.09583355526738
H           -2.60877422178726        1.51549445616060        0.09232658690263
H           -1.10212021203762        1.70440435538176       -0.79726382419631
H           -0.67711139047035        0.90218375781612        1.52750289346460
H           -1.75784637096702       -0.46386496603279        1.26123886545625
H            0.60541498533470       -1.09922737877179        1.18281325867492
H            1.96600432066877       -0.60605024660555       -0.79153707544533
H            0.75777005455681        0.52128214668405       -1.40299054551296
H            2.67718910450694        1.66294200430232       -0.24753080000287
H            1.13726038018248        2.02749094691326        0.52650737067710
H            2.23399029796273        0.85252359170943        1.25591662953595
H           -0.70739715642799       -1.46965242056534       -1.27296671344761
18
 energy: -20.895189157132 gnorm: 0.000514096745 xtb: 6.7.1 (edcfbbe)
C           -1.76406217158458        0.97744109151299       -0.33267711262565
C           -1.04779102307394        0.20639416472688        0.77163340573333
C            0.13469393475792       -0.65460047645970        0.29629394624653
C            1.19976091239699        0.11831984238733       -0.49269214989265
C            1.85393331286015        1.23285640141678        0.31377305939979
O           -0.30854053487100       -1.78325232480501       -0.44181136532550
H           -2.14290925508710        0.30544460383704       -1.09934988988069
H           -2.61119358750457        1.51237045142025        0.08970789986619
H           -1.10439212555228        1.70485423668838       -0.79798647043739
H           -0.68261322424112        0.90268491598307        1.52679545894462
H           -1.75877556432502       -0.46622517583257        1.25741061157286
H            0.60752981023174       -1.09340364632804        1.18416710803262
H            1.96111918074313       -0.60327830809536       -0.79907568175731
H            0.75368647747712        0.52982796627244       -1.40025763316324
H            2.67892718792457        1.66312545222411       -0.24842975108310
H            1.14369043289819        2.02466373846728        0.53566219112580
H            2.24288743545094        0.84501091583964        1.25254343791723
H           -0.71290572994004       -1.47324628980750       -1.26389390759586
18
 energy: -20.895192280639 gnorm: 0.000723676698 xtb: 6.7.1 (edcfbbe)
C           -1.76524761957996        0.97637524898067       -0.33448754873863
C           -1.04907065422143        0.20639486417357        0.77062161367991
C            0.13538464285798       -0.65247889540532        0.29725968260581
C            1.19890924749868        0.12061982740413       -0.49328402051719
C            1.85750285182538        1.23154914994574        0.31453638034282
O           -0.30599260250525       -1.78357927843291       -0.43924459566003
H           -2.14130398551597        0.30410058625825       -1.10213379583974
H           -2.61415584331537        1.50896764077472        0.08698778745480
H           -1.10653024481058        1.70554773271589       -0.79813931653011
H           -0.68631007771766        0.90341633549377        1.52622046050966
H           -1.75953030553318       -0.46748995504097        1.25531054556450
H            0.60889249514210       -1.08959088369794        1.18550259948441
H            1.95795891687708       -0.60148955122694       -0.80394005192031
H            0.75086600653972        0.53561923605930       -1.39811435293711
H            2.67977385233544        1.66367390010640       -0.24999736352065
H            1.14860401594432        2.02251220146941        0.54319691154198
H            2.25083541478657        0.83951428898758        1.24960647867277
H           -0.71754064204677       -1.47467488911734       -1.25808825711533
18
 energy: -20.895194874360 gnorm: 0.000390463946 xtb: 6.7.1 (edcfbbe)
C           -1.76624792747331        0.97548389295167       -0.33562093872864
C           -1.04967921394619        0.20689210137891        0.77065369903454
C            0.13521746451048       -0.65172606918641        0.29764641623254
C            1.19863383179988        0.12151927499180       -0.49317992221255
C            1.85994714309031        1.23089527634378        0.31500092314820
O           -0.30570127784283       -1.78291014821000       -0.43852478309376
H           -2.13867638211787        0.30235235861010       -1.10425603072344
H           -2.61758763176923        1.50515435640945        0.08463585761223
H           -1.10871127276896        1.70684885759904       -0.79742951353509
H           -0.68778912984180        0.90478660905950        1.52570403884194
H           -1.75976976937305       -0.46722753907576        1.25536312158443
H            0.60897451999115       -1.08807347358253        1.18624711641683
H            1.95650317443150       -0.60095628891937       -0.80563421021072
H            0.74975699564229        0.53816757161822       -1.39670438765133
H            2.67957300473332        1.66479597440565       -0.25198283591048
H            1.15149071655499        2.02072870417761        0.54857414220138
H            2.25728476215816        0.83646138768959        1.24726273447758
H           -0.72017353921773       -1.47420528681324       -1.25594227040607
18
 energy: -20.895197236722 gnorm: 0.000269089553 xtb: 6.7.1 (edcfbbe)
C           -1.76768943708943        0.97431960555071       -0.33696227921364
C           -1.05029351290040        0.20799415595175        0.77063699559245
C            0.13493529881114       -0.65073014409576        0.29822625727622
C            1.19833046281856        0.12240655420660       -0.49308768354028
C            1.86282407413980        1.22960873791557        0.31569415871034
O           -0.30573783398128       -1.78188230243200       -0.43753866590732
H           -2.13419924884118        0.30006457556890       -1.10754093939083
H           -2.62321553157252        1.49904769027143        0.08116752033142
H           -1.11243602845423        1.70960709603043       -0.79589490533965
H           -0.68873999087424        0.90743323770558        1.52433706071095
H           -1.75979290913512       -0.46580525570492        1.25662264727151
H            0.60884013260853       -1.08639479465719        1.18718294676887
H            1.95471009748093       -0.60072359645881       -0.80772508399100
H            0.74852344534948        0.54111172533744       -1.39522801726592
H            2.67828386239212        1.66683518983989       -0.25484632847933
H            1.15472053960222        2.01757502326612        0.55675370067726
H            2.26665374358981        0.83207704394890        1.24390468677842
H           -0.72267169538311       -1.47355698279664       -1.25388891391189
18
 energy: -20.895198002616 gnorm: 0.000188101118 xtb: 6.7.1 (edcfbbe)
C           -1.76848005283769        0.97367905231081       -0.33777067939300
C           -1.05068425795666        0.20889560712017        0.77052219199405
C            0.13456333845638       -0.65005772284252        0.29847414700832
C            1.19786900324738        0.12311016229539       -0.49301968894436
C            1.86461954530150        1.22863278062661        0.31600577578261
O           -0.30578534792572       -1.78176953685156       -0.43646639923973
H           -2.13120816456655        0.29901880924780       -1.10981642745324
H           -2.62664408262980        1.49507241835706        0.07912346576049
H           -1.11485292037180        1.71167840932150       -0.79471668127126
H           -0.68909808960524        0.90924909042795        1.52341392072348
H           -1.75979096192349       -0.46463201354217        1.25753382949130
H            0.60860360136592       -1.08501114262236        1.18769861694490
H            1.95319812334280       -0.60038292998624       -0.80942302755515
H            0.74741469854197        0.54327118118327       -1.39416835839314
H            2.67741339979748        1.66844181884311       -0.25637621649804
H            1.15669772991390        2.01514581055663        0.56215698081877
H            2.27245349599006        0.82891496446711        1.24150540898027
H           -0.72324358957936       -1.47426919946455       -1.25286370167869
18
 energy: -20.895198287454 gnorm: 0.000141790165 xtb: 6.7.1 (edcfbbe)
C           -1.76881389759746        0.97362887750684       -0.33805807804034
C           -1.05092067220975        0.20927671343680        0.77037754933570
C            0.13458571788057       -0.64966869280238        0.29882608267615
C            1.19749882059082        0.12339924263640       -0.49329780724146
C            1.86511771623703        1.22796811748199        0.31618951475271
O           -0.30557500880980       -1.78175949794395       -0.43550177455092
H           -2.12984080734032        0.29887192046012       -1.11080003047150
H           -2.62811483874611        1.49363784414487        0.07820077196173
H           -1.11583391091916        1.71277215420960       -0.79409476364396
H           -0.68932323464131        0.90996108545243        1.52297317732149
H           -1.75992494539566       -0.46407836725942        1.25783361794653
H            0.60879175103478       -1.08412117525753        1.18821568436115
H            1.95229439755424       -0.60021351547619       -0.81079938649904
H            0.74646487496068        0.54436333512204       -1.39382063212486
H            2.67671808310728        1.66886792666477       -0.25700262815647
H            1.15742538027701        2.01393638836414        0.56473064187437
H            2.27481032876837        0.82714565791872        1.24039235948305
H           -0.72231428619009       -1.47500045521123       -1.25255114190677
18
 energy: -20.895198490438 gnorm: 0.000098778235 xtb: 6.7.1 (edcfbbe)
C           -1.76885516220945        0.97376753949230       -0.33814262673091
C           -1.05115487088502        0.20944831572319        0.77035437728973
C            0.13447519993185       -0.64944083310665        0.29901814163187
C            1.19705176073661        0.12363024949690       -0.49344969355682
C            1.86537975214005        1.22762570172228        0.31614135279480
O           -0.30546595881813       -1.78213260855467       -0.43464406235220
H           -2.12910833666990        0.29912202641385       -1.11133990737019
H           -2.62863850384586        1.49316054603124        0.07785665326518
H           -1.11607527375318        1.71347254588686       -0.79357412191722
H           -0.68969437550120        0.91014438133115        1.52304961840920
H           -1.76019433172427       -0.46394790971566        1.25773968901815
H            0.60885184992727       -1.08338773787583        1.18852851226977
H            1.95150546166442       -0.59999113995482       -0.81173341417335
H            0.74554909905800        0.54509479902072       -1.39349873470023
H            2.67648840051232        1.66902637401009       -0.25736015696241
H            1.15784050295832        2.01333679366090        0.56587308411325
H            2.27583616803685        0.82612974839611        1.23970079302351
H           -0.72074591299758       -1.47607123252995       -1.25270634697453
18
 energy: -20.895198622176 gnorm: 0.000064621060 xtb: 6.7.1 (edcfbbe)
C           -1.76883458448374        0.97401589003547       -0.33815031565844
C           -1.05148703406720        0.20944527009511        0.77039854330270
C            0.13438385009812       -0.64927320997161        0.29934178770352
C            1.19657530267607        0.12376768491804       -0.49356962102387
C            1.86558174595678        1.22739919007922        0.31596078406202
O           -0.30538618002271       -1.78245257181978       -0.43375874489477
H           -2.12852721531161        0.29955994222773       -1.11177090008373
H           -2.62893175351869        1.49305875567340        0.07764456700599
H           -1.11601296301460        1.71406644036671       -0.79295566146585
H           -0.69039254299478        0.90994667455265        1.52345967460749
H           -1.76065926277736       -0.46417060789385        1.25727404626219
H            0.60893962369278       -1.08272180130608        1.18898478764201
H            1.95073534266744       -0.59984151338676       -0.81253848482364
H            0.74460487102977        0.54563750040441       -1.39317127213651
H            2.67637914939628        1.66894593369253       -0.25786982721979
H            1.15826517089181        2.01306118170704        0.56646305260560
H            2.27655385414604        0.82549731691673        1.23910262666897
H           -0.71874190580332       -1.47695451684297       -1.25303188547630
18
 energy: -20.895198653393 gnorm: 0.000025554521 xtb: 6.7.1 (edcfbbe)
C           -1.76879235584605        0.97416387520753       -0.33813313844990
C           -1.05171329484943        0.20937223226871        0.77046690150719
C            0.13432279657268       -0.64919227133476        0.29950625522762
C            1.19638252968788        0.12380439630505       -0.49358720822313
C            1.86570642658529        1.22734910067035        0.31583956012952
O           -0.30531434853934       -1.78257374592508       -0.43339657337567
H           -2.12817951230790        0.29982246170403       -1.11199016951382
H           -2.62906431156283        1.49301533988145        0.07754164135764
H           -1.11591090427165        1.71438834224415       -0.79256139856699
H           -0.69095070491222        0.90973451599541        1.52380698657586
H           -1.76097501404987       -0.46444930391346        1.25690767179795
H            0.60895088633680       -1.08240484330606        1.18922638017796
H            1.95040704392715       -0.59984120382738       -0.81277806173235
H            0.74419360134912        0.54578113594748       -1.39301868145738
H            2.67631486601146        1.66886309140530       -0.25828547778727
H            1.15850570271251        2.01302967505571        0.56663467124122
H            2.27699764016780        0.82536064136843        1.23880867105418
H           -0.71783557845030       -1.47723588029887       -1.25317487288505
