      -----------------------------------------------------------      
     |                   =====================                   |     
     |                           x T B                           |     
     |                   =====================                   |     
     |                         S. Grimme                         |     
     |          Mulliken Center for Theoretical Chemistry        |     
     |                    University of Bonn                     |     
      -----------------------------------------------------------      

   * xtb version 6.7.1 (edcfbbe) compiled by 'albert@albert-system' on 2024-07-22

   xtb is free software: you can redistribute it and/or modify it under
   the terms of the GNU Lesser General Public License as published by
   the Free Software Foundation, either version 3 of the License, or
   (at your option) any later version.
   
   xtb is distributed in the hope that it will be useful,
   but WITHOUT ANY WARRANTY; without even the implied warranty of
   MERCHANTABILITY or FITNESS FOR A PARTICULAR PURPOSE.  See the
   GNU Lesser General Public License for more details.
   
   Cite this work as:
   * C. Bannwarth, E. Caldeweyher, S. Ehlert, A. Hansen, P. Pracht,
     J. Seibert, S. Spicher, S. Grimme, WIREs Comput. Mol. Sci., 2020, 11,
     e01493. DOI: 10.1002/wcms.1493
   
   for GFN2-xTB:
   * C. Bannwarth, S. Ehlert and S. Grimme., J. Chem. Theory Comput., 2019,
     15, 1652-1671. DOI: 10.1021/acs.jctc.8b01176
   for GFN1-xTB:
   * S. Grimme, C. Bannwarth, P. Shushkov, J. Chem. Theory Comput., 2017,
     13, 1989-2009. DOI: 10.1021/acs.jctc.7b00118
   for GFN0-xTB:
   * P. Pracht, E. Caldeweyher, S. Ehlert, S. Grimme, ChemRxiv, 2019, preprint.
     DOI: 10.26434/chemrxiv.8326202.v1
   for GFN-FF:
   * S. Spicher and S. Grimme, Angew. Chem. Int. Ed., 2020, 59, 15665-15673.
     DOI: 10.1002/anie.202004239
   
   for ALPB and GBSA implicit solvation:
   * S. Ehlert, M. Stahn, S. Spicher, S. Grimme, J. Chem. Theory Comput.,
     2021, 17, 4250-4261. DOI: 10.1021/acs.jctc.1c00471
   
   for ddCOSMO and CPCM-X implicit solvation:
   * M. Stahn, S. Ehlert, S. Grimme, J. Phys. Chem. A,
     2023, XX, XXXX-XXXX. DOI: 10.1021/acs.jpca.3c04382
   
   for DFT-D4:
   * E. Caldeweyher, C. Bannwarth and S. Grimme, J. Chem. Phys., 2017,
     147, 034112. DOI: 10.1063/1.4993215
   * E. Caldeweyher, S. Ehlert, A. Hansen, H. Neugebauer, S. Spicher,
     C. Bannwarth and S. Grimme, J. Chem. Phys., 2019, 150, 154122.
     DOI: 10.1063/1.5090222
   * E. Caldeweyher, J.-M. Mewes, S. Ehlert and S. Grimme, Phys. Chem. Chem. Phys.
     2020, 22, 8499-8512. DOI: 10.1039/D0CP00502A
   
   for sTDA-xTB:
   * S. Grimme and C. Bannwarth, J. Chem. Phys., 2016, 145, 054103.
     DOI: 10.1063/1.4959605
   
   in the mass-spec context:
   * V. Asgeirsson, C. Bauer and S. Grimme, Chem. Sci., 2017, 8, 4879.
     DOI: 10.1039/c7sc00601b
   * J. Koopman and S. Grimme, ACS Omega 2019, 4, 12, 15120-15133.
     DOI: 10.1021/acsomega.9b02011
   
   for metadynamics refer to:
   * S. Grimme, J. Chem. Theory Comput., 2019, 155, 2847-2862
     DOI: 10.1021/acs.jctc.9b00143
   
   for SPH calculations refer to:
   * S. Spicher and S. Grimme, J. Chem. Theory Comput., 2021, 17, 1701-1714
     DOI: 10.1021/acs.jctc.0c01306
   
   for ONIOM refer to:
   * C. Plett, A. Katbashev, S. Ehlert, S. Grimme, M. Bursch,
     Phys. Chem. Chem. Phys., 2023, 25, 17860-17868. DOI: 10.1039/D3CP02178E
   
   for DIPRO refer to:
   * J. Kohn, N. Gildemeister, S. Grimme, D. Fazzi, A. Hansen,
     J. Chem. Phys., 2023, just accepted.
   
   for PTB refer to:
   * S. Grimme, M. Mueller, A. Hansen, J. Chem. Phys., 2023, 158, 124111.
     DOI: 10.1063/5.0137838
   
   with help from (in alphabetical order)
   P. Atkinson, C. Bannwarth, F. Bohle, G. Brandenburg, E. Caldeweyher
   M. Checinski, S. Dohm, S. Ehlert, S. Ehrlich, I. Gerasimov, C. Hölzer
   A. Katbashev, J. Kohn, J. Koopman, C. Lavigne, S. Lehtola, F. März, M. Müller,
   F. Musil, H. Neugebauer, J. Pisarek, C. Plett, P. Pracht, F. Pultar,
   J. Seibert, P. Shushkov, S. Spicher, M. Stahn, M. Steiner, T. Strunk,
   J. Stückrath, T. Rose, and J. Unsleber
   
 * started run on 2025/04/11 at 11:19:19.814     
   ID    Z sym.   atoms
    1    6 C      1-3
    2    8 O      4-6
    3    1 H      7-14

           -------------------------------------------------
          |                Calculation Setup                |
           -------------------------------------------------

          program call               : /srv/scratch/z5358697/.xtb/bin/xtb gas.coord --gfn2 --sp --chrg 0 --norestart --parallel 1
          hostname                   : k022
          coordinate file            : gas.coord
          omp threads                :                     1


           -------------------------------------------------
          |                 G F N 2 - x T B                 |
           -------------------------------------------------

        Reference                      10.1021/acs.jctc.8b01176
      * Hamiltonian:
        H0-scaling (s, p, d)           1.850000    2.230000    2.230000
        zeta-weighting                 0.500000
      * Dispersion:
        s8                             2.700000
        a1                             0.520000
        a2                             5.000000
        s9                             5.000000
      * Repulsion:
        kExp                           1.500000    1.000000
        rExp                           1.000000
      * Coulomb:
        alpha                          2.000000
        third order                    shell-resolved
        anisotropic                    true
        a3                             3.000000
        a5                             4.000000
        cn-shift                       1.200000
        cn-exp                         4.000000
        max-rad                        5.000000


          ...................................................
          :                      SETUP                      :
          :.................................................:
          :  # basis functions                  32          :
          :  # atomic orbitals                  32          :
          :  # shells                           20          :
          :  # electrons                        38          :
          :  max. iterations                   250          :
          :  Hamiltonian                  GFN2-xTB          :
          :  restarted?                      false          :
          :  GBSA solvation                  false          :
          :  PC potential                    false          :
          :  electronic temp.          300.0000000     K    :
          :  accuracy                    1.0000000          :
          :  -> integral cutoff          0.2500000E+02      :
          :  -> integral neglect         0.1000000E-07      :
          :  -> SCF convergence          0.1000000E-05 Eh   :
          :  -> wf. convergence          0.1000000E-03 e    :
          :  Broyden damping             0.4000000          :
          :  net charge                          0          :
          :  unpaired electrons                  0          :
          ...................................................

 iter      E             dE          RMSdq      gap      omega  full diag
   1    -22.8325172 -0.228325E+02  0.451E+00   10.90       0.0  T
   2    -22.8513626 -0.188455E-01  0.249E+00   10.69       1.0  T
   3    -22.8521503 -0.787709E-03  0.635E-01   10.65       1.0  T
   4    -22.8523331 -0.182810E-03  0.133E-01   10.64       1.0  T
   5    -22.8523486 -0.154596E-04  0.467E-02   10.67       1.0  T
   6    -22.8523552 -0.659245E-05  0.183E-02   10.67       1.5  T
   7    -22.8523556 -0.411897E-06  0.488E-03   10.67       5.5  T
   8    -22.8523557 -0.863481E-07  0.169E-03   10.67      15.8  T
   9    -22.8523557 -0.168608E-08  0.324E-04   10.67      82.5  T
  10    -22.8523557 -0.404334E-09  0.955E-05   10.67     279.7  T

   *** convergence criteria satisfied after 10 iterations ***

         #    Occupation            Energy/Eh            Energy/eV
      -------------------------------------------------------------
         1        2.0000           -0.7081310             -19.2692
       ...           ...                  ...                  ...
        13        2.0000           -0.5117121             -13.9244
        14        2.0000           -0.5008572             -13.6290
        15        2.0000           -0.4722977             -12.8519
        16        2.0000           -0.4641238             -12.6295
        17        2.0000           -0.4385402             -11.9333
        18        2.0000           -0.4215352             -11.4706
        19        2.0000           -0.4055813             -11.0364 (HOMO)
        20                         -0.0134408              -0.3657 (LUMO)
        21                          0.0570219               1.5516
        22                          0.0643170               1.7502
        23                          0.0921494               2.5075
        24                          0.1087697               2.9598
       ...                                ...                  ...
        32                          0.2712244               7.3804
      -------------------------------------------------------------
                  HL-Gap            0.3921404 Eh           10.6707 eV
             Fermi-level           -0.2095111 Eh           -5.7011 eV

 SCC (total)                   0 d,  0 h,  0 min,  0.020 sec
 SCC setup                      ...        0 min,  0.000 sec (  0.873%)
 Dispersion                     ...        0 min,  0.000 sec (  0.305%)
 classical contributions        ...        0 min,  0.000 sec (  0.076%)
 integral evaluation            ...        0 min,  0.003 sec ( 14.856%)
 iterations                     ...        0 min,  0.014 sec ( 68.872%)
 molecular gradient             ...        0 min,  0.003 sec ( 14.171%)
 printout                       ...        0 min,  0.000 sec (  0.751%)

         :::::::::::::::::::::::::::::::::::::::::::::::::::::
         ::                     SUMMARY                     ::
         :::::::::::::::::::::::::::::::::::::::::::::::::::::
         :: total energy             -22.679191377129 Eh    ::
         :: gradient norm              0.009111542362 Eh/a0 ::
         :: HOMO-LUMO gap             10.670684665441 eV    ::
         ::.................................................::
         :: SCC energy               -22.852344155230 Eh    ::
         :: -> isotropic ES            0.071352456508 Eh    ::
         :: -> anisotropic ES          0.000309531814 Eh    ::
         :: -> anisotropic XC         -0.002572874059 Eh    ::
         :: -> dispersion             -0.007186607046 Eh    ::
         :: repulsion energy           0.173152778101 Eh    ::
         :: add. restraining           0.000000000000 Eh    ::
         :: total charge              -0.000000000000 e     ::
         :::::::::::::::::::::::::::::::::::::::::::::::::::::

           -------------------------------------------------
          |                Property Printout                |
           -------------------------------------------------

    * Orbital Energies and Occupations

         #    Occupation            Energy/Eh            Energy/eV
      -------------------------------------------------------------
         1        2.0000           -0.7081310             -19.2692
       ...           ...                  ...                  ...
         7        2.0000           -0.5879651             -15.9993
         8        2.0000           -0.5815035             -15.8235
         9        2.0000           -0.5645671             -15.3627
        10        2.0000           -0.5487352             -14.9318
        11        2.0000           -0.5271542             -14.3446
        12        2.0000           -0.5222887             -14.2122
        13        2.0000           -0.5117121             -13.9244
        14        2.0000           -0.5008572             -13.6290
        15        2.0000           -0.4722977             -12.8519
        16        2.0000           -0.4641238             -12.6295
        17        2.0000           -0.4385402             -11.9333
        18        2.0000           -0.4215352             -11.4706
        19        2.0000           -0.4055813             -11.0364 (HOMO)
        20                         -0.0134408              -0.3657 (LUMO)
        21                          0.0570219               1.5516
        22                          0.0643170               1.7502
        23                          0.0921494               2.5075
        24                          0.1087697               2.9598
        25                          0.1192917               3.2461
        26                          0.1393962               3.7932
        27                          0.1610133               4.3814
        28                          0.1876754               5.1069
        29                          0.1919311               5.2227
        30                          0.2223505               6.0505
       ...                                ...                  ...
        32                          0.2712244               7.3804
      -------------------------------------------------------------
                  HL-Gap            0.3921404 Eh           10.6707 eV
             Fermi-level           -0.2095111 Eh           -5.7011 eV

     #   Z          covCN         q      C6AA      α(0)
     1   6 C        3.675     0.072    19.596     6.343
     2   6 C        3.721     0.093    19.155     6.251
     3   6 C        3.674     0.068    19.671     6.356
     4   8 O        1.654    -0.449    21.825     6.306
     5   8 O        1.656    -0.448    21.802     6.303
     6   8 O        1.655    -0.439    21.620     6.277
     7   1 H        0.924     0.064     2.155     2.296
     8   1 H        0.924     0.040     2.445     2.445
     9   1 H        0.923     0.024     2.669     2.555
    10   1 H        0.924     0.043     2.404     2.425
    11   1 H        0.923     0.031     2.576     2.510
    12   1 H        0.804     0.310     0.691     1.306
    13   1 H        0.805     0.296     0.733     1.345
    14   1 H        0.805     0.295     0.736     1.348

 Mol. C6AA /au·bohr⁶  :       1405.270512
 Mol. C8AA /au·bohr⁸  :      28786.566692
 Mol. α(0) /au        :         54.065036


Wiberg/Mayer (AO) data.
largest (>0.10) Wiberg bond orders for each atom

 ---------------------------------------------------------------------------
     #   Z sym  total        # sym  WBO       # sym  WBO       # sym  WBO
 ---------------------------------------------------------------------------
     1   6 C    3.950 --     6 O    1.000     2 C    0.978     8 H    0.971
                             7 H    0.969
     2   6 C    3.954 --     5 O    0.992     1 C    0.978     3 C    0.973
                             9 H    0.960
     3   6 C    3.963 --     4 O    1.013     2 C    0.973    10 H    0.971
                            11 H    0.968
     4   8 O    1.954 --     3 C    1.013    12 H    0.873
     5   8 O    1.956 --     2 C    0.992    13 H    0.896
     6   8 O    1.981 --     1 C    1.000    14 H    0.899
     7   1 H    0.996 --     1 C    0.969
     8   1 H    0.998 --     1 C    0.971
     9   1 H    0.999 --     2 C    0.960
    10   1 H    0.998 --     3 C    0.971
    11   1 H    0.999 --     3 C    0.968
    12   1 H    0.904 --     4 O    0.873
    13   1 H    0.912 --     5 O    0.896
    14   1 H    0.913 --     6 O    0.899
 ---------------------------------------------------------------------------

Topologies differ in total number of bonds
Writing topology from bond orders to xtbtopo.mol

molecular dipole:
                 x           y           z       tot (Debye)
 q only:       -0.158       0.350       0.346
   full:       -0.177       0.514       0.553       1.972
molecular quadrupole (traceless):
                xx          xy          yy          xz          yz          zz
 q only:        0.736       4.809      -2.696      -2.216       0.443       1.960
  q+dip:        1.868       5.943      -6.624      -3.047       2.008       4.756
   full:        1.525       6.446      -5.316      -3.095       1.394       3.790


           -------------------------------------------------
          | TOTAL ENERGY              -22.679191377129 Eh   |
          | GRADIENT NORM               0.009111542362 Eh/α |
          | HOMO-LUMO GAP              10.670684665441 eV   |
           -------------------------------------------------

------------------------------------------------------------------------
 * finished run on 2025/04/11 at 11:19:19.892     
------------------------------------------------------------------------
 total:
 * wall-time:     0 d,  0 h,  0 min,  0.077 sec
 *  cpu-time:     0 d,  0 h,  0 min,  0.017 sec
 * ratio c/w:     0.221 speedup
 SCF:
 * wall-time:     0 d,  0 h,  0 min,  0.020 sec
 *  cpu-time:     0 d,  0 h,  0 min,  0.009 sec
 * ratio c/w:     0.437 speedup

