      -----------------------------------------------------------      
     |                   =====================                   |     
     |                           x T B                           |     
     |                   =====================                   |     
     |                         S. Grimme                         |     
     |          Mulliken Center for Theoretical Chemistry        |     
     |                    University of Bonn                     |     
      -----------------------------------------------------------      

   * xtb version 6.7.1 (edcfbbe) compiled by 'albert@albert-system' on 2024-07-22

   xtb is free software: you can redistribute it and/or modify it under
   the terms of the GNU Lesser General Public License as published by
   the Free Software Foundation, either version 3 of the License, or
   (at your option) any later version.
   
   xtb is distributed in the hope that it will be useful,
   but WITHOUT ANY WARRANTY; without even the implied warranty of
   MERCHANTABILITY or FITNESS FOR A PARTICULAR PURPOSE.  See the
   GNU Lesser General Public License for more details.
   
   Cite this work as:
   * C. Bannwarth, E. Caldeweyher, S. Ehlert, A. Hansen, P. Pracht,
     J. Seibert, S. Spicher, S. Grimme, WIREs Comput. Mol. Sci., 2020, 11,
     e01493. DOI: 10.1002/wcms.1493
   
   for GFN2-xTB:
   * C. Bannwarth, S. Ehlert and S. Grimme., J. Chem. Theory Comput., 2019,
     15, 1652-1671. DOI: 10.1021/acs.jctc.8b01176
   for GFN1-xTB:
   * S. Grimme, C. Bannwarth, P. Shushkov, J. Chem. Theory Comput., 2017,
     13, 1989-2009. DOI: 10.1021/acs.jctc.7b00118
   for GFN0-xTB:
   * P. Pracht, E. Caldeweyher, S. Ehlert, S. Grimme, ChemRxiv, 2019, preprint.
     DOI: 10.26434/chemrxiv.8326202.v1
   for GFN-FF:
   * S. Spicher and S. Grimme, Angew. Chem. Int. Ed., 2020, 59, 15665-15673.
     DOI: 10.1002/anie.202004239
   
   for ALPB and GBSA implicit solvation:
   * S. Ehlert, M. Stahn, S. Spicher, S. Grimme, J. Chem. Theory Comput.,
     2021, 17, 4250-4261. DOI: 10.1021/acs.jctc.1c00471
   
   for ddCOSMO and CPCM-X implicit solvation:
   * M. Stahn, S. Ehlert, S. Grimme, J. Phys. Chem. A,
     2023, XX, XXXX-XXXX. DOI: 10.1021/acs.jpca.3c04382
   
   for DFT-D4:
   * E. Caldeweyher, C. Bannwarth and S. Grimme, J. Chem. Phys., 2017,
     147, 034112. DOI: 10.1063/1.4993215
   * E. Caldeweyher, S. Ehlert, A. Hansen, H. Neugebauer, S. Spicher,
     C. Bannwarth and S. Grimme, J. Chem. Phys., 2019, 150, 154122.
     DOI: 10.1063/1.5090222
   * E. Caldeweyher, J.-M. Mewes, S. Ehlert and S. Grimme, Phys. Chem. Chem. Phys.
     2020, 22, 8499-8512. DOI: 10.1039/D0CP00502A
   
   for sTDA-xTB:
   * S. Grimme and C. Bannwarth, J. Chem. Phys., 2016, 145, 054103.
     DOI: 10.1063/1.4959605
   
   in the mass-spec context:
   * V. Asgeirsson, C. Bauer and S. Grimme, Chem. Sci., 2017, 8, 4879.
     DOI: 10.1039/c7sc00601b
   * J. Koopman and S. Grimme, ACS Omega 2019, 4, 12, 15120-15133.
     DOI: 10.1021/acsomega.9b02011
   
   for metadynamics refer to:
   * S. Grimme, J. Chem. Theory Comput., 2019, 155, 2847-2862
     DOI: 10.1021/acs.jctc.9b00143
   
   for SPH calculations refer to:
   * S. Spicher and S. Grimme, J. Chem. Theory Comput., 2021, 17, 1701-1714
     DOI: 10.1021/acs.jctc.0c01306
   
   for ONIOM refer to:
   * C. Plett, A. Katbashev, S. Ehlert, S. Grimme, M. Bursch,
     Phys. Chem. Chem. Phys., 2023, 25, 17860-17868. DOI: 10.1039/D3CP02178E
   
   for DIPRO refer to:
   * J. Kohn, N. Gildemeister, S. Grimme, D. Fazzi, A. Hansen,
     J. Chem. Phys., 2023, just accepted.
   
   for PTB refer to:
   * S. Grimme, M. Mueller, A. Hansen, J. Chem. Phys., 2023, 158, 124111.
     DOI: 10.1063/5.0137838
   
   with help from (in alphabetical order)
   P. Atkinson, C. Bannwarth, F. Bohle, G. Brandenburg, E. Caldeweyher
   M. Checinski, S. Dohm, S. Ehlert, S. Ehrlich, I. Gerasimov, C. Hölzer
   A. Katbashev, J. Kohn, J. Koopman, C. Lavigne, S. Lehtola, F. März, M. Müller,
   F. Musil, H. Neugebauer, J. Pisarek, C. Plett, P. Pracht, F. Pultar,
   J. Seibert, P. Shushkov, S. Spicher, M. Stahn, M. Steiner, T. Strunk,
   J. Stückrath, T. Rose, and J. Unsleber
   
 * started run on 2025/04/11 at 11:19:19.925     
   ID    Z sym.   atoms
    1    6 C      1-3
    2    8 O      4-6
    3    1 H      7-14

           -------------------------------------------------
          |                Calculation Setup                |
           -------------------------------------------------

          program call               : /srv/scratch/z5358697/.xtb/bin/xtb solv.coord --gfn2 --sp --chrg 0 --norestart --parallel 1 --alpb water reference -I xtb_sp-xcontrol-inp
          hostname                   : k022
          coordinate file            : solv.coord
          omp threads                :                     1


           -------------------------------------------------
          |                 G F N 2 - x T B                 |
           -------------------------------------------------

        Reference                      10.1021/acs.jctc.8b01176
      * Hamiltonian:
        H0-scaling (s, p, d)           1.850000    2.230000    2.230000
        zeta-weighting                 0.500000
      * Dispersion:
        s8                             2.700000
        a1                             0.520000
        a2                             5.000000
        s9                             5.000000
      * Repulsion:
        kExp                           1.500000    1.000000
        rExp                           1.000000
      * Coulomb:
        alpha                          2.000000
        third order                    shell-resolved
        anisotropic                    true
        a3                             3.000000
        a5                             4.000000
        cn-shift                       1.200000
        cn-exp                         4.000000
        max-rad                        5.000000

      * Solvation model:               ALPB
        Solvent                        water
        Parameter file                 internal GFN2-xTB/ALPB
        Dielectric constant                8.0200E+01
        Reference state                gsolv=reference [X=1]
        Free energy shift                  2.8945E-03 Eh       1.8164E+00 kcal/mol
        Temperature                        2.9815E+02 K
        Density                            1.0000E+00 kg/L
        Solvent mass                       1.8000E+01 g/mol
        Interaction kernel             P16
        Born radius scaling (c1)           1.4744E+00
        Born radii integrator          GBOBC
        Born offset                        0.0000E+00 a0       0.0000E+00 AA
        H-bond correction              true
        Ion screening                  false
        Surface tension                    1.0000E-05 Eh       1.5569E+01 dyn/cm
        Grid points                               974 per atom

          ...................................................
          :                      SETUP                      :
          :.................................................:
          :  # basis functions                  32          :
          :  # atomic orbitals                  32          :
          :  # shells                           20          :
          :  # electrons                        38          :
          :  max. iterations                   250          :
          :  Hamiltonian                  GFN2-xTB          :
          :  restarted?                      false          :
          :  GBSA solvation                   true          :
          :  PC potential                    false          :
          :  electronic temp.          300.0000000     K    :
          :  accuracy                    1.0000000          :
          :  -> integral cutoff          0.2500000E+02      :
          :  -> integral neglect         0.1000000E-07      :
          :  -> SCF convergence          0.1000000E-05 Eh   :
          :  -> wf. convergence          0.1000000E-03 e    :
          :  Broyden damping             0.4000000          :
          :  net charge                          0          :
          :  unpaired electrons                  0          :
          ...................................................

 iter      E             dE          RMSdq      gap      omega  full diag
   1    -22.8482955 -0.228483E+02  0.475E+00   10.97       0.0  T
   2    -22.8660909 -0.177954E-01  0.256E+00   10.84       1.0  T
   3    -22.8673567 -0.126574E-02  0.529E-01   10.79       1.0  T
   4    -22.8674414 -0.847636E-04  0.171E-01   10.81       1.0  T
   5    -22.8674638 -0.223609E-04  0.533E-02   10.82       1.0  T
   6    -22.8674710 -0.724710E-05  0.240E-02   10.83       1.1  T
   7    -22.8674717 -0.724523E-06  0.400E-03   10.82       6.7  T
   8    -22.8674718 -0.247608E-07  0.184E-03   10.82      14.5  T
   9    -22.8674718 -0.709520E-08  0.447E-04   10.82      59.8  T
  10    -22.8674718 -0.489340E-09  0.194E-04   10.82     137.7  T

   *** convergence criteria satisfied after 10 iterations ***

         #    Occupation            Energy/Eh            Energy/eV
      -------------------------------------------------------------
         1        2.0000           -0.7007627             -19.0687
       ...           ...                  ...                  ...
        13        2.0000           -0.5080981             -13.8261
        14        2.0000           -0.4959853             -13.4964
        15        2.0000           -0.4681147             -12.7380
        16        2.0000           -0.4561963             -12.4137
        17        2.0000           -0.4359138             -11.8618
        18        2.0000           -0.4159192             -11.3177
        19        2.0000           -0.4046071             -11.0099 (HOMO)
        20                         -0.0068041              -0.1851 (LUMO)
        21                          0.0626736               1.7054
        22                          0.0727100               1.9785
        23                          0.1017547               2.7689
        24                          0.1155647               3.1447
       ...                                ...                  ...
        32                          0.2763809               7.5207
      -------------------------------------------------------------
                  HL-Gap            0.3978030 Eh           10.8248 eV
             Fermi-level           -0.2057056 Eh           -5.5975 eV

 SCC (total)                   0 d,  0 h,  0 min,  0.025 sec
 SCC setup                      ...        0 min,  0.001 sec (  3.774%)
 Dispersion                     ...        0 min,  0.000 sec (  0.291%)
 classical contributions        ...        0 min,  0.000 sec (  0.069%)
 integral evaluation            ...        0 min,  0.001 sec (  4.347%)
 iterations                     ...        0 min,  0.020 sec ( 79.292%)
 molecular gradient             ...        0 min,  0.003 sec ( 11.594%)
 printout                       ...        0 min,  0.000 sec (  0.583%)

         :::::::::::::::::::::::::::::::::::::::::::::::::::::
         ::                     SUMMARY                     ::
         :::::::::::::::::::::::::::::::::::::::::::::::::::::
         :: total energy             -22.694307454119 Eh    ::
         :: total w/o Gsasa/hb       -22.685684069051 Eh    ::
         :: gradient norm              0.000186970416 Eh/a0 ::
         :: HOMO-LUMO gap             10.824771018744 eV    ::
         ::.................................................::
         :: SCC energy               -22.867460232220 Eh    ::
         :: -> isotropic ES            0.091243479052 Eh    ::
         :: -> anisotropic ES         -0.001525957910 Eh    ::
         :: -> anisotropic XC         -0.002209279898 Eh    ::
         :: -> dispersion             -0.007191397521 Eh    ::
         :: -> Gsolv                  -0.019219653390 Eh    ::
         ::    -> Gelec               -0.010596268321 Eh    ::
         ::    -> Gsasa                0.003053073130 Eh    ::
         ::    -> Ghb                 -0.014571007359 Eh    ::
         ::    -> Gshift               0.002894549160 Eh    ::
         :: repulsion energy           0.173152778101 Eh    ::
         :: add. restraining           0.000000000000 Eh    ::
         :: total charge               0.000000000000 e     ::
         :::::::::::::::::::::::::::::::::::::::::::::::::::::

           -------------------------------------------------
          |                Property Printout                |
           -------------------------------------------------

    * Orbital Energies and Occupations

         #    Occupation            Energy/Eh            Energy/eV
      -------------------------------------------------------------
         1        2.0000           -0.7007627             -19.0687
       ...           ...                  ...                  ...
         7        2.0000           -0.5825696             -15.8525
         8        2.0000           -0.5740578             -15.6209
         9        2.0000           -0.5583752             -15.1942
        10        2.0000           -0.5437269             -14.7956
        11        2.0000           -0.5230577             -14.2331
        12        2.0000           -0.5177774             -14.0894
        13        2.0000           -0.5080981             -13.8261
        14        2.0000           -0.4959853             -13.4964
        15        2.0000           -0.4681147             -12.7380
        16        2.0000           -0.4561963             -12.4137
        17        2.0000           -0.4359138             -11.8618
        18        2.0000           -0.4159192             -11.3177
        19        2.0000           -0.4046071             -11.0099 (HOMO)
        20                         -0.0068041              -0.1851 (LUMO)
        21                          0.0626736               1.7054
        22                          0.0727100               1.9785
        23                          0.1017547               2.7689
        24                          0.1155647               3.1447
        25                          0.1265405               3.4433
        26                          0.1460354               3.9738
        27                          0.1712478               4.6599
        28                          0.1948841               5.3031
        29                          0.2016742               5.4878
        30                          0.2330903               6.3427
       ...                                ...                  ...
        32                          0.2763809               7.5207
      -------------------------------------------------------------
                  HL-Gap            0.3978030 Eh           10.8248 eV
             Fermi-level           -0.2057056 Eh           -5.5975 eV

     #   Z          covCN         q      C6AA      α(0)
     1   6 C        3.675     0.070    19.633     6.349
     2   6 C        3.721     0.093    19.151     6.250
     3   6 C        3.674     0.066    19.697     6.360
     4   8 O        1.654    -0.507    23.037     6.479
     5   8 O        1.656    -0.516    23.237     6.507
     6   8 O        1.655    -0.504    22.974     6.470
     7   1 H        0.924     0.058     2.218     2.329
     8   1 H        0.924     0.044     2.399     2.422
     9   1 H        0.923     0.033     2.547     2.496
    10   1 H        0.924     0.050     2.319     2.381
    11   1 H        0.923     0.031     2.567     2.506
    12   1 H        0.804     0.351     0.586     1.202
    13   1 H        0.805     0.366     0.553     1.168
    14   1 H        0.805     0.365     0.555     1.170

 Mol. C6AA /au·bohr⁶  :       1411.025434
 Mol. C8AA /au·bohr⁸  :      29027.631731
 Mol. α(0) /au        :         54.090274


Wiberg/Mayer (AO) data.
largest (>0.10) Wiberg bond orders for each atom

 ---------------------------------------------------------------------------
     #   Z sym  total        # sym  WBO       # sym  WBO       # sym  WBO
 ---------------------------------------------------------------------------
     1   6 C    3.951 --     6 O    1.001     2 C    0.978     8 H    0.970
                             7 H    0.970
     2   6 C    3.953 --     5 O    0.992     1 C    0.978     3 C    0.974
                             9 H    0.959
     3   6 C    3.956 --     4 O    1.006     2 C    0.974    10 H    0.971
                            11 H    0.968
     4   8 O    1.918 --     3 C    1.006    12 H    0.846
     5   8 O    1.911 --     2 C    0.992    13 H    0.851
     6   8 O    1.937 --     1 C    1.001    14 H    0.854
     7   1 H    0.997 --     1 C    0.970
     8   1 H    0.998 --     1 C    0.970
     9   1 H    0.999 --     2 C    0.959
    10   1 H    0.997 --     3 C    0.971
    11   1 H    0.999 --     3 C    0.968
    12   1 H    0.877 --     4 O    0.846
    13   1 H    0.866 --     5 O    0.851
    14   1 H    0.867 --     6 O    0.854
 ---------------------------------------------------------------------------

Topologies differ in total number of bonds
Writing topology from bond orders to xtbtopo.mol

molecular dipole:
                 x           y           z       tot (Debye)
 q only:       -0.161       0.425       0.531
   full:       -0.177       0.559       0.673       2.269
molecular quadrupole (traceless):
                xx          xy          yy          xz          yz          zz
 q only:        0.781       6.190      -2.665      -2.867       0.436       1.884
  q+dip:        1.925       6.865      -6.622      -3.455       2.002       4.697
   full:        1.565       7.372      -5.285      -3.511       1.377       3.721


           -------------------------------------------------
          | TOTAL ENERGY              -22.694307454119 Eh   |
          | GRADIENT NORM               0.000186970416 Eh/α |
          | HOMO-LUMO GAP              10.824771018744 eV   |
           -------------------------------------------------

------------------------------------------------------------------------
 * finished run on 2025/04/11 at 11:19:19.994     
------------------------------------------------------------------------
 total:
 * wall-time:     0 d,  0 h,  0 min,  0.069 sec
 *  cpu-time:     0 d,  0 h,  0 min,  0.018 sec
 * ratio c/w:     0.257 speedup
 SCF:
 * wall-time:     0 d,  0 h,  0 min,  0.025 sec
 *  cpu-time:     0 d,  0 h,  0 min,  0.010 sec
 * ratio c/w:     0.399 speedup

