18
 energy: -20.893838023371 gnorm: 0.026467512655 xtb: 6.7.1 (edcfbbe)
C           -1.61204521464579        1.23141407684958        0.68960581941770
C           -1.38852293990239        0.00310879704885       -0.18857098955979
C           -0.00747670552658       -0.63808068884970       -0.05940625627007
C            1.15806978528871        0.31115451595773       -0.37985008179372
C            1.77106693367560        0.97806045126718        0.85235817134035
O            0.03924939480893       -1.81871128078255       -0.90135882149412
H           -0.95636939713301        2.05920076095093        0.40383442006542
H           -2.64469746155447        1.58187450476017        0.59512609498452
H           -1.43200393963905        1.00372879988817        1.74596777761157
H           -2.13793042001539       -0.76017334220843        0.05217649697702
H           -1.53451588280027        0.27467245242455       -1.24374038898194
H            0.12072930509426       -1.02848920260999        0.95877122693171
H            1.93776162397296       -0.27686311052873       -0.87737723052018
H            0.82590700783805        1.06966097580867       -1.10128779824288
H            1.04018166808222        1.56444326379543        1.41566580925662
H            2.18476543046892        0.22303772593329        1.52990273854428
H            2.58571288368201        1.65010617414913        0.56399463979743
H           -0.07148232471364       -1.51766616462398       -1.81372966253257
18
 energy: -20.894723500044 gnorm: 0.012433857806 xtb: 6.7.1 (edcfbbe)
C           -1.61593658250626        1.22919567160907        0.69036282329736
C           -1.38943631588992        0.01216483488609       -0.19428989086692
C           -0.00633591719836       -0.62957103909187       -0.05108564936327
C            1.16045526034165        0.31405487852515       -0.38179875876570
C            1.77282834626503        0.97202384130067        0.84862697153382
O            0.04988652392021       -1.80149842597935       -0.87947217435589
H           -0.96273254296387        2.05061812857275        0.40281362214543
H           -2.64621209458552        1.56870883284447        0.59339094093091
H           -1.43383998834923        0.98665752739312        1.73689796605000
H           -2.13434411059048       -0.75201155103458        0.04502619217967
H           -1.53632010323725        0.29607708787621       -1.24239419375829
H            0.12042681568897       -1.02513736499904        0.96326117144193
H            1.93801891920526       -0.27821215596297       -0.87321125483124
H            0.82764420796389        1.07804854526292       -1.09099512128406
H            1.03949217303623        1.55553612663081        1.40009684918585
H            2.17940154225099        0.21586954678892        1.51983529507574
H            2.58376909173666        1.63581783215761        0.55175232271163
H           -0.06836547810695       -1.51786360754969       -1.79673514579561
18
 energy: -20.894918678501 gnorm: 0.003919156857 xtb: 6.7.1 (edcfbbe)
C           -1.62032724001791        1.22790659469143        0.69362572030398
C           -1.38919345751629        0.01826297001227       -0.20076072188437
C           -0.00614285752435       -0.62818800024267       -0.05436979717333
C            1.16118602787625        0.31775699265728       -0.38218909693806
C            1.77815957481025        0.97227424871643        0.84775865524590
O            0.05331639196241       -1.79997185715699       -0.86457548989134
H           -0.96958846175697        2.04926896670083        0.41095860353560
H           -2.64951909157574        1.56251835476268        0.59699620874559
H           -1.43807101954434        0.97451073812851        1.73448275183738
H           -2.13199388626099       -0.74901410570039        0.02977631870861
H           -1.52829077427337        0.31057360038543       -1.24521409853282
H            0.11418706918003       -1.01498462546317        0.96306426087571
H            1.93399873867540       -0.27724154429362       -0.87471629452681
H            0.82721508418314        1.08400348531725       -1.08446115271873
H            1.04558896348466        1.55565112071006        1.39479692869000
H            2.17871409820322        0.21386615729457        1.51528153021320
H            2.59011475379724        1.62998327423503        0.54932510448365
H           -0.07095416672157       -1.53669766152461       -1.78769746544282
18
 energy: -20.894987551896 gnorm: 0.002544090987 xtb: 6.7.1 (edcfbbe)
C           -1.62406224919942        1.22508018885659        0.69643184557946
C           -1.38909889434454        0.02217007833878       -0.20795140163141
C           -0.00621340302484       -0.62683685171510       -0.05469561102509
C            1.16180284086769        0.32031577302356       -0.38450521073931
C            1.78226606436843        0.97158845374866        0.84684512812489
O            0.05577912341214       -1.80127236848180       -0.85205617825176
H           -0.97425481099378        2.04975421904927        0.42165751405063
H           -2.65370707768326        1.55797743145683        0.60041248805583
H           -1.44299107964692        0.96272139938314        1.73506478263042
H           -2.13349695547614       -0.74680516449670        0.01169551779974
H           -1.51933646153859        0.32275846761794       -1.25089338993420
H            0.10914905415483       -1.00182990855567        0.96835121301455
H            1.93197557135104       -0.27449031175241       -0.88099813234562
H            0.82637376372725        1.08863761303919       -1.08305583254367
H            1.05209795201097        1.55834010188801        1.39336144301299
H            2.17923334056647        0.21100142344006        1.51377245288286
H            2.59707570695181        1.62515644606157        0.54778619812708
H           -0.07419273852207       -1.55378828167162       -1.77914086127603
18
 energy: -20.895041381899 gnorm: 0.003512678534 xtb: 6.7.1 (edcfbbe)
C           -1.62974861891423        1.22012173368541        0.69964123825070
C           -1.38855758880085        0.02732836947007       -0.21776732693994
C           -0.00691280399396       -0.62423420938947       -0.05432809119213
C            1.16205671410012        0.32345826708911       -0.38715490098010
C            1.78822796334340        0.97050605027093        0.84454209274912
O            0.05894168333251       -1.80629019655789       -0.83541710160124
H           -0.98003529961379        2.04993916666194        0.43738193976904
H           -2.66014519712056        1.55286033757369        0.60484709706449
H           -1.45087312768770        0.94591119820670        1.73625959294039
H           -2.13676846537369       -0.74306826034031       -0.01452774548927
H           -1.50644391299169        0.34009761551222       -1.25900472044221
H            0.10285338100220       -0.98324810815124        0.97602188659431
H            1.92954345785045       -0.26963596236844       -0.89018900596903
H            0.82445227057035        1.09506825724291       -1.08136332233321
H            1.06182307933876        1.56248111869262        1.39190946081046
H            2.18050963609425        0.20667360076465        1.51151233241928
H            2.60778807377437        1.61930891609508        0.54589644219595
H           -0.07831149792887       -1.57679918522769       -1.76617790231523
18
 energy: -20.895070863349 gnorm: 0.002877157314 xtb: 6.7.1 (edcfbbe)
C           -1.63495696635339        1.21535411735374        0.70173600464271
C           -1.38776947338669        0.03149989866477       -0.22542307545133
C           -0.00773582523408       -0.62041821910573       -0.05239498278153
C            1.16203467647804        0.32585511561294       -0.38906402353853
C            1.79339990240290        0.96900388375602        0.84189946880131
O            0.06142741940878       -1.81048558849785       -0.82159619022765
H           -0.98481926858381        2.04911664954235        0.45079296415071
H           -2.66558585924697        1.54861560996788        0.60676866735832
H           -1.45945462079204        0.93209858650222        1.73703652441250
H           -2.13904956434365       -0.73993552171464       -0.03636427359879
H           -1.49552803652647        0.35422511732315       -1.26509380131958
H            0.09809408768530       -0.96859787762848        0.98235479801147
H            1.92683573121370       -0.26615980216437       -0.89788904137691
H            0.82259447179723        1.10019714315824       -1.07996252254065
H            1.07082640254945        1.56542415316817        1.39076018206369
H            2.18242016943626        0.20295170460686        1.50900211439932
H            2.61664366232725        1.61395502432551        0.54335236133562
H           -0.08097716185076       -1.59222128564047       -1.75383320880929
18
 energy: -20.895089292144 gnorm: 0.001385348825 xtb: 6.7.1 (edcfbbe)
C           -1.63979373751411        1.21165231539210        0.70291108079784
C           -1.38684175066653        0.03463660721419       -0.23040129496198
C           -0.00844723815293       -0.61647526841516       -0.04982747320196
C            1.16193197157365        0.32738387520792       -0.38990214753747
C            1.79802515724032        0.96762981396267        0.83940600037310
O            0.06299663317754       -1.81313492757351       -0.81159161568673
H           -0.98867390383195        2.04753088264105        0.46115244029359
H           -2.67011907035118        1.54559216131721        0.60593851546559
H           -1.46865168750458        0.92194278278271        1.73728523162351
H           -2.13970049637833       -0.73768179748241       -0.05196908616956
H           -1.48732842446279        0.36443456508281       -1.26854743226047
H            0.09486626877454       -0.95876446466557        0.98672425967468
H            1.92403806729052       -0.26456718809447       -0.90293161257288
H            0.82135560957359        1.10371517469924       -1.07837219859989
H            1.07860591286923        1.56700276271105        1.38969273435553
H            2.18512829044411        0.20021349425974        1.50625253149574
H            2.62345401235943        1.60970216120681        0.54019994543207
H           -0.08244586745947       -1.60033424101607       -1.74393791298934
18
 energy: -20.895099246887 gnorm: 0.000966243257 xtb: 6.7.1 (edcfbbe)
C           -1.64541039096118        1.20887915165859        0.70379230892103
C           -1.38599234225678        0.03719389248763       -0.23354404670652
C           -0.00893264384268       -0.61240319233229       -0.04667881885562
C            1.16213440815560        0.32824451393343       -0.39002160918739
C            1.80326392922551        0.96639171158085        0.83699429727351
O            0.06377476237304       -1.81400239654219       -0.80391323164938
H           -0.99232477282451        2.04541230380028        0.47108955720924
H           -2.67475854798159        1.54358012724678        0.60153247439522
H           -1.48139828798124        0.91368697503390        1.73752762705113
H           -2.13899005074373       -0.73636798825464       -0.06347271811498
H           -1.48061880529861        0.37221027208678       -1.27017633262355
H            0.09253938077998       -0.95189468299634        0.99026976621486
H            1.92111254514217       -0.26499230743001       -0.90588917623422
H            0.82110124618076        1.10596710988414       -1.07660153178418
H            1.08676256857013        1.56763581924590        1.38876843674388
H            2.18978510925987        0.19818644612303        1.50287407115443
H            2.62952055873804        1.60599338868313        0.53562032035155
H           -0.08316891955372       -1.60324243497866       -1.73608942862761
18
 energy: -20.895102769224 gnorm: 0.000534979995 xtb: 6.7.1 (edcfbbe)
C           -1.64791858753369        1.20859027814680        0.70431052046146
C           -1.38598784495645        0.03780869606009       -0.23380975369851
C           -0.00890489517382       -0.61167875628594       -0.04586161364012
C            1.16252522218087        0.32815918007693       -0.38995339184721
C            1.80550644081471        0.96627411725223        0.83631486663533
O            0.06350949156894       -1.81360365382840       -0.80245119652676
H           -0.99299903944815        2.04458667048131        0.47552732573066
H           -2.67644344534960        1.54418482355273        0.59787249876169
H           -1.48869117437693        0.91141033200135        1.73809712322763
H           -2.13859296328090       -0.73643063749588       -0.06543485369511
H           -1.47911264921930        0.37383412501070       -1.27015606473385
H            0.09212540554552       -0.95064440524486        0.99136781534941
H            1.92049980122469       -0.26605301481701       -0.90599802591191
H            0.82170058411168        1.10600005440947       -1.07627805452832
H            1.08982765219455        1.56761829851249        1.38878985632966
H            2.19273954744967        0.19797296726441        1.50146027741722
H            2.63136975789394        1.60540559620390        0.53333644263524
H           -0.08275355666466       -1.60295596207000       -1.73505180643512
18
 energy: -20.895105871536 gnorm: 0.000235564366 xtb: 6.7.1 (edcfbbe)
C           -1.65060976452042        1.20826064755265        0.70503544837294
C           -1.38621320155664        0.03833462693652       -0.23372811012009
C           -0.00891777175107       -0.61123027953766       -0.04515140607596
C            1.16300609853677        0.32786082170322       -0.39013104868989
C            1.80780202359022        0.96619292869443        0.83539712674021
O            0.06278184280242       -1.81324020840764       -0.80109859043870
H           -0.99202248271299        2.04287359337438        0.48199054279752
H           -2.67760053948718        1.54658389735574        0.59224546346945
H           -1.49896117182928        0.90870320227995        1.73924361054644
H           -2.13858904068505       -0.73646081811314       -0.06686161702383
H           -1.47810762183445        0.37516052443084       -1.26989904149928
H            0.09195919085186       -0.94938074250297        0.99248664584209
H            1.92021979363938       -0.26719017410544       -0.90633063481740
H            0.82233219254782        1.10568922870301       -1.07648020482724
H            1.09287911499157        1.56719414810260        1.38921254349973
H            2.19669663448352        0.19798529623418        1.49968930701413
H            2.63279447886328        1.60559439497436        0.53065759891637
H           -0.08105002894872       -1.60245237844472       -1.73419566817511
18
 energy: -20.895107473825 gnorm: 0.000261983217 xtb: 6.7.1 (edcfbbe)
C           -1.65299124488217        1.20749308498665        0.70584834408646
C           -1.38627793528917        0.03927392279818       -0.23440137345157
C           -0.00907712289188       -0.61049631481945       -0.04435834214072
C            1.16304899401842        0.32806557380223       -0.39054830900798
C            1.80988109713156        0.96595647019382        0.83416146998753
O            0.06256766785417       -1.81359604425075       -0.79821675965446
H           -0.99031430874629        2.04065142614559        0.48946802364964
H           -2.67816815497329        1.54941653868840        0.58721738996906
H           -1.50913539494614        0.90462431092330        1.74025348501175
H           -2.13867918610471       -0.73615009179300       -0.07011582754323
H           -1.47635067185864        0.37776211042240       -1.27026743361379
H            0.09138629717908       -0.94672038291162        0.99402283299046
H            1.91935653848008       -0.26744151090984       -0.90757272061634
H            0.82214429991012        1.10616935262214       -1.07649421711529
H            1.09570881061195        1.56634015050401        1.38964436242020
H            2.20028908355148        0.19748950015266        1.49729974874710
H            2.63411673465620        1.60582216989313        0.52824679832905
H           -0.07910575671973       -1.60418155721752       -1.73210550651647
18
 energy: -20.895108015477 gnorm: 0.000148867580 xtb: 6.7.1 (edcfbbe)
C           -1.65450530955482        1.20673973398539        0.70622879768240
C           -1.38643107696793        0.03986521212108       -0.23511544010977
C           -0.00928126403100       -0.60962639967443       -0.04371582813868
C            1.16302151955704        0.32842937225639       -0.39092889526126
C            1.81133965005838        0.96557864527345        0.83334475711014
O            0.06261561608961       -1.81387146877797       -0.79561824179150
H           -0.98919013992043        2.03885698132139        0.49422778838193
H           -2.67844597847814        1.55118081617142        0.58419865656162
H           -1.51543806226231        0.90164440024758        1.74057307926173
H           -2.13906055152583       -0.73576920554146       -0.07290512389002
H           -1.47507859768693        0.37959059571823       -1.27067091743925
H            0.09072742139192       -0.94427000909133        0.99518128669205
H            1.91854412479119       -0.26703862264084       -0.90920752653317
H            0.82157579221069        1.10694578314503       -1.07617612461195
H            1.09780236253060        1.56538227562034        1.39037357896318
H            2.20293929893982        0.19676655870787        1.49541402480584
H            2.63497537760788        1.60597047904403        0.52682494943957
H           -0.07771043576871       -1.60589643865587       -1.72994685559147
18
 energy: -20.895108176467 gnorm: 0.000076104799 xtb: 6.7.1 (edcfbbe)
C           -1.65512192732054        1.20642567987437        0.70625654702417
C           -1.38640320511830        0.04025185225221       -0.23571997680698
C           -0.00943097382611       -0.60923385294468       -0.04335953064427
C            1.16263932892323        0.32893793905880       -0.39107192896190
C            1.81208843291308        0.96522258005572        0.83296710242195
O            0.06294892819437       -1.81431445453128       -0.79397594775507
H           -0.98882157583673        2.03820769460158        0.49611113877107
H           -2.67859188249374        1.55183614493079        0.58311270998184
H           -1.51784562538929        0.90019644992898        1.74049538458653
H           -2.13907205446056       -0.73552823022414       -0.07451477506687
H           -1.47433826767363        0.38060476200880       -1.27113547499640
H            0.09032056211112       -0.94281595003838        0.99587762184758
H            1.91768480546097       -0.26627003214753       -0.91031154934859
H            0.82079298117741        1.10794636799656       -1.07560592695040
H            1.09888816920428        1.56445121112220        1.39107520939985
H            2.20437995360314        0.19597031429198        1.49413279056277
H            2.63536145324974        1.60604152582777        0.52628006818265
H           -0.07707935573741       -1.60745129283344       -1.72853149671653
18
 energy: -20.895108268575 gnorm: 0.000056410481 xtb: 6.7.1 (edcfbbe)
C           -1.65536929931493        1.20631388299646        0.70606989916822
C           -1.38652406475009        0.04026406650160       -0.23598709268204
C           -0.00950496587912       -0.60888335004998       -0.04315680709366
C            1.16247249168368        0.32930959411867       -0.39113663774304
C            1.81251877603366        0.96488963534726        0.83290509340106
O            0.06325144543618       -1.81440772225770       -0.79306630733463
H           -0.98885981716166        2.03800851170767        0.49631066530005
H           -2.67873489797293        1.55193171697231        0.58271454567131
H           -1.51843402935677        0.89985935898907        1.74027195856774
H           -2.13925552418632       -0.73552793520460       -0.07509923994146
H           -1.47412670882652        0.38074948888092       -1.27138387932973
H            0.09010561940313       -0.94195488256228        0.99622391640234
H            1.91719527140612       -0.26554891823789       -0.91125414467031
H            0.82018602046270        1.10874154670370       -1.07495978314679
H            1.09951765771053        1.56355938092931        1.39189281199580
H            2.20539617729316        0.19526891395845        1.49328308197715
H            2.63544838608226        1.60613103359565        0.52618107499687
H           -0.07688279108204       -1.60822561315832       -1.72772719000749
