      -----------------------------------------------------------      
     |                   =====================                   |     
     |                           x T B                           |     
     |                   =====================                   |     
     |                         S. Grimme                         |     
     |          Mulliken Center for Theoretical Chemistry        |     
     |                    University of Bonn                     |     
      -----------------------------------------------------------      

   * xtb version 6.7.1 (edcfbbe) compiled by 'albert@albert-system' on 2024-07-22

   xtb is free software: you can redistribute it and/or modify it under
   the terms of the GNU Lesser General Public License as published by
   the Free Software Foundation, either version 3 of the License, or
   (at your option) any later version.
   
   xtb is distributed in the hope that it will be useful,
   but WITHOUT ANY WARRANTY; without even the implied warranty of
   MERCHANTABILITY or FITNESS FOR A PARTICULAR PURPOSE.  See the
   GNU Lesser General Public License for more details.
   
   Cite this work as:
   * C. Bannwarth, E. Caldeweyher, S. Ehlert, A. Hansen, P. Pracht,
     J. Seibert, S. Spicher, S. Grimme, WIREs Comput. Mol. Sci., 2020, 11,
     e01493. DOI: 10.1002/wcms.1493
   
   for GFN2-xTB:
   * C. Bannwarth, S. Ehlert and S. Grimme., J. Chem. Theory Comput., 2019,
     15, 1652-1671. DOI: 10.1021/acs.jctc.8b01176
   for GFN1-xTB:
   * S. Grimme, C. Bannwarth, P. Shushkov, J. Chem. Theory Comput., 2017,
     13, 1989-2009. DOI: 10.1021/acs.jctc.7b00118
   for GFN0-xTB:
   * P. Pracht, E. Caldeweyher, S. Ehlert, S. Grimme, ChemRxiv, 2019, preprint.
     DOI: 10.26434/chemrxiv.8326202.v1
   for GFN-FF:
   * S. Spicher and S. Grimme, Angew. Chem. Int. Ed., 2020, 59, 15665-15673.
     DOI: 10.1002/anie.202004239
   
   for ALPB and GBSA implicit solvation:
   * S. Ehlert, M. Stahn, S. Spicher, S. Grimme, J. Chem. Theory Comput.,
     2021, 17, 4250-4261. DOI: 10.1021/acs.jctc.1c00471
   
   for ddCOSMO and CPCM-X implicit solvation:
   * M. Stahn, S. Ehlert, S. Grimme, J. Phys. Chem. A,
     2023, XX, XXXX-XXXX. DOI: 10.1021/acs.jpca.3c04382
   
   for DFT-D4:
   * E. Caldeweyher, C. Bannwarth and S. Grimme, J. Chem. Phys., 2017,
     147, 034112. DOI: 10.1063/1.4993215
   * E. Caldeweyher, S. Ehlert, A. Hansen, H. Neugebauer, S. Spicher,
     C. Bannwarth and S. Grimme, J. Chem. Phys., 2019, 150, 154122.
     DOI: 10.1063/1.5090222
   * E. Caldeweyher, J.-M. Mewes, S. Ehlert and S. Grimme, Phys. Chem. Chem. Phys.
     2020, 22, 8499-8512. DOI: 10.1039/D0CP00502A
   
   for sTDA-xTB:
   * S. Grimme and C. Bannwarth, J. Chem. Phys., 2016, 145, 054103.
     DOI: 10.1063/1.4959605
   
   in the mass-spec context:
   * V. Asgeirsson, C. Bauer and S. Grimme, Chem. Sci., 2017, 8, 4879.
     DOI: 10.1039/c7sc00601b
   * J. Koopman and S. Grimme, ACS Omega 2019, 4, 12, 15120-15133.
     DOI: 10.1021/acsomega.9b02011
   
   for metadynamics refer to:
   * S. Grimme, J. Chem. Theory Comput., 2019, 155, 2847-2862
     DOI: 10.1021/acs.jctc.9b00143
   
   for SPH calculations refer to:
   * S. Spicher and S. Grimme, J. Chem. Theory Comput., 2021, 17, 1701-1714
     DOI: 10.1021/acs.jctc.0c01306
   
   for ONIOM refer to:
   * C. Plett, A. Katbashev, S. Ehlert, S. Grimme, M. Bursch,
     Phys. Chem. Chem. Phys., 2023, 25, 17860-17868. DOI: 10.1039/D3CP02178E
   
   for DIPRO refer to:
   * J. Kohn, N. Gildemeister, S. Grimme, D. Fazzi, A. Hansen,
     J. Chem. Phys., 2023, just accepted.
   
   for PTB refer to:
   * S. Grimme, M. Mueller, A. Hansen, J. Chem. Phys., 2023, 158, 124111.
     DOI: 10.1063/5.0137838
   
   with help from (in alphabetical order)
   P. Atkinson, C. Bannwarth, F. Bohle, G. Brandenburg, E. Caldeweyher
   M. Checinski, S. Dohm, S. Ehlert, S. Ehrlich, I. Gerasimov, C. Hölzer
   A. Katbashev, J. Kohn, J. Koopman, C. Lavigne, S. Lehtola, F. März, M. Müller,
   F. Musil, H. Neugebauer, J. Pisarek, C. Plett, P. Pracht, F. Pultar,
   J. Seibert, P. Shushkov, S. Spicher, M. Stahn, M. Steiner, T. Strunk,
   J. Stückrath, T. Rose, and J. Unsleber
   
 * started run on 2025/04/11 at 11:49:16.797     
   ID    Z sym.   atoms
    1    6 C      1, 3, 4
    2    8 O      2
    3   17 Cl     5, 6
    4    9 F      7, 8
    5    1 H      9-12

           -------------------------------------------------
          |                Calculation Setup                |
           -------------------------------------------------

          program call               : /srv/scratch/z5358697/.xtb/bin/xtb gas.coord --gfn2 --sp --chrg 0 --norestart --parallel 1
          hostname                   : k121
          coordinate file            : gas.coord
          omp threads                :                     1


           -------------------------------------------------
          |                 G F N 2 - x T B                 |
           -------------------------------------------------

        Reference                      10.1021/acs.jctc.8b01176
      * Hamiltonian:
        H0-scaling (s, p, d)           1.850000    2.230000    2.230000
        zeta-weighting                 0.500000
      * Dispersion:
        s8                             2.700000
        a1                             0.520000
        a2                             5.000000
        s9                             5.000000
      * Repulsion:
        kExp                           1.500000    1.000000
        rExp                           1.000000
      * Coulomb:
        alpha                          2.000000
        third order                    shell-resolved
        anisotropic                    true
        a3                             3.000000
        a5                             4.000000
        cn-shift                       1.200000
        cn-exp                         4.000000
        max-rad                        5.000000


          ...................................................
          :                      SETUP                      :
          :.................................................:
          :  # basis functions                  48          :
          :  # atomic orbitals                  46          :
          :  # shells                           22          :
          :  # electrons                        50          :
          :  max. iterations                   250          :
          :  Hamiltonian                  GFN2-xTB          :
          :  restarted?                      false          :
          :  GBSA solvation                  false          :
          :  PC potential                    false          :
          :  electronic temp.          300.0000000     K    :
          :  accuracy                    1.0000000          :
          :  -> integral cutoff          0.2500000E+02      :
          :  -> integral neglect         0.1000000E-07      :
          :  -> SCF convergence          0.1000000E-05 Eh   :
          :  -> wf. convergence          0.1000000E-03 e    :
          :  Broyden damping             0.4000000          :
          :  net charge                          0          :
          :  unpaired electrons                  0          :
          ...................................................

 iter      E             dE          RMSdq      gap      omega  full diag
   1    -31.1378283 -0.311378E+02  0.529E+00    6.14       0.0  T
   2    -31.2055941 -0.677658E-01  0.310E+00    5.83       1.0  T
   3    -31.2087110 -0.311685E-02  0.148E+00    6.03       1.0  T
   4    -31.2110818 -0.237088E-02  0.233E-01    5.91       1.0  T
   5    -31.2113723 -0.290472E-03  0.985E-02    5.94       1.0  T
   6    -31.2113847 -0.123438E-04  0.568E-02    5.94       1.0  T
   7    -31.2113924 -0.770126E-05  0.324E-02    5.94       1.0  T
   8    -31.2113966 -0.422170E-05  0.180E-02    5.94       1.6  T
   9    -31.2113984 -0.184059E-05  0.786E-03    5.94       3.7  T
  10    -31.2113987 -0.244993E-06  0.561E-03    5.94       5.1  T
  11    -31.2113988 -0.170156E-06  0.378E-03    5.94       7.6  T
  12    -31.2113990 -0.117681E-06  0.143E-03    5.94      20.1  T
  13    -31.2113990 -0.983070E-08  0.750E-04    5.94      38.5  T
  14    -31.2113990 -0.237493E-08  0.502E-04    5.94      57.5  T

   *** convergence criteria satisfied after 14 iterations ***

         #    Occupation            Energy/Eh            Energy/eV
      -------------------------------------------------------------
         1        2.0000           -1.0923992             -29.7257
       ...           ...                  ...                  ...
        19        2.0000           -0.5275003             -14.3540
        20        2.0000           -0.5073146             -13.8047
        21        2.0000           -0.4835128             -13.1571
        22        2.0000           -0.4627028             -12.5908
        23        2.0000           -0.4620766             -12.5737
        24        2.0000           -0.4531026             -12.3296
        25        2.0000           -0.4463220             -12.1450 (HOMO)
        26                         -0.2279952              -6.2041 (LUMO)
        27                         -0.1903237              -5.1790
        28                         -0.0634931              -1.7277
        29                         -0.0472045              -1.2845
        30                         -0.0301874              -0.8214
       ...                                ...                  ...
        46                          0.2606208               7.0919
      -------------------------------------------------------------
                  HL-Gap            0.2183268 Eh            5.9410 eV
             Fermi-level           -0.3371586 Eh           -9.1746 eV

 SCC (total)                   0 d,  0 h,  0 min,  0.024 sec
 SCC setup                      ...        0 min,  0.000 sec (  0.684%)
 Dispersion                     ...        0 min,  0.000 sec (  0.168%)
 classical contributions        ...        0 min,  0.000 sec (  0.051%)
 integral evaluation            ...        0 min,  0.014 sec ( 58.527%)
 iterations                     ...        0 min,  0.006 sec ( 24.675%)
 molecular gradient             ...        0 min,  0.004 sec ( 15.351%)
 printout                       ...        0 min,  0.000 sec (  0.478%)

         :::::::::::::::::::::::::::::::::::::::::::::::::::::
         ::                     SUMMARY                     ::
         :::::::::::::::::::::::::::::::::::::::::::::::::::::
         :: total energy             -31.087588529578 Eh    ::
         :: gradient norm              0.022868002045 Eh/a0 ::
         :: HOMO-LUMO gap              5.940973427017 eV    ::
         ::.................................................::
         :: SCC energy               -31.211385255916 Eh    ::
         :: -> isotropic ES            0.056949897891 Eh    ::
         :: -> anisotropic ES         -0.001352912480 Eh    ::
         :: -> anisotropic XC         -0.010917114960 Eh    ::
         :: -> dispersion             -0.009509877482 Eh    ::
         :: repulsion energy           0.123796726338 Eh    ::
         :: add. restraining           0.000000000000 Eh    ::
         :: total charge              -0.000000000000 e     ::
         :::::::::::::::::::::::::::::::::::::::::::::::::::::

           -------------------------------------------------
          |                Property Printout                |
           -------------------------------------------------

    * Orbital Energies and Occupations

         #    Occupation            Energy/Eh            Energy/eV
      -------------------------------------------------------------
         1        2.0000           -1.0923992             -29.7257
       ...           ...                  ...                  ...
        13        2.0000           -0.5693365             -15.4924
        14        2.0000           -0.5628485             -15.3159
        15        2.0000           -0.5542205             -15.0811
        16        2.0000           -0.5403107             -14.7026
        17        2.0000           -0.5377705             -14.6335
        18        2.0000           -0.5314579             -14.4617
        19        2.0000           -0.5275003             -14.3540
        20        2.0000           -0.5073146             -13.8047
        21        2.0000           -0.4835128             -13.1571
        22        2.0000           -0.4627028             -12.5908
        23        2.0000           -0.4620766             -12.5737
        24        2.0000           -0.4531026             -12.3296
        25        2.0000           -0.4463220             -12.1450 (HOMO)
        26                         -0.2279952              -6.2041 (LUMO)
        27                         -0.1903237              -5.1790
        28                         -0.0634931              -1.7277
        29                         -0.0472045              -1.2845
        30                         -0.0301874              -0.8214
        31                         -0.0221984              -0.6040
        32                         -0.0209719              -0.5707
        33                         -0.0201920              -0.5495
        34                         -0.0187681              -0.5107
        35                         -0.0152397              -0.4147
        36                         -0.0150676              -0.4100
       ...                                ...                  ...
        46                          0.2606208               7.0919
      -------------------------------------------------------------
                  HL-Gap            0.2183268 Eh            5.9410 eV
             Fermi-level           -0.3371586 Eh           -9.1746 eV

     #   Z          covCN         q      C6AA      α(0)
     1   6 C        3.643     0.014    20.696     6.540
     2   8 O        1.702    -0.278    18.620     5.826
     3   6 C        3.489     0.463    15.410     5.848
     4   6 C        3.677     0.099    19.164     6.272
     5  17 Cl       1.058    -0.110   102.603    15.497
     6  17 Cl       1.049    -0.099   102.263    15.471
     7   9 F        0.789    -0.190    11.135     3.942
     8   9 F        0.786    -0.241    11.671     4.035
     9   1 H        0.925     0.067     2.115     2.274
    10   1 H        0.925     0.104     1.747     2.067
    11   1 H        0.925     0.071     2.072     2.251
    12   1 H        0.924     0.102     1.771     2.081

 Mol. C6AA /au·bohr⁶  :       2449.580289
 Mol. C8AA /au·bohr⁸  :      70497.302304
 Mol. α(0) /au        :         72.103943


Wiberg/Mayer (AO) data.
largest (>0.10) Wiberg bond orders for each atom

 ---------------------------------------------------------------------------
     #   Z sym  total        # sym  WBO       # sym  WBO       # sym  WBO
 ---------------------------------------------------------------------------
     1   6 C    3.902 --    11 H    0.982     9 H    0.980    10 H    0.977
                             2 O    0.932
     2   8 O    2.154 --     3 C    1.066     1 C    0.932
     3   6 C    3.889 --     2 O    1.066     7 F    0.952     4 C    0.934
                             8 F    0.892
     4   6 C    3.942 --     6 Cl   0.986     5 Cl   0.979    12 H    0.964
                             3 C    0.934
     5  17 Cl   1.068 --     4 C    0.979
     6  17 Cl   1.071 --     4 C    0.986
     7   9 F    1.078 --     3 C    0.952
     8   9 F    1.030 --     3 C    0.892
     9   1 H    0.995 --     1 C    0.980
    10   1 H    0.989 --     1 C    0.977
    11   1 H    0.995 --     1 C    0.982
    12   1 H    0.990 --     4 C    0.964
 ---------------------------------------------------------------------------

Topologies differ in total number of bonds
Writing topology from bond orders to xtbtopo.mol

molecular dipole:
                 x           y           z       tot (Debye)
 q only:       -0.364       1.478       0.676
   full:       -0.199       1.422       0.574       3.930
molecular quadrupole (traceless):
                xx          xy          yy          xz          yz          zz
 q only:       -0.409      -4.461       3.020      -4.247       2.385      -2.611
  q+dip:        0.339      -4.420       2.941      -3.891       1.540      -3.280
   full:       -0.287      -5.180       2.729      -4.073       1.910      -2.443


           -------------------------------------------------
          | TOTAL ENERGY              -31.087588529578 Eh   |
          | GRADIENT NORM               0.022868002045 Eh/α |
          | HOMO-LUMO GAP               5.940973427017 eV   |
           -------------------------------------------------

------------------------------------------------------------------------
 * finished run on 2025/04/11 at 11:49:16.847     
------------------------------------------------------------------------
 total:
 * wall-time:     0 d,  0 h,  0 min,  0.050 sec
 *  cpu-time:     0 d,  0 h,  0 min,  0.019 sec
 * ratio c/w:     0.389 speedup
 SCF:
 * wall-time:     0 d,  0 h,  0 min,  0.024 sec
 *  cpu-time:     0 d,  0 h,  0 min,  0.013 sec
 * ratio c/w:     0.521 speedup

