
                                 *****************
                                 * O   R   C   A *
                                 *****************

                                            #,                                       
                                            ###                                      
                                            ####                                     
                                            #####                                    
                                            ######                                   
                                           ########,                                 
                                     ,,################,,,,,                         
                               ,,#################################,,                 
                          ,,##########################################,,             
                       ,#########################################, ''#####,          
                    ,#############################################,,   '####,        
                  ,##################################################,,,,####,       
                ,###########''''           ''''###############################       
              ,#####''   ,,,,##########,,,,          '''####'''          '####       
            ,##' ,,,,###########################,,,                        '##       
           ' ,,###''''                  '''############,,,                           
         ,,##''                                '''############,,,,        ,,,,,,###''
      ,#''                                            '''#######################'''  
     '                                                          ''''####''''         
             ,#######,   #######,   ,#######,      ##                                
            ,#'     '#,  ##    ##  ,#'     '#,    #''#        ,####,   ,####,        
            ##       ##  ##   ,#'  ##            #'  '#       #'       #'  '#        
            ##       ##  #######   ##           ,######,      #####,   #    #        
            '#,     ,#'  ##    ##  '#,     ,#' ,#      #,     #,   #   #,  ,#        
             '#######'   ##     ##  '#######'  #'      '#     '####' # '####'        



                #########################################################
                #                        -***-                          #
                #          Department of theory and spectroscopy        #
                #                                                       #
                #                      Frank Neese                      #
                #                                                       #
                #     Directorship, Architecture, Infrastructure        #
                #                    SHARK, DRIVERS                     #
                #        Core code/Algorithms in most modules           #
                #                                                       #
                #        Max Planck Institute fuer Kohlenforschung      #
                #                Kaiser Wilhelm Platz 1                 #
                #                 D-45470 Muelheim/Ruhr                 #
                #                      Germany                          #
                #                                                       #
                #                  All rights reserved                  #
                #                        -***-                          #
                #########################################################


                         Program Version 6.0.0  -   RELEASE  -


 With contributions from (in alphabetic order):
   Daniel Aravena         : Magnetic Suceptibility
   Michael Atanasov       : Ab Initio Ligand Field Theory (pilot matlab implementation)
   Alexander A. Auer      : GIAO ZORA, VPT2 properties, NMR spectrum
   Ute Becker             : All parallelization in ORCA, NUMFREQ, NUMCALC
   Giovanni Bistoni       : ED, misc. LED, open-shell LED, HFLD
   Martin Brehm           : Molecular dynamics
   Dmytro Bykov           : pre 5.0 version of the SCF Hessian
   Marcos Casanova-Páez   : Triplet and SCS-CIS(D). UHF-(DLPNO)-IP/EA/STEOM-CCSD. UHF-CVS-IP/STEOM-CCSD
   Vijay G. Chilkuri      : MRCI spin determinant printing, contributions to CSF-ICE
   Pauline Colinet        : FMM embedding
   Dipayan Datta          : RHF DLPNO-CCSD density
   Achintya Kumar Dutta   : EOM-CC, STEOM-CC
   Nicolas Foglia         : Exact transition moments, OPA infrastructure, MCD improvements
   Dmitry Ganyushin       : Spin-Orbit,Spin-Spin,Magnetic field MRCI
   Miquel Garcia          : C-PCM and meta-GGA Hessian, CCSD/C-PCM, Gaussian charge scheme
   Tiago L. C. Gouveia    : GS-ROHF, GS-ROCIS
   Yang Guo               : DLPNO-NEVPT2, F12-NEVPT2, CIM, IAO-localization
   Andreas Hansen         : Spin unrestricted coupled pair/coupled cluster methods
   Ingolf Harden          : AUTO-CI MPn and infrastructure 
   Benjamin Helmich-Paris : MC-RPA, TRAH-(SCF,CASSCF), AVAS, COSX integrals, SCF dyn. polar.
   Lee Huntington         : MR-EOM, pCC
   Robert Izsak           : Overlap fitted RIJCOSX, COSX-SCS-MP3, EOM
   Riya Kayal             : Wick's Theorem for AUTO-CI, AUTO-CI UHF-CCSDT
   Emily Kempfer          : AUTO-CI, RHF CISDT and CCSDT
   Christian Kollmar      : KDIIS, OOCD, Brueckner-CCSD(T), CCSD density, CASPT2, CASPT2-K, improved NEVPT2
   Axel Koslowski         : Symmetry handling
   Simone Kossmann        : Meta GGA functionals, TD-DFT gradient, OOMP2, (MP2 Hessian; deprecated post 5.0)
   Lucas Lang             : DCDCAS
   Marvin Lechner         : AUTO-CI (C++ implementation), FIC-MRCC
   Spencer Leger          : CASSCF response
   Dagmar Lenk            : GEPOL surface, SMD, ORCA-2-JSON
   Dimitrios Liakos       : Extrapolation schemes; Compound Job, initial MDCI parallelization
   Dimitrios Manganas     : Further ROCIS development; embedding schemes. LFT, Crystal Embedding
   Dimitrios Pantazis     : SARC Basis sets
   Anastasios Papadopoulos: AUTO-CI, single reference methods and gradients
   Taras Petrenko         : pre 6.0 DFT Hessian and TD-DFT gradient, (ASA, deprecated), ECA, 1-Electron XAS/XES, NRVS
   Peter Pinski           : DLPNO-MP2, DLPNO-MP2 Gradient
   Christoph Reimann      : Effective Core Potentials
   Marius Retegan         : Local ZFS, SOC
   Christoph Riplinger    : Optimizer, TS searches, QM/MM, DLPNO-CCSD(T), (RO)-DLPNO pert. Triples
   Michael Roemelt        : Original ROCIS implementation
   Masaaki Saitow         : Open-shell DLPNO-CCSD energy and density
   Barbara Sandhoefer     : DKH picture change effects
   Kantharuban Sivalingam : CASSCF convergence/infrastructure, NEVPT2 and variants, FIC-MRCI
   Bernardo de Souza      : ESD, SOC TD-DFT
   Georgi Stoychev        : AutoAux, RI-MP2 NMR, DLPNO-MP2 response, X2C
   Van Anh Tran           : RI-MP2 g-tensors
   Willem Van den Heuvel  : Paramagnetic NMR
   Zikuan Wang            : NOTCH, Electric field optimization 
   Frank Wennmohs         : Technical directorship and infrastructure
   Hang Xu                : AUTO-CI-Response properties 


 We gratefully acknowledge several colleagues who have allowed us to
 interface, adapt or use parts of their codes:
   Stefan Grimme, W. Hujo, H. Kruse, P. Pracht,  : VdW corrections, initial TS optimization,
                  C. Bannwarth, S. Ehlert,         DFT functionals, gCP, sTDA/sTD-DF
                  L. Wittmann, M. Mueller
   Ed Valeev, F. Pavosevic, A. Kumar             : LibInt (2-el integral package), F12 methods
   Garnet Chan, S. Sharma, J. Yang, R. Olivares  : DMRG
   Ulf Ekstrom                                   : XCFun DFT Library
   Mihaly Kallay                                 : mrcc  (arbitrary order and MRCC methods)
   Frank Weinhold                                : gennbo (NPA and NBO analysis)
   Simon Mueller                                 : openCOSMO-RS
   Christopher J. Cramer and Donald G. Truhlar   : smd solvation model
   Lars Goerigk                                  : TD-DFT with DH, B97 family of functionals
   V. Asgeirsson, H. Jonsson                     : NEB implementation
   FAccTs GmbH                                   : IRC, NEB, NEB-TS, DLPNO-Multilevel, CI-OPT
                                                   MM, QMMM, 2- and 3-layer-ONIOM, Crystal-QMMM,
                                                   LR-CPCM, SF, NACMEs, symmetry and pop. for TD-DFT,
                                                   nearIR, NL-DFT gradient (VV10), updates on ESD,
                                                   ML-optimized integration grids, MBIS, APM,
                                                   GOAT, DOCKER, SOLVATOR, interface openCOSMO-RS
   S Lehtola, MJT Oliveira, MAL Marques          : LibXC Library
   Liviu Ungur et al                             : ANISO software


 Your calculation uses the libint2 library for the computation of 2-el integrals
 For citations please refer to: http://libint.valeyev.net

 Your ORCA version has been built with support for libXC version: 6.2.2
 For citations please refer to: https://libxc.gitlab.io

 This ORCA versions uses:
   CBLAS   interface :  Fast vector & matrix operations
   LAPACKE interface :  Fast linear algebra routines
   SCALAPACK package :  Parallel linear algebra routines
   Shared memory     :  Shared parallel matrices
   BLAS/LAPACK       :  OpenBLAS 0.3.27  USE64BITINT DYNAMIC_ARCH NO_AFFINITY SkylakeX SINGLE_THREADED
        Core in use  :  SkylakeX
   Copyright (c) 2011-2014, The OpenBLAS Project


Your calculation utilizes the geometrical counterpoise correction gCP
Please cite in your paper:
H.Kruse, S. Grimme J.Chem.Phys., 136, (2012), 154101 
   

Your calculation utilizes the atom-pairwise dispersion correction
based on EEQ partial charges (D4)


Your calculation utilizes the SMD solvation module
Please cite in your paper:
A.V. Marenich, C.J. Cramer, D.G. Truhlar J. Phys. Chem. B, 113, (2009), 6378 

================================================================================

----- Orbital basis set information -----
Your calculation utilizes the basis: def2-mTZVPP
   Stefan Grimme, Andreas Hansen, Sebastian Ehlert, and Jan-Michael Mewes 
   J. Chem. Phys. 154, 064103 (2021). DOI: 10.1063/5.0040021

----- AuxJ basis set information -----
Your calculation utilizes the auxiliary basis: def2/J
   F. Weigend, Phys. Chem. Chem. Phys. 8, 1057 (2006).

================================================================================
                                        WARNINGS
                       Please study these warnings very carefully!
================================================================================

Using LibXC functional ID 497 : Re-regularized SCAN exchange by Furness et al
[ 1]  J. W. Furness, A. D. Kaplan, J. Ning, J. P. Perdew, and J. Sun.,  J. Phys. Chem. Lett. 11, 8208-8215 (2020)
[ 2]  J. W. Furness, A. D. Kaplan, J. Ning, J. P. Perdew, and J. Sun.,  J. Phys. Chem. Lett. 11, 9248-9248 (2020)
Using LibXC functional ID 498 : Re-regularized SCAN correlation by Furness et al
[ 1]  J. W. Furness, A. D. Kaplan, J. Ning, J. P. Perdew, and J. Sun.,  J. Phys. Chem. Lett. 11, 8208-8215 (2020)
[ 2]  J. W. Furness, A. D. Kaplan, J. Ning, J. P. Perdew, and J. Sun.,  J. Phys. Chem. Lett. 11, 9248-9248 (2020)
Using LibXC functional ID 497 : Re-regularized SCAN exchange by Furness et al
[ 1]  J. W. Furness, A. D. Kaplan, J. Ning, J. P. Perdew, and J. Sun.,  J. Phys. Chem. Lett. 11, 8208-8215 (2020)
[ 2]  J. W. Furness, A. D. Kaplan, J. Ning, J. P. Perdew, and J. Sun.,  J. Phys. Chem. Lett. 11, 9248-9248 (2020)
Using LibXC functional ID 498 : Re-regularized SCAN correlation by Furness et al
[ 1]  J. W. Furness, A. D. Kaplan, J. Ning, J. P. Perdew, and J. Sun.,  J. Phys. Chem. Lett. 11, 8208-8215 (2020)
[ 2]  J. W. Furness, A. D. Kaplan, J. Ning, J. P. Perdew, and J. Sun.,  J. Phys. Chem. Lett. 11, 9248-9248 (2020)

================================================================================
                                       INPUT FILE
================================================================================
NAME = sp_solv.inp
|  1> ! r2scan-3c def2/J RI DEFGRID2 scfconv6 printgap
|  2> %output
|  3>     printlevel normal
|  4> end
|  5> %cpcm
|  6>     smd true
|  7>     smdsolvent "water"
|  8> end
|  9> * xyz 0 1
| 10> C -1.9351011594 0.2681579077 -0.5962273568
| 11> C -1.0515947725 0.2472830552 0.6474027048
| 12> N -0.0053098204 -0.7625141421 0.5517471374
| 13> C 1.0364726342 -0.5199483948 -0.4325539632
| 14> C 1.9296585883 0.6981293278 -0.1711335986
| 15> H -1.404003811 0.6794657912 -1.4503697903
| 16> H -2.2541232348 -0.7421206483 -0.8354902582
| 17> H -2.8116043369 0.8829213543 -0.4107103193
| 18> H -1.6652305944 -0.0253851189 1.510125733
| 19> H -0.6551558537 1.260546606 0.8290075406
| 20> H 0.4274842253 -0.8737053474 1.4632333852
| 21> H 1.658276672 -1.4195721535 -0.4524159569
| 22> H 0.5609155527 -0.4238363431 -1.4103429564
| 23> H 2.3868489991 0.6288613494 0.8144771745
| 24> H 2.7183540009 0.7425197259 -0.9168980565
| 25> H 1.3570769346 1.6211956389 -0.2240929981
| 26> *
| 27> 
| 28>                          ****END OF INPUT****
================================================================================

                       ****************************
                       * Single Point Calculation *
                       ****************************

---------------------------------
CARTESIAN COORDINATES (ANGSTROEM)
---------------------------------
  C     -1.935101    0.268158   -0.596227
  C     -1.051595    0.247283    0.647403
  N     -0.005310   -0.762514    0.551747
  C      1.036473   -0.519948   -0.432554
  C      1.929659    0.698129   -0.171134
  H     -1.404004    0.679466   -1.450370
  H     -2.254123   -0.742121   -0.835490
  H     -2.811604    0.882921   -0.410710
  H     -1.665231   -0.025385    1.510126
  H     -0.655156    1.260547    0.829008
  H      0.427484   -0.873705    1.463233
  H      1.658277   -1.419572   -0.452416
  H      0.560916   -0.423836   -1.410343
  H      2.386849    0.628861    0.814477
  H      2.718354    0.742520   -0.916898
  H      1.357077    1.621196   -0.224093

----------------------------
CARTESIAN COORDINATES (A.U.)
----------------------------
  NO LB      ZA    FRAG     MASS         X           Y           Z
   0 C     6.0000    0    12.011   -3.656811    0.506745   -1.126706
   1 C     6.0000    0    12.011   -1.987226    0.467297    1.223414
   2 N     7.0000    0    14.007   -0.010034   -1.440943    1.042651
   3 C     6.0000    0    12.011    1.958649   -0.982560   -0.817409
   4 C     6.0000    0    12.011    3.646526    1.319273   -0.323396
   5 H     1.0000    0     1.008   -2.653183    1.284004   -2.740802
   6 H     1.0000    0     1.008   -4.259676   -1.402405   -1.578848
   7 H     1.0000    0     1.008   -5.313162    1.668480   -0.776130
   8 H     1.0000    0     1.008   -3.146830   -0.047971    2.853724
   9 H     1.0000    0     1.008   -1.238065    2.382088    1.566597
  10 H     1.0000    0     1.008    0.807828   -1.651064    2.765110
  11 H     1.0000    0     1.008    3.133689   -2.682603   -0.854942
  12 H     1.0000    0     1.008    1.059977   -0.800935   -2.665162
  13 H     1.0000    0     1.008    4.510491    1.188376    1.539139
  14 H     1.0000    0     1.008    5.136945    1.403159   -1.732686
  15 H     1.0000    0     1.008    2.564504    3.063616   -0.423474

--------------------------------
INTERNAL COORDINATES (ANGSTROEM)
--------------------------------
 C      0   0   0     0.000000000000     0.00000000     0.00000000
 C      1   0   0     1.525658882344     0.00000000     0.00000000
 N      2   1   0     1.457241424144   111.82425788     0.00000000
 C      3   2   1     1.453615314008   116.32019406    68.56724106
 C      4   3   2     1.532917184300   115.76686960    65.38508313
 H      1   2   3     1.086645234293   111.27697612   288.54488450
 H      1   2   3     1.086132856189   109.69020601    49.00360174
 H      1   2   3     1.086558091703   109.61581061   168.75155161
 H      2   1   3     1.093246485690   108.76136701   242.81803242
 H      2   1   3     1.103107953060   109.25344488   125.73650389
 H      3   2   1     1.015126272962   108.84890972   191.72683288
 H      4   3   2     1.093781361807   106.40794834   186.63860309
 H      4   3   2     1.091541744264   108.00051678   302.02446990
 H      5   4   3     1.088691747287   110.39699908    55.82256567
 H      5   4   3     1.086358867026   109.78043619   175.53424401
 H      5   4   3     1.087522810261   111.06153088   295.28421086

---------------------------
INTERNAL COORDINATES (A.U.)
---------------------------
 C      0   0   0     0.000000000000     0.00000000     0.00000000
 C      1   0   0     2.883077461415     0.00000000     0.00000000
 N      2   1   0     2.753787202637   111.82425788     0.00000000
 C      3   2   1     2.746934847549   116.32019406    68.56724106
 C      4   3   2     2.896793664309   115.76686960    65.38508313
 H      1   2   3     2.053461897545   111.27697612   288.54488450
 H      1   2   3     2.052493643250   109.69020601    49.00360174
 H      1   2   3     2.053297221915   109.61581061   168.75155161
 H      2   1   3     2.065936454825   108.76136701   242.81803242
 H      2   1   3     2.084571927435   109.25344488   125.73650389
 H      3   2   1     1.918310647247   108.84890972   191.72683288
 H      4   3   2     2.066947224202   106.40794834   186.63860309
 H      4   3   2     2.062714960401   108.00051678   302.02446990
 H      5   4   3     2.057329246632   110.39699908    55.82256567
 H      5   4   3     2.052920741837   109.78043619   175.53424401
 H      5   4   3     2.055120275785   111.06153088   295.28421086

---------------------
BASIS SET INFORMATION
---------------------
There are 3 groups of distinct atoms

 Group   1 Type C   : 11s6p1d contracted to 5s3p1d pattern {62111/411/1}
 Group   2 Type N   : 11s6p2d contracted to 5s3p2d pattern {62111/411/11}
 Group   3 Type H   : 4s1p contracted to 2s1p pattern {31/1}

Atom   0C    basis set group =>   1
Atom   1C    basis set group =>   1
Atom   2N    basis set group =>   2
Atom   3C    basis set group =>   1
Atom   4C    basis set group =>   1
Atom   5H    basis set group =>   3
Atom   6H    basis set group =>   3
Atom   7H    basis set group =>   3
Atom   8H    basis set group =>   3
Atom   9H    basis set group =>   3
Atom  10H    basis set group =>   3
Atom  11H    basis set group =>   3
Atom  12H    basis set group =>   3
Atom  13H    basis set group =>   3
Atom  14H    basis set group =>   3
Atom  15H    basis set group =>   3
---------------------------------
AUXILIARY/J BASIS SET INFORMATION
---------------------------------
There are 3 groups of distinct atoms

 Group   1 Type C   : 12s5p4d2f1g contracted to 6s4p3d1f1g pattern {711111/2111/211/2/1}
 Group   2 Type N   : 12s5p4d2f1g contracted to 6s4p3d1f1g pattern {711111/2111/211/2/1}
 Group   3 Type H   : 5s2p1d contracted to 3s1p1d pattern {311/2/1}

Atom   0C    basis set group =>   1
Atom   1C    basis set group =>   1
Atom   2N    basis set group =>   2
Atom   3C    basis set group =>   1
Atom   4C    basis set group =>   1
Atom   5H    basis set group =>   3
Atom   6H    basis set group =>   3
Atom   7H    basis set group =>   3
Atom   8H    basis set group =>   3
Atom   9H    basis set group =>   3
Atom  10H    basis set group =>   3
Atom  11H    basis set group =>   3
Atom  12H    basis set group =>   3
Atom  13H    basis set group =>   3
Atom  14H    basis set group =>   3
Atom  15H    basis set group =>   3

Checking for AutoStart:
The File: sp_solv.gbw exists
Trying to determine its content:
     ... Fine, the file contains calculation information
     ... Fine, the calculation information was read
     ... Fine, the file contains a basis set
     ... Fine, the basis set was read
     ... Fine, the file contains a geometry
     ... Fine, the geometry was read
     ... Fine, the file contains a set of orbitals
     ... Fine, the orbitals can be read
     => possible old guess file was deleted
     => GBW file was renamed to GES file
     => GES file is set as startup file
     => Guess is set to MORead
     ... now leaving AutoStart

------------------------------------------------------------------------------
                             ORCA STARTUP CALCULATIONS
                           -- RI-GTO INTEGRALS CHOSEN --
------------------------------------------------------------------------------
------------------------------------------------------------------------------
                   ___                                                        
                  /   \      - P O W E R E D   B Y -                         
                 /     \                                                     
                 |  |  |   _    _      __       _____    __    __             
                 |  |  |  | |  | |    /  \     |  _  \  |  |  /  |          
                  \  \/   | |  | |   /    \    | | | |  |  | /  /          
                 / \  \   | |__| |  /  /\  \   | |_| |  |  |/  /          
                |  |  |   |  __  | /  /__\  \  |    /   |      \           
                |  |  |   | |  | | |   __   |  |    \   |  |\   \          
                \     /   | |  | | |  |  |  |  | |\  \  |  | \   \       
                 \___/    |_|  |_| |__|  |__|  |_| \__\ |__|  \__/        
                                                                              
                      - O R C A' S   B I G   F R I E N D -                    
                                      &                                       
                       - I N T E G R A L  F E E D E R -                       
                                                                              
 v1 FN, 2020, v2 2021, v3 2022-2024                                           
------------------------------------------------------------------------------


----------------------
SHARK INTEGRAL PACKAGE
----------------------

Number of atoms                             ...     16
Number of basis functions                   ...    155
Number of shells                            ...     79
Maximum angular momentum                    ...      2
Integral batch strategy                     ... SHARK/LIBINT Hybrid
RI-J (if used) integral strategy            ... SPLIT-RIJ (Revised 2003 algorithm where possible)
Printlevel                                  ...      1
Contraction scheme used                     ... SEGMENTED contraction
Prescreening option                         ... SCHWARTZ
   Thresh                                   ... 1.000e-10
   Tcut                                     ... 1.000e-11
   Tpresel                                  ... 1.000e-11 
Coulomb Range Separation                    ... NOT USED
Exchange Range Separation                   ... NOT USED
Multipole approximations                    ... NOT USED
Finite Nucleus Model                        ... NOT USED
CABS basis                                  ... NOT available
Auxiliary Coulomb fitting basis             ... AVAILABLE
   # of basis functions in Aux-J            ...    366
   # of shells in Aux-J                     ...    130
   Maximum angular momentum in Aux-J        ...      4
Auxiliary J/K fitting basis                 ... NOT available
Auxiliary Correlation fitting basis         ... NOT available
Auxiliary 'external' fitting basis          ... NOT available

Checking pre-screening integrals            ... done (  0.0 sec) Dimension = 79
Check shell pair data                       ... done (  0.0 sec)
Shell pair information
Shell pair cut-off parameter TPreSel        ...   1.0e-11
Total number of shell pairs                 ...      3160
Shell pairs after pre-screening             ...      3007
Total number of primitive shell pairs       ...     10874
Primitive shell pairs kept                  ...      7830
          la=0 lb=0:   1065 shell pairs
          la=1 lb=0:   1158 shell pairs
          la=1 lb=1:    334 shell pairs
          la=2 lb=0:    277 shell pairs
          la=2 lb=1:    152 shell pairs
          la=2 lb=2:     21 shell pairs

Calculating one electron integrals          ... done (  0.0 sec)
Calculating RI/J V-Matrix + Cholesky decomp.... done (  0.1 sec)
Calculating Nuclear repulsion               ... done (  0.0 sec) ENN=    193.761782086361 Eh

Diagonalization of the overlap matrix:
Smallest eigenvalue                        ... 2.793e-04
Time for diagonalization                   ...    0.003 sec
Threshold for overlap eigenvalues          ... 1.000e-07
Number of eigenvalues below threshold      ... 0
Time for construction of square roots      ...    0.012 sec
Total time needed                          ...    0.023 sec

-------------------
DFT GRID GENERATION
-------------------

General Integration Accuracy     IntAcc      ... 4.388
Radial Grid Type                 RadialGrid  ... OptM3 with GC (2021)
Angular Grid (max. ang.)         AngularGrid ... 4 (Lebedev-302)
Angular grid pruning method      GridPruning ... 4 (adaptive)
Weight generation scheme         WeightScheme... mBecke (2022)
Basis function cutoff            BFCut       ... 1.0000e-10
Integration weight cutoff        WCut        ... 1.0000e-14
Partially contracted basis set               ... off
Rotationally invariant grid construction     ... off
Angular grids for H and He will be reduced by one unit

Total number of grid points                  ...    65470
Total number of batches                      ...     1030
Average number of points per batch           ...       63
Average number of grid points per atom       ...     4092
Initializing property integral containers    ... done (  0.0 sec)

SHARK setup successfully completed in   0.9 seconds

Maximum memory used throughout the entire STARTUP-calculation: 27.6 MB
-------------------------------------------------------------------------------
                                 ORCA GUESS
                   Start orbitals & Density for SCF / CASSCF
-------------------------------------------------------------------------------

------------
SCF SETTINGS
------------
Hamiltonian:
 Density Functional     Method          .... DFT(GTOs)
  Functional kind                       .... Exchange
  Functional name                       .... Re-regularized SCAN exchange by Furness et al
  Functional family                     .... MGGA
  Functional refs                              
    [ 0] J. W. Furness, A. D. Kaplan, J. Ning, J. P. Perdew, and J. Sun.,  J. Phys. Chem. Lett. 11, 8208-8215 (2020), doi: 10.1021/acs.jpclett.0c02405
    [ 1] J. W. Furness, A. D. Kaplan, J. Ning, J. P. Perdew, and J. Sun.,  J. Phys. Chem. Lett. 11, 9248-9248 (2020), doi: 10.1021/acs.jpclett.0c03077
  Functional external parameters        .... 6
    Parameter  0 _c1        =  6.670000e-01 : c1 parameter        
    Parameter  1 _c2        =  8.000000e-01 : c2 parameter        
    Parameter  2 _d         =  1.240000e+00 : d parameter         
    Parameter  3 _k1        =  6.500000e-02 : k1 parameter        
    Parameter  4 _eta       =  1.000000e-03 : eta parameter       
    Parameter  5 _dp2       =  3.610000e-01 : dp2 parameter       
  Functional kind                       .... Correlation
  Functional name                       .... Re-regularized SCAN correlation by Furness et al
  Functional family                     .... MGGA
  Functional refs                              
    [ 0] J. W. Furness, A. D. Kaplan, J. Ning, J. P. Perdew, and J. Sun.,  J. Phys. Chem. Lett. 11, 8208-8215 (2020), doi: 10.1021/acs.jpclett.0c02405
    [ 1] J. W. Furness, A. D. Kaplan, J. Ning, J. P. Perdew, and J. Sun.,  J. Phys. Chem. Lett. 11, 9248-9248 (2020), doi: 10.1021/acs.jpclett.0c03077
  Functional external parameters        .... 1
    Parameter  0 _eta       =  1.000000e-03 : Regularization parameter
 Gradients option       PostSCFGGA      .... off
 RI-approximation to the Coulomb term is turned on
   Number of AuxJ basis functions       .... 366


General Settings:
 Integral files         IntName         .... sp_solv
 Hartree-Fock type      HFTyp           .... RHF
 Total Charge           Charge          ....    0
 Multiplicity           Mult            ....    1
 Number of Electrons    NEL             ....   42
 Basis Dimension        Dim             ....  155
 Nuclear Repulsion      ENuc            ....    193.7617820864 Eh

Convergence Acceleration:
 AO-DIIS                CNVDIIS         .... on
   Start iteration      DIISMaxIt       ....    12
   Startup error        DIISStart       ....  0.200000
   # of expansion vecs  DIISMaxEq       ....     5
   Bias factor          DIISBfac        ....   1.050
   Max. coefficient     DIISMaxC        ....  10.000
 MO-DIIS                CNVKDIIS        .... off
 Trust-Rad. Augm. Hess. CNVTRAH         .... auto
   Auto Start mean grad. ratio tolernc. ....  1.125000
   Auto Start start iteration           ....     1
   Auto Start num. interpolation iter.  ....    10
   Max. Number of Micro iterations      ....    24
   Max. Number of Macro iterations      .... Maxiter - #DIIS iter
   Number of Davidson start vectors     ....     2
   Converg. threshold    (grad. norm)   ....   3.330e-04
   Grad. Scal. Fac. for Micro threshold ....   0.100
   Minimum threshold for Micro iter.    ....   1.000e-02
   NR start threshold (gradient norm)   ....   1.000e-04
   Initial trust radius                 ....   0.400
   Minimum AH scaling param. (alpha)    ....   1.000
   Maximum AH scaling param. (alpha)    .... 1000.000
   Quad. conv. algorithm                .... NR
   White noise on init. David. guess    .... on
   Maximum white noise                  ....   0.010
   Pseudo random numbers                .... off
   Inactive MOs                         .... canonical
   Orbital update algorithm             .... Taylor
   Preconditioner                       .... Diag
   Full preconditioner red. dimension   ....   250
   COSX micro iterations for RIJONX calc.... off
 SOSCF                  CNVSOSCF        .... on
   Start iteration      SOSCFMaxIt      ....   150
   Startup grad/error   SOSCFStart      ....  0.003300
   Hessian update       SOSCFHessUp     .... L-BFGS
 Level Shifting         CNVShift        .... on
   Level shift para.    LevelShift      ....    0.2500
   Turn off err/grad.   ShiftErr        ....    0.0010
 Zerner damping         CNVZerner       .... off
 Static damping         CNVDamp         .... on
   Fraction old density DampFac         ....    0.7000
   Max. Damping (<1)    DampMax         ....    0.9800
   Min. Damping (>=0)   DampMin         ....    0.0000
   Turn off err/grad.   DampErr         ....    0.1000

SCF Procedure:
 Maximum # iterations   MaxIter         ....   125
 SCF integral mode      SCFMode         .... Direct
   Integral package                     .... SHARK and LIBINT hybrid scheme
 Reset frequency        DirectResetFreq ....    20
 Integral Threshold     Thresh          ....  1.000e-10 Eh
 Primitive CutOff       TCut            ....  1.000e-11 Eh

Convergence Tolerance:
 Convergence Check Mode ConvCheckMode   .... Total+1el-Energy
 Convergence forced     ConvForced      .... 0
 Energy Change          TolE            ....  1.000e-06 Eh
 1-El. energy change                    ....  1.000e-03 Eh
 Orbital Gradient       TolG            ....  3.330e-04
 Orbital Rotation angle TolX            ....  3.330e-04
 DIIS Error             TolErr          ....  1.000e-06

---------------------
INITIAL GUESS: MOREAD
---------------------
Guess MOs are being read from file: sp_solv.ges
Input Geometry matches current geometry (good)
Atom 0: N(Shells)= 9 and 6 - projection required
Input basis set needs projection
NBasis(read)= 92
NBasis(calc)= 155
Basis set overlap was calculated
Using GuessMode=FMatrix for the initial guess
C*T matrix was formed
Effective Fockian was calculated
Effective Fockian was diagonalized
Initial density was built
                      ------------------
                      INITIAL GUESS DONE (   0.0 sec)
                      ------------------
             **** ENERGY FILE WAS UPDATED (sp_solv.en.tmp) ****
Finished Guess after   0.4 sec
Maximum memory used throughout the entire GUESS-calculation: 10.6 MB

-------------------------------------------------------------------------------------------
                                      ORCA LEAN-SCF
                              memory conserving SCF solver
-------------------------------------------------------------------------------------------

--------------------
CPCM SOLVATION MODEL
--------------------
CPCM parameters:
  Epsilon                                         ...      78.3550
  Refrac                                          ...       1.3328
  Rsolv                                           ...       1.3000
  Surface type                                    ... GAUSSIAN VDW
  Discretization scheme                           ... Constant charge density
    Threshold for H atoms                         ...       5.0000 (charges/Ang^2)
    Threshold for non-H atoms                     ...       5.0000 (charges/Ang^2)
  Epsilon function type                           ...         CPCM
Solvent:                                          ... WATER
SMD-CDS solvent descriptors:
  Soln                                            ...       1.3328
  Soln25                                          ...       1.3323
  Sola                                            ...       0.0000
  Solb                                            ...       0.0000
  Solg                                            ...       0.0000
  Solc                                            ...       0.0000
  Solh                                            ...       0.0000
Radii:
  Scheme                                          ... Element-dependent radii
  Radius for C  used is    3.4960 Bohr (=   1.8500 Ang.)
  Radius for N  used is    3.5716 Bohr (=   1.8900 Ang.)
  Radius for H  used is    2.2677 Bohr (=   1.2000 Ang.)
Calculating surface                               ...        done! (  0.0s)
Cavity surface points                             ...         1196
Cavity Volume                                     ...     667.5817
Cavity Surface-area                               ...     448.6147
Calculating surface distance matrix               ...        done! (  0.0s)
Performing Cholesky decomposition & store         ...        done! (  0.7s)
Overall time for CPCM initialization              ...                 0.7s

----------------------------------------D-I-I-S--------------------------------------------
Iteration    Energy (Eh)           Delta-E    RMSDP     MaxDP     DIISErr   Damp  Time(sec)
-------------------------------------------------------------------------------------------
               ***  Starting incremental Fock matrix formation  ***
    1    -213.6051211710852726     0.00e+00  3.30e-03  6.97e-02  4.33e-01  0.700   1.9
    2    -213.6412027071644388    -3.61e-02  2.81e-03  5.34e-02  3.04e-01  0.700   1.7
    3    -213.6668563243438825    -2.57e-02  2.11e-03  3.93e-02  2.13e-01  0.700   1.7
                               ***Turning on AO-DIIS***
    4    -213.6849083594625540    -1.81e-02  1.59e-03  2.86e-02  1.49e-01  0.700   1.9
    5    -213.6975914902628801    -1.27e-02  1.15e-03  2.02e-02  1.04e-01  0.700   1.6
    6    -213.7064971999113254    -8.91e-03  8.25e-04  1.42e-02  7.29e-02  0.700   1.5
    7    -213.7127456218692600    -6.25e-03  1.96e-03  3.34e-02  5.11e-02  0.000   1.6
                              *** Initializing SOSCF ***
---------------------------------------S-O-S-C-F--------------------------------------
Iteration    Energy (Eh)           Delta-E    RMSDP     MaxDP     MaxGrad    Time(sec)
--------------------------------------------------------------------------------------
    8    -213.7273732587649420    -1.46e-02  3.32e-05  8.23e-04  5.02e-04     1.6
               *** Restarting incremental Fock matrix formation ***
    9    -213.7273735061953062    -2.47e-07  2.55e-05  5.81e-04  7.65e-05     1.8
                  *** Gradient check signals convergence ***

               *****************************************************
               *                     SUCCESS                       *
               *           SCF CONVERGED AFTER   9 CYCLES          *
               *****************************************************


SMD CDS free energy correction energy :                 0.97103     Kcal/mol
Total Energy after SMD CDS correction =              -213.725826072 Eh
             **** ENERGY FILE WAS UPDATED (sp_solv.en.tmp) ****

----------------
TOTAL SCF ENERGY
----------------

Total Energy       :       -213.72582607177358 Eh           -5815.77540 eV

Components:
Nuclear Repulsion  :        193.76178208636128 Eh            5272.52614 eV
Electronic Energy  :       -407.48156239910884 Eh          -11088.13702 eV
One Electron Energy:       -670.66637230041670 Eh          -18249.75979 eV
Two Electron Energy:        263.18480990130786 Eh            7161.62277 eV
CPCM Dielectric    :         -0.00759319344776 Eh              -0.20662 eV
SMD CDS (Gcds)     :          0.00154743442172 Eh               0.04211 eV

Virial components:
Potential Energy   :       -426.45258255854401 Eh          -11604.36473 eV
Kinetic Energy     :        212.72675648677046 Eh            5788.58933 eV
Virial Ratio       :          2.00469649235246

DFT components:
N(Alpha)           :       21.000011925426 electrons
N(Beta)            :       21.000011925426 electrons
N(Total)           :       42.000023850853 electrons
E(X)               :      -31.377147534636 Eh       
E(C)               :       -1.297350148765 Eh       
E(XC)              :      -32.674497683401 Eh       

CPCM Solvation Model Properties:
Surface-charge          :         -0.04159934948073
Corrected charge        :          0.00000000000000
Outlying charge corr.   :          0.00014896879537 Eh               0.00405 eV
Free-energy (cav+disp)  :          0.00154743442172 Eh               0.04211 eV

---------------
SCF CONVERGENCE
---------------

  Last Energy change         ...    2.4743e-07  Tolerance :   1.0000e-06
  Last MAX-Density change    ...    5.8070e-04  Tolerance :   1.0000e-05
  Last RMS-Density change    ...    2.5485e-05  Tolerance :   1.0000e-06
  Last DIIS Error            ...    5.0217e-04  Tolerance :   1.0000e-06
  Last Orbital Gradient      ...    7.6507e-05  Tolerance :   3.3300e-04
  Last Orbital Rotation      ...    1.2692e-04  Tolerance :   3.3300e-04


----------------
ORBITAL ENERGIES
----------------

  NO   OCC          E(Eh)            E(eV) 
   0   2.0000     -14.132840      -384.5741 
   1   2.0000     -10.041135      -273.2332 
   2   2.0000     -10.040000      -273.2023 
   3   2.0000     -10.007386      -272.3148 
   4   2.0000     -10.005992      -272.2769 
   5   2.0000      -0.860461       -23.4143 
   6   2.0000      -0.714035       -19.4299 
   7   2.0000      -0.674059       -18.3421 
   8   2.0000      -0.590628       -16.0718 
   9   2.0000      -0.531830       -14.4718 
  10   2.0000      -0.456929       -12.4337 
  11   2.0000      -0.427265       -11.6265 
  12   2.0000      -0.391636       -10.6570 
  13   2.0000      -0.375725       -10.2240 
  14   2.0000      -0.364077        -9.9070 
  15   2.0000      -0.337959        -9.1963 
  16   2.0000      -0.326216        -8.8768 
  17   2.0000      -0.317876        -8.6498 
  18   2.0000      -0.297603        -8.0982 
  19   2.0000      -0.290628        -7.9084 
  20   2.0000      -0.185296        -5.0422 
  21   0.0000       0.087458         2.3798 
  22   0.0000       0.111845         3.0435 
  23   0.0000       0.124114         3.3773 
  24   0.0000       0.137833         3.7506 
  25   0.0000       0.142468         3.8767 
  26   0.0000       0.156130         4.2485 
  27   0.0000       0.166368         4.5271 
  28   0.0000       0.171370         4.6632 
  29   0.0000       0.176502         4.8029 
  30   0.0000       0.184269         5.0142 
  31   0.0000       0.195078         5.3084 
*Only the first 10 virtual orbitals were printed.

                    ********************************
                    * MULLIKEN POPULATION ANALYSIS *
                    ********************************

-----------------------
MULLIKEN ATOMIC CHARGES
-----------------------
   0 C :   -0.503616
   1 C :   -0.189702
   2 N :   -0.394808
   3 C :   -0.221653
   4 C :   -0.494904
   5 H :    0.158474
   6 H :    0.156937
   7 H :    0.159682
   8 H :    0.154364
   9 H :    0.129940
  10 H :    0.270939
  11 H :    0.155050
  12 H :    0.150787
  13 H :    0.154219
  14 H :    0.157165
  15 H :    0.157127
Sum of atomic charges:   -0.0000000

--------------------------------
MULLIKEN REDUCED ORBITAL CHARGES
--------------------------------
  0 C s       :     3.332422  s :     3.332422
      pz      :     0.994229  p :     3.144912
      px      :     1.046550
      py      :     1.104134
      dz2     :     0.006440  d :     0.026282
      dxz     :     0.006927
      dyz     :     0.003894
      dx2y2   :     0.003397
      dxy     :     0.005623

  1 C s       :     3.240328  s :     3.240328
      pz      :     0.998743  p :     2.899782
      px      :     0.921769
      py      :     0.979270
      dz2     :     0.009090  d :     0.049591
      dxz     :     0.011056
      dyz     :     0.004905
      dx2y2   :     0.012771
      dxy     :     0.011770

  2 N s       :     3.462682  s :     3.462682
      pz      :     1.151560  p :     3.866859
      px      :     1.167760
      py      :     1.547538
      dz2     :     0.016425  d :     0.065267
      dxz     :     0.019613
      dyz     :     0.005878
      dx2y2   :     0.009521
      dxy     :     0.013830

  3 C s       :     3.252589  s :     3.252589
      pz      :     0.955886  p :     2.919413
      px      :     0.946844
      py      :     1.016684
      dz2     :     0.011416  d :     0.049652
      dxz     :     0.012243
      dyz     :     0.004461
      dx2y2   :     0.006815
      dxy     :     0.014716

  4 C s       :     3.322320  s :     3.322320
      pz      :     1.096755  p :     3.146626
      px      :     1.040669
      py      :     1.009202
      dz2     :     0.005470  d :     0.025958
      dxz     :     0.007097
      dyz     :     0.001544
      dx2y2   :     0.004798
      dxy     :     0.007049

  5 H s       :     0.822998  s :     0.822998
      pz      :     0.008301  p :     0.018529
      px      :     0.005495
      py      :     0.004734

  6 H s       :     0.824790  s :     0.824790
      pz      :     0.003978  p :     0.018273
      px      :     0.004205
      py      :     0.010090

  7 H s       :     0.821916  s :     0.821916
      pz      :     0.003821  p :     0.018402
      px      :     0.008539
      py      :     0.006041

  8 H s       :     0.828075  s :     0.828075
      pz      :     0.008272  p :     0.017561
      px      :     0.005762
      py      :     0.003526

  9 H s       :     0.852592  s :     0.852592
      pz      :     0.003568  p :     0.017468
      px      :     0.003918
      py      :     0.009982

 10 H s       :     0.697632  s :     0.697632
      pz      :     0.015183  p :     0.031430
      px      :     0.007467
      py      :     0.008779

 11 H s       :     0.827451  s :     0.827451
      pz      :     0.003221  p :     0.017499
      px      :     0.005672
      py      :     0.008606

 12 H s       :     0.831332  s :     0.831332
      pz      :     0.009723  p :     0.017882
      px      :     0.004594
      py      :     0.003565

 13 H s       :     0.827526  s :     0.827526
      pz      :     0.009680  p :     0.018255
      px      :     0.004936
      py      :     0.003639

 14 H s       :     0.824342  s :     0.824342
      pz      :     0.007089  p :     0.018493
      px      :     0.007651
      py      :     0.003753

 15 H s       :     0.824370  s :     0.824370
      pz      :     0.003702  p :     0.018503
      px      :     0.005767
      py      :     0.009034


------------------------
MULLIKEN OVERLAP CHARGES
------------------------
B(  0-C ,  1-C ) :   0.4766 B(  0-C ,  2-N ) :  -0.2007 B(  0-C ,  5-H ) :   0.8348 
B(  0-C ,  6-H ) :   0.8285 B(  0-C ,  7-H ) :   0.8157 B(  0-C ,  9-H ) :  -0.1111 
B(  1-C ,  2-N ) :   0.4460 B(  1-C ,  3-C ) :  -0.1683 B(  1-C ,  5-H ) :  -0.0679 
B(  1-C ,  6-H ) :  -0.0839 B(  1-C ,  7-H ) :  -0.0824 B(  1-C ,  8-H ) :   0.8503 
B(  1-C ,  9-H ) :   0.8383 B(  2-N ,  3-C ) :   0.5076 B(  2-N ,  4-C ) :  -0.1910 
B(  2-N ,  8-H ) :  -0.1216 B(  2-N ,  9-H ) :  -0.1008 B(  2-N , 10-H ) :   0.6990 
B(  2-N , 11-H ) :  -0.1183 B(  2-N , 12-H ) :  -0.0991 B(  3-C ,  4-C ) :   0.4157 
B(  3-C , 10-H ) :  -0.0584 B(  3-C , 11-H ) :   0.8678 B(  3-C , 12-H ) :   0.8785 
B(  3-C , 13-H ) :  -0.0691 B(  3-C , 14-H ) :  -0.0754 B(  3-C , 15-H ) :  -0.0739 
B(  4-C , 11-H ) :  -0.0959 B(  4-C , 12-H ) :  -0.1227 B(  4-C , 13-H ) :   0.8215 
B(  4-C , 14-H ) :   0.8035 B(  4-C , 15-H ) :   0.8327 B(  5-H ,  6-H ) :  -0.0517 
B(  8-H ,  9-H ) :  -0.0624 


                     *******************************
                     * LOEWDIN POPULATION ANALYSIS *
                     *******************************

----------------------
LOEWDIN ATOMIC CHARGES
----------------------
   0 C :   -0.409642
   1 C :   -0.074923
   2 N :   -0.874920
   3 C :   -0.082285
   4 C :   -0.422783
   5 H :    0.153109
   6 H :    0.156159
   7 H :    0.156883
   8 H :    0.176960
   9 H :    0.152748
  10 H :    0.255174
  11 H :    0.175354
  12 H :    0.175341
  13 H :    0.153929
  14 H :    0.155855
  15 H :    0.153039

-------------------------------
LOEWDIN REDUCED ORBITAL CHARGES
-------------------------------
  0 C s       :     2.975610  s :     2.975610
      pz      :     1.104076  p :     3.372843
      px      :     1.113774
      py      :     1.154993
      dz2     :     0.014725  d :     0.061188
      dxz     :     0.015929
      dyz     :     0.008649
      dx2y2   :     0.008144
      dxy     :     0.013741

  1 C s       :     2.865760  s :     2.865760
      pz      :     1.058991  p :     3.098111
      px      :     1.001936
      py      :     1.037184
      dz2     :     0.020097  d :     0.111051
      dxz     :     0.026546
      dyz     :     0.009057
      dx2y2   :     0.029249
      dxy     :     0.026101

  2 N s       :     3.203121  s :     3.203121
      pz      :     1.254662  p :     4.131129
      px      :     1.296748
      py      :     1.579719
      dz2     :     0.115725  d :     0.540671
      dxz     :     0.143785
      dyz     :     0.060548
      dx2y2   :     0.104647
      dxy     :     0.115965

  3 C s       :     2.862046  s :     2.862046
      pz      :     1.028899  p :     3.108802
      px      :     1.017889
      py      :     1.062014
      dz2     :     0.026914  d :     0.111436
      dxz     :     0.027299
      dyz     :     0.008272
      dx2y2   :     0.013006
      dxy     :     0.035945

  4 C s       :     2.980807  s :     2.980807
      pz      :     1.155049  p :     3.381145
      px      :     1.114258
      py      :     1.111837
      dz2     :     0.013615  d :     0.060831
      dxz     :     0.017526
      dyz     :     0.002939
      dx2y2   :     0.010230
      dxy     :     0.016521

  5 H s       :     0.802475  s :     0.802475
      pz      :     0.020171  p :     0.044416
      px      :     0.013276
      py      :     0.010969

  6 H s       :     0.800102  s :     0.800102
      pz      :     0.009014  p :     0.043739
      px      :     0.009361
      py      :     0.025364

  7 H s       :     0.798964  s :     0.798964
      pz      :     0.008890  p :     0.044153
      px      :     0.020827
      py      :     0.014437

  8 H s       :     0.783220  s :     0.783220
      pz      :     0.019133  p :     0.039820
      px      :     0.012327
      py      :     0.008360

  9 H s       :     0.806050  s :     0.806050
      pz      :     0.008252  p :     0.041202
      px      :     0.009660
      py      :     0.023290

 10 H s       :     0.659132  s :     0.659132
      pz      :     0.041639  p :     0.085693
      px      :     0.020392
      py      :     0.023663

 11 H s       :     0.784909  s :     0.784909
      pz      :     0.007093  p :     0.039736
      px      :     0.011960
      py      :     0.020683

 12 H s       :     0.783770  s :     0.783770
      pz      :     0.021442  p :     0.040889
      px      :     0.011421
      py      :     0.008026

 13 H s       :     0.802483  s :     0.802483
      pz      :     0.024005  p :     0.043588
      px      :     0.011317
      py      :     0.008267

 14 H s       :     0.799556  s :     0.799556
      pz      :     0.017170  p :     0.044588
      px      :     0.018683
      py      :     0.008735

 15 H s       :     0.802590  s :     0.802590
      pz      :     0.008173  p :     0.044372
      px      :     0.013999
      py      :     0.022199


---------------------------------
LOEWDIN BOND ORDERS (THRESH 0.050000)
---------------------------------
B(  0-C ,  1-C ) :   1.0753 B(  0-C ,  2-N ) :   0.1603 B(  0-C ,  5-H ) :   0.9263 
B(  0-C ,  6-H ) :   0.9244 B(  0-C ,  7-H ) :   0.9238 B(  1-C ,  2-N ) :   1.3733 
B(  1-C ,  3-C ) :   0.0630 B(  1-C ,  8-H ) :   0.8315 B(  1-C ,  9-H ) :   0.8314 
B(  2-N ,  3-C ) :   1.4048 B(  2-N ,  4-C ) :   0.1551 B(  2-N ,  8-H ) :   0.0992 
B(  2-N ,  9-H ) :   0.1050 B(  2-N , 10-H ) :   0.9000 B(  2-N , 11-H ) :   0.1008 
B(  2-N , 12-H ) :   0.0990 B(  3-C ,  4-C ) :   1.0700 B(  3-C , 11-H ) :   0.8308 
B(  3-C , 12-H ) :   0.8252 B(  4-C , 13-H ) :   0.9285 B(  4-C , 14-H ) :   0.9250 
B(  4-C , 15-H ) :   0.9276 

------------------------------------------
LOEWDIN REDUCED ORBITAL POPULATIONS PER MO
-------------------------------------------
THRESHOLD FOR PRINTING IS 0.1%%
                      0         1         2         3         4         5   
                 -14.13284 -10.04113 -10.04000 -10.00739 -10.00599  -0.86046
                   2.00000   2.00000   2.00000   2.00000   2.00000   2.00000
                  --------  --------  --------  --------  --------  --------
 0 C  s               0.0       0.0       0.0      99.7       0.0       1.8
 0 C  pz              0.0       0.1       0.0       0.0       0.0       0.8
 0 C  px              0.0       0.0       0.0       0.0       0.0       0.9
 1 C  s               0.0      99.4       0.0       0.0       0.0      11.4
 1 C  pz              0.0       0.0       0.0       0.1       0.0       0.1
 1 C  px              0.0       0.0       0.0       0.0       0.0       3.1
 1 C  py              0.0       0.0       0.0       0.0       0.0       2.4
 1 C  dxy             0.0       0.0       0.0       0.0       0.0       0.3
 2 N  s              99.8       0.0       0.0       0.0       0.0      41.6
 2 N  px              0.0       0.1       0.1       0.0       0.0       0.2
 2 N  py              0.0       0.0       0.0       0.0       0.0       1.7
 2 N  dxz             0.0       0.0       0.2       0.0       0.0       0.2
 2 N  dx2y2           0.0       0.0       0.0       0.0       0.0       0.1
 2 N  dxy             0.0       0.2       0.0       0.0       0.0       0.2
 3 C  s               0.0       0.0      99.4       0.0       0.0      11.6
 3 C  pz              0.0       0.0       0.0       0.0       0.0       3.0
 3 C  px              0.0       0.0       0.0       0.0       0.0       2.8
 3 C  dxz             0.0       0.0       0.0       0.0       0.0       0.3
 4 C  s               0.0       0.0       0.0       0.0      99.7       1.8
 4 C  px              0.0       0.0       0.0       0.0       0.0       0.9
 4 C  py              0.0       0.0       0.0       0.0       0.0       0.9
 5 H  s               0.0       0.0       0.0       0.0       0.0       0.1
 6 H  s               0.0       0.0       0.0       0.0       0.0       0.2
 7 H  s               0.0       0.0       0.0       0.0       0.0       0.2
 8 H  s               0.0       0.0       0.0       0.0       0.0       1.0
 9 H  s               0.0       0.0       0.0       0.0       0.0       1.0
10 H  s               0.0       0.0       0.0       0.0       0.0       7.0
10 H  pz              0.0       0.0       0.0       0.0       0.0       0.8
10 H  px              0.0       0.0       0.0       0.0       0.0       0.2
11 H  s               0.0       0.0       0.0       0.0       0.0       1.0
12 H  s               0.0       0.0       0.0       0.0       0.0       1.1
13 H  s               0.0       0.0       0.0       0.0       0.0       0.2
14 H  s               0.0       0.0       0.0       0.0       0.0       0.2
15 H  s               0.0       0.0       0.0       0.0       0.0       0.2

                      6         7         8         9        10        11   
                  -0.71404  -0.67406  -0.59063  -0.53183  -0.45693  -0.42726
                   2.00000   2.00000   2.00000   2.00000   2.00000   2.00000
                  --------  --------  --------  --------  --------  --------
 0 C  s              15.5      17.2       7.5       5.6       0.1       0.0
 0 C  pz              1.0       0.1       2.4       4.9       2.0       0.1
 0 C  px              0.2       0.0       0.6       2.9       4.0       0.6
 0 C  py              0.0       0.0       0.0       0.0       1.1      12.7
 0 C  dxz             0.0       0.0       0.0       0.1       0.0       0.0
 1 C  s              13.8       2.2       6.0       8.3       0.6       0.1
 1 C  pz              0.6       2.6       4.9       1.0       8.7       0.5
 1 C  px              2.0       3.9       0.7       0.1       6.8       1.9
 1 C  py              0.0       1.5       0.1       2.2       2.5      25.4
 1 C  dz2             0.0       0.1       0.0       0.0       0.0       0.0
 1 C  dxy             0.0       0.1       0.0       0.1       0.1       0.1
 2 N  s               0.0       7.7       0.0       3.8       0.6       0.3
 2 N  pz              1.2       1.9       6.1       7.0      13.2       0.6
 2 N  px              8.3       0.1       6.0       1.6       5.6      12.6
 2 N  py              0.8       0.5       1.8       2.5       4.6       1.7
 2 N  dz2             0.3       0.1       0.6       0.1       0.1       0.2
 2 N  dxz             0.8       0.1       0.1       2.0       0.3       0.1
 2 N  dyz             0.0       0.1       0.1       0.0       0.5       0.0
 2 N  dx2y2           0.1       0.1       0.2       0.0       0.6       1.1
 2 N  dxy             1.7       0.0       0.1       0.7       0.3       0.1
 3 C  s              12.3       3.7       7.5       6.2       0.7       0.1
 3 C  pz              0.0       1.2       0.5       6.1       0.9       7.8
 3 C  px              1.7       3.4       1.5       0.1      11.6       1.4
 3 C  py              0.3       3.2       5.1       0.2       5.1       0.8
 3 C  dxz             0.0       0.1       0.0       0.1       0.0       0.1
 4 C  s              12.8      19.4      10.7       2.6       0.1       0.1
 4 C  pz              0.1       0.1       0.2       1.0       0.2       4.5
 4 C  px              0.2       0.0       1.0       1.5       0.8       3.0
 4 C  py              0.8       0.1       2.7       2.1       4.5       0.4
 5 H  s               2.4       3.5       3.0       2.5       0.6       1.2
 5 H  pz              0.1       0.2       0.1       0.1       0.0       0.1
 5 H  px              0.0       0.1       0.1       0.1       0.0       0.0
 6 H  s               2.5       3.3       2.5       3.2       0.1       3.7
 6 H  py              0.2       0.2       0.2       0.2       0.0       0.1
 7 H  s               2.7       3.7       2.4       2.7       1.9       0.6
 7 H  px              0.2       0.2       0.1       0.1       0.1       0.1
 8 H  s               2.8       0.3       2.9       3.5       5.1       1.8
 8 H  pz              0.2       0.0       0.1       0.1       0.1       0.1
 8 H  px              0.1       0.0       0.1       0.1       0.0       0.0
 9 H  s               2.1       0.6       2.2       4.6       0.8       9.3
 9 H  py              0.1       0.0       0.2       0.3       0.0       0.2
10 H  s               0.0       2.8       0.2       5.8       5.6       0.0
10 H  pz              0.0       0.4       0.0       0.5       0.2       0.0
10 H  px              0.0       0.1       0.1       0.1       0.0       0.1
11 H  s               2.5       0.6       3.3       2.4       6.4       0.9
11 H  px              0.1       0.0       0.1       0.0       0.0       0.0
11 H  py              0.2       0.1       0.1       0.1       0.2       0.0
12 H  s               1.8       1.1       3.1       5.3       0.7       1.6
12 H  pz              0.1       0.0       0.2       0.3       0.1       0.0
13 H  s               2.1       3.6       3.6       2.2       0.1       0.2
13 H  pz              0.1       0.3       0.2       0.1       0.0       0.0
14 H  s               2.2       4.2       3.5       1.0       0.0       2.6
14 H  pz              0.1       0.2       0.1       0.1       0.0       0.0
14 H  px              0.1       0.2       0.1       0.0       0.0       0.1
15 H  s               2.0       3.9       3.9       1.1       1.9       0.5
15 H  px              0.0       0.1       0.1       0.1       0.0       0.0
15 H  py              0.1       0.2       0.2       0.0       0.1       0.0

                     12        13        14        15        16        17   
                  -0.39164  -0.37572  -0.36408  -0.33796  -0.32622  -0.31788
                   2.00000   2.00000   2.00000   2.00000   2.00000   2.00000
                  --------  --------  --------  --------  --------  --------
 0 C  s               0.1       0.0       0.0       0.0       0.3       0.3
 0 C  pz              7.5       5.7       2.1       4.8       5.6       6.2
 0 C  px              0.1      15.1       0.4      11.2       4.5      11.0
 0 C  py              4.0       0.7       6.9       9.3       8.7      11.2
 0 C  dz2             0.0       0.0       0.0       0.1       0.0       0.2
 0 C  dxz             0.1       0.0       0.0       0.0       0.2       0.0
 0 C  dyz             0.0       0.0       0.0       0.0       0.0       0.1
 0 C  dx2y2           0.0       0.0       0.0       0.1       0.0       0.1
 0 C  dxy             0.0       0.1       0.0       0.3       0.1       0.1
 1 C  s               0.2       0.2       0.0       0.2       0.1       0.1
 1 C  pz              2.2       3.5       0.9       0.9       7.9       7.7
 1 C  px              3.9       5.8       1.8       1.4       1.5       8.4
 1 C  py              0.8       0.2       1.4       0.9       1.8       5.7
 1 C  dz2             0.0       0.0       0.0       0.1       0.0       0.2
 1 C  dxz             0.0       0.0       0.0       0.0       0.2       0.1
 1 C  dyz             0.1       0.0       0.0       0.0       0.0       0.2
 1 C  dxy             0.0       0.0       0.0       0.3       0.1       0.1
 2 N  s               0.0       0.0       1.5       0.7       0.0       0.0
 2 N  pz             15.9       0.5       1.9       1.4       0.3       2.1
 2 N  px              0.4       2.2       0.5       1.0       4.8       1.0
 2 N  py              0.3       0.4       8.4       5.1       0.2       2.6
 2 N  dz2             1.1       0.1       0.3       0.1       0.5       0.0
 2 N  dxz             0.1       0.3       0.0       0.0       1.1       0.2
 2 N  dyz             0.1       0.0       0.0       0.1       0.5       1.0
 2 N  dx2y2           0.7       0.0       0.2       0.0       0.0       0.7
 2 N  dxy             0.1       0.5       0.8       0.3       0.0       0.0
 3 C  s               0.1       0.2       0.6       0.2       0.1       0.0
 3 C  pz             11.6       0.0       1.5       0.9       5.0       0.3
 3 C  px              0.7       6.7       5.5       0.3       2.1       1.2
 3 C  py              4.8       3.1      10.7       5.1       1.9       1.5
 3 C  dxz             0.1       0.0       0.1       0.1       0.2       0.1
 3 C  dyz             0.0       0.0       0.2       0.0       0.0       0.0
 3 C  dx2y2           0.1       0.0       0.0       0.1       0.0       0.1
 4 C  s               0.1       0.0       0.2       0.1       0.1       0.1
 4 C  pz             15.2       0.1       8.1       3.8      17.9       1.7
 4 C  px              3.8      13.9      11.7       2.7       1.6       5.8
 4 C  py              0.0       7.7      13.5      11.1       0.9       0.2
 4 C  dz2             0.1       0.1       0.0       0.0       0.1       0.0
 4 C  dxz             0.0       0.0       0.2       0.1       0.2       0.1
 4 C  dxy             0.0       0.0       0.2       0.2       0.0       0.0
 5 H  s               4.4       6.8       0.0       2.9       2.1       0.9
 5 H  pz              0.0       0.2       0.0       0.0       0.0       0.2
 5 H  px              0.1       0.0       0.0       0.0       0.1       0.0
 5 H  py              0.0       0.0       0.0       0.2       0.0       0.1
 6 H  s               0.4       0.7       4.3       3.1       2.1      12.4
 6 H  px              0.0       0.1       0.0       0.2       0.1       0.0
 6 H  py              0.0       0.0       0.1       0.0       0.0       0.2
 7 H  s               0.4       4.2       0.6      12.9       5.0       0.0
 7 H  pz              0.1       0.0       0.0       0.0       0.1       0.1
 7 H  px              0.0       0.0       0.0       0.2       0.0       0.1
 7 H  py              0.0       0.1       0.0       0.0       0.0       0.1
 8 H  s               0.1       3.1       0.0       1.3       1.8       0.0
 9 H  s               0.7       0.5       0.1       0.9       0.2       8.7
 9 H  py              0.0       0.0       0.0       0.0       0.0       0.2
10 H  s               4.0       0.0       0.0       1.1       0.8       0.9
10 H  px              0.1       0.0       0.0       0.0       0.0       0.0
11 H  s               0.4       3.2       0.2       1.8       0.1       0.0
11 H  px              0.0       0.0       0.1       0.1       0.0       0.0
12 H  s               4.9       0.8       0.4       0.8       4.5       0.1
12 H  px              0.1       0.0       0.0       0.0       0.0       0.0
13 H  s               8.1       1.7       0.6       0.4      10.8       0.1
13 H  pz              0.2       0.1       0.0       0.0       0.1       0.0
13 H  px              0.0       0.0       0.2       0.0       0.0       0.1
14 H  s               0.4       2.3      10.9       3.2       2.5       4.3
14 H  pz              0.0       0.1       0.1       0.0       0.0       0.0
14 H  px              0.1       0.0       0.1       0.0       0.1       0.0
15 H  s               0.5       7.7       1.3       7.1       0.0       0.4
15 H  pz              0.1       0.0       0.0       0.0       0.1       0.0
15 H  px              0.0       0.0       0.2       0.0       0.0       0.0
15 H  py              0.0       0.2       0.0       0.0       0.0       0.0

                     18        19        20        21        22        23   
                  -0.29760  -0.29063  -0.18530   0.08746   0.11185   0.12411
                   2.00000   2.00000   2.00000   0.00000   0.00000   0.00000
                  --------  --------  --------  --------  --------  --------
 0 C  s               0.0       0.1       0.5       6.8      13.8       2.8
 0 C  pz              1.3       9.7       0.9       1.0       3.2       5.5
 0 C  px              3.3       0.5       0.5       0.5       0.6       0.3
 0 C  py              0.1       2.9       0.0       0.1       0.5       3.2
 0 C  dz2             0.2       0.1       0.0       0.3       0.2       0.0
 0 C  dxz             0.0       0.2       0.0       0.2       0.1       0.1
 0 C  dyz             0.0       0.1       0.0       0.1       0.0       0.1
 0 C  dx2y2           0.0       0.0       0.0       0.0       0.1       0.1
 0 C  dxy             0.1       0.0       0.0       0.1       0.1       0.0
 1 C  s               0.1       0.0       0.4       9.0       0.1       4.7
 1 C  pz              3.9       7.3       0.2       3.3       7.4       3.0
 1 C  px              8.0       0.7       0.1       1.8       7.1       0.8
 1 C  py              0.3       4.0       2.6       1.8       3.2       4.6
 1 C  dz2             0.2       0.1       0.1       0.1       1.0       0.0
 1 C  dxz             0.1       0.6       0.0       0.2       0.1       0.1
 1 C  dx2y2           0.0       0.0       1.1       0.0       0.0       0.1
 1 C  dxy             0.1       0.0       0.0       0.6       0.2       0.0
 2 N  s               0.0       0.1       4.0       6.9       5.5       1.7
 2 N  pz              0.4       6.4       3.8       2.5       1.5       0.4
 2 N  px              7.4       0.1      12.9       0.4       0.2       0.2
 2 N  py              0.9       0.3      47.1       1.0       0.5       0.7
 2 N  dz2             0.8       1.0       0.4       0.8       3.3       0.3
 2 N  dxz             0.0       1.7       0.0       3.3       0.0       0.3
 2 N  dyz             0.2       0.3       0.0       0.2       0.0       0.1
 2 N  dx2y2           0.1       0.6       0.7       0.0       0.4       1.1
 2 N  dxy             0.4       0.0       0.6       0.5       0.4       0.9
 3 C  s               0.1       0.2       0.1       7.0       2.4       7.2
 3 C  pz              0.1      12.4       0.1       2.5       8.3       1.7
 3 C  px              9.5       1.1       1.3       1.0       1.9       5.4
 3 C  py              9.2       0.3       1.8       0.7       0.8      10.0
 3 C  dz2             0.3       0.4       0.3       0.1       0.5       0.0
 3 C  dxz             0.0       0.3       0.0       0.3       0.1       0.5
 3 C  dx2y2           0.1       0.0       0.0       0.0       0.2       0.3
 3 C  dxy             0.4       0.0       0.9       0.3       0.1       0.0
 4 C  s               0.0       0.1       0.9       9.4       4.9      10.2
 4 C  pz              0.0       4.8       0.0       0.4       3.7       2.3
 4 C  px              4.8       2.1       1.9       0.8       0.2       2.2
 4 C  py              5.7       0.2       4.7       1.3       0.8       9.8
 4 C  dz2             0.1       0.2       0.0       0.0       0.0       0.1
 4 C  dxz             0.0       0.1       0.1       0.1       0.0       0.0
 4 C  dyz             0.0       0.0       0.0       0.1       0.0       0.3
 4 C  dx2y2           0.3       0.0       0.0       0.1       0.1       0.1
 4 C  dxy             0.2       0.0       0.0       0.2       0.1       0.1
 5 H  s               2.5       7.3       0.0       1.3       4.2       0.2
 5 H  pz              0.0       0.0       0.0       0.0       1.5       0.2
 5 H  px              0.0       0.1       0.0       0.5       0.5       0.0
 5 H  py              0.0       0.0       0.0       0.1       0.3       0.0
 6 H  s               0.0       1.3       0.2       0.5       1.0       0.4
 6 H  pz              0.0       0.1       0.0       0.1       0.0       0.2
 6 H  px              0.0       0.0       0.0       0.0       0.2       0.0
 6 H  py              0.0       0.0       0.0       0.3       0.6       0.2
 7 H  s               2.5       0.1       0.1       2.3       0.5       0.9
 7 H  pz              0.0       0.1       0.0       0.1       0.2       0.0
 7 H  px              0.0       0.0       0.0       0.4       0.2       0.2
 7 H  py              0.0       0.0       0.0       0.2       0.1       0.0
 8 H  s               6.8       8.1       0.5       2.9       0.0       0.1
 8 H  pz              0.0       0.0       0.0       0.6       0.4       0.1
 8 H  px              0.0       0.1       0.0       0.2       0.3       0.0
 8 H  py              0.0       0.0       0.0       0.4       0.0       0.0
 9 H  s               0.4       2.0       6.1       1.8       0.8       3.6
 9 H  pz              0.0       0.1       0.0       0.0       0.2       0.1
 9 H  px              0.1       0.0       0.0       0.7       0.1       0.2
 9 H  py              0.0       0.0       0.0       0.5       0.4       1.4
10 H  s               0.3       3.7       0.7       6.8       4.0       0.1
10 H  pz              0.0       0.0       0.0       1.9       1.7       0.0
10 H  px              0.1       0.0       0.1       0.5       0.1       0.1
10 H  py              0.0       0.0       0.9       0.0       0.1       0.0
11 H  s              14.0       1.1       1.2       2.3       0.1       0.8
11 H  pz              0.0       0.1       0.0       0.2       0.0       0.0
11 H  px              0.0       0.0       0.0       0.2       0.3       0.0
11 H  py              0.1       0.0       0.0       0.5       0.0       1.2
12 H  s               2.6       9.8       0.6       1.0       3.2       1.5
12 H  pz              0.1       0.0       0.0       0.1       1.4       0.5
12 H  px              0.0       0.1       0.0       0.6       0.0       0.8
12 H  py              0.1       0.0       0.0       0.1       0.1       0.1
13 H  s               1.2       5.2       0.0       1.1       0.2       0.4
13 H  pz              0.0       0.0       0.0       0.5       0.0       0.5
13 H  px              0.0       0.0       0.0       0.0       0.0       0.3
13 H  py              0.0       0.0       0.1       0.3       0.0       0.1
14 H  s               1.8       0.3       0.6       2.0       0.4       0.4
14 H  pz              0.0       0.0       0.0       0.4       0.1       0.1
14 H  px              0.0       0.0       0.0       0.2       0.1       0.2
15 H  s               8.0       1.4       0.1       1.6       2.3       1.6
15 H  px              0.0       0.0       0.1       0.7       0.2       0.1
15 H  py              0.0       0.0       0.0       0.1       0.7       1.5

                     24        25        26        27        28        29   
                   0.13783   0.14247   0.15613   0.16637   0.17137   0.17650
                   0.00000   0.00000   0.00000   0.00000   0.00000   0.00000
                  --------  --------  --------  --------  --------  --------
 0 C  s               0.8      13.0       0.1       0.8       0.4       1.4
 0 C  pz              2.9       0.2       2.8      18.9       0.5       8.1
 0 C  px              5.4       8.0       3.5       2.2      12.8       4.3
 0 C  py              0.1       1.1       0.3       3.5       0.3       4.1
 0 C  dz2             0.1       0.2       0.0       0.4       0.3       0.1
 0 C  dxz             0.6       0.0       0.4       0.6       0.3       0.5
 0 C  dyz             0.1       0.0       0.4       0.0       0.8       0.0
 0 C  dx2y2           0.2       0.0       0.0       0.3       0.1       0.0
 0 C  dxy             0.1       0.0       0.1       0.9       0.4       0.0
 1 C  s               4.9       3.4       0.3       5.0       1.0       1.3
 1 C  pz             10.3       3.2       2.3       2.8       4.1       1.3
 1 C  px              1.6       8.7       3.8       2.3       2.4       2.1
 1 C  py              7.2       0.2       6.3       6.3       7.9       0.3
 1 C  dxz             0.2       0.3       1.1       0.0       0.1       0.1
 1 C  dyz             0.3       0.0       0.0       0.7       0.1       0.0
 1 C  dx2y2           0.0       0.0       0.1       0.1       0.0       0.1
 1 C  dxy             0.6       0.0       1.0       0.0       1.1       0.0
 2 N  s               3.0       0.1       3.9       0.1       0.1       1.0
 2 N  pz              0.5       0.5       2.3       3.2       1.6       0.3
 2 N  px              0.0       0.4       0.1       0.4       2.7       0.2
 2 N  py              2.1       0.7       0.9       0.5       0.7       0.1
 2 N  dz2             1.7       1.2       0.6       1.1       1.2       0.1
 2 N  dxz             1.7       0.5       2.0       5.8       0.4       0.1
 2 N  dyz             6.0       1.6       1.5       0.5       0.1       0.9
 2 N  dx2y2           0.1       0.3       1.4       3.0       0.6       0.1
 2 N  dxy             2.6       0.3       0.1       3.1       0.2       3.4
 3 C  s               1.8       5.0       1.8       0.2       1.5       2.6
 3 C  pz             10.8       3.0       5.3       1.0       9.1       3.6
 3 C  px              0.5       5.7       7.7       1.5       2.7       0.7
 3 C  py              4.7       2.4       4.8       2.2       3.6       7.1
 3 C  dz2             0.0       0.1       0.4       0.1       0.0       0.0
 3 C  dxz             0.3       0.0       1.7       0.0       1.0       0.0
 3 C  dyz             0.4       0.0       0.0       0.2       0.0       0.6
 3 C  dx2y2           0.0       0.0       0.0       0.3       0.0       0.2
 3 C  dxy             0.5       0.0       0.3       0.4       0.3       0.0
 4 C  s               4.8       8.3       0.8       0.0       0.5       1.1
 4 C  pz              0.9       0.7       1.1       3.9       0.5       6.2
 4 C  px              6.3       3.5       5.7       1.3      12.6       8.2
 4 C  py              2.8       1.1       2.9       0.1       3.7      11.8
 4 C  dz2             0.1       0.3       0.1       0.1       0.7       0.1
 4 C  dxz             0.4       0.1       0.7       0.1       0.2       1.2
 4 C  dyz             0.0       0.0       0.1       0.0       0.1       0.2
 4 C  dx2y2           0.0       0.1       0.0       0.4       0.2       0.1
 4 C  dxy             0.2       0.2       0.0       0.1       0.4       1.6
 5 H  s               0.2       0.5       1.7       0.5       1.1       1.1
 5 H  pz              0.1       0.1       0.2       0.6       0.1       0.0
 5 H  px              0.0       0.2       0.4       0.1       0.2       0.3
 5 H  py              0.1       0.1       0.1       0.3       0.5       0.0
 6 H  s               0.2       3.3       0.7       2.4       0.3       1.8
 6 H  pz              0.0       0.0       0.5       0.4       0.2       0.4
 6 H  px              0.5       0.1       0.1       0.1       0.6       0.0
 6 H  py              0.0       1.3       0.0       0.5       0.0       0.6
 7 H  s               0.5       2.0       0.5       2.4       3.5       0.1
 7 H  pz              0.5       0.1       0.0       0.1       0.5       0.1
 7 H  px              0.1       0.7       0.0       0.7       0.0       0.0
 7 H  py              0.2       0.8       0.0       0.1       0.3       0.1
 8 H  s               0.3       2.5       2.9       2.2       1.2       0.8
 8 H  pz              0.3       0.6       0.4       0.4       0.0       0.2
 8 H  px              0.0       0.8       0.6       0.3       0.3       0.1
 8 H  py              0.2       0.1       0.4       0.5       0.9       0.0
 9 H  s               0.9       0.1       2.9       0.0       2.1       0.4
 9 H  pz              0.7       0.1       0.1       0.3       0.3       0.0
 9 H  px              0.0       0.0       0.8       0.1       0.8       0.0
 9 H  py              0.6       0.1       0.2       0.0       0.1       0.0
10 H  s               0.4       0.3       0.9       3.7       0.0       0.1
10 H  pz              0.1       0.0       0.0       0.5       0.0       0.0
10 H  px              0.1       0.1       0.0       0.6       0.1       0.0
10 H  py              0.3       0.0       0.0       0.0       0.0       0.0
11 H  s               0.4       0.9       4.5       3.4       0.5       0.3
11 H  pz              0.5       0.0       0.5       0.1       0.8       0.2
11 H  px              0.0       0.3       1.3       0.1       0.1       0.2
11 H  py              0.0       0.5       0.6       0.8       0.0       0.0
12 H  s               0.3       1.0       3.5       1.1       3.2       0.2
12 H  pz              0.4       0.6       0.4       0.1       0.0       0.0
12 H  px              0.0       0.0       0.7       0.0       0.8       0.1
12 H  py              0.6       0.0       0.1       0.0       0.2       0.4
13 H  s               0.9       2.1       3.3       0.7       0.3       2.1
13 H  pz              0.2       0.9       0.8       0.3       0.1       0.0
13 H  px              0.7       0.0       0.4       0.0       0.3       0.3
13 H  py              0.0       0.1       0.0       0.1       0.0       0.8
14 H  s               0.4       2.7       1.2       1.2       1.6       8.0
14 H  pz              0.0       1.4       0.0       0.0       0.2       0.5
14 H  px              0.2       0.2       0.0       0.6       0.0       1.3
14 H  py              0.3       0.1       0.0       0.0       0.5       0.3
15 H  s               0.4       0.4       0.2       0.2       0.0       2.7
15 H  pz              0.2       0.0       0.1       0.1       0.3       0.9
15 H  px              0.0       0.3       0.0       0.0       0.3       0.3
15 H  py              0.2       0.1       0.1       0.1       0.2       0.1

                     30        31        32        33        34        35   
                   0.18427   0.19508   0.20274   0.21257   0.22245   0.22825
                   0.00000   0.00000   0.00000   0.00000   0.00000   0.00000
                  --------  --------  --------  --------  --------  --------
 0 C  s               0.4       1.1       0.1       0.1       1.7       0.1
 0 C  pz              1.4       3.1       1.8       1.6       6.3       1.3
 0 C  px              2.1       2.3       2.4       6.7       9.9       0.3
 0 C  py              6.8       5.0       7.4      25.4       6.6       4.1
 0 C  dz2             0.1       0.0       0.8       1.3       0.1       0.0
 0 C  dxz             0.1       0.0       0.7       0.3       0.9       0.0
 0 C  dyz             0.0       0.0       0.7       0.2       0.0       0.1
 0 C  dx2y2           1.1       1.2       0.3       0.1       0.1       0.0
 0 C  dxy             0.4       0.8       0.0       0.5       0.0       0.3
 1 C  s               0.0       0.3       0.1       0.2       1.0       0.1
 1 C  pz              6.2       1.5       1.2       0.8       8.6       2.7
 1 C  px              8.3       0.1       2.0       1.2       0.7       0.1
 1 C  py              5.9       2.1       1.7       2.1       0.3       2.5
 1 C  dz2             0.9       0.0       0.6       0.7       0.0       0.0
 1 C  dxz             0.1       0.3       0.1       0.0       0.2       0.0
 1 C  dyz             0.0       0.1       0.6       0.0       0.0       0.0
 1 C  dx2y2           0.2       0.0       0.0       0.1       0.0       0.0
 1 C  dxy             0.2       0.3       0.0       0.1       0.0       0.6
 2 N  s               0.3       0.1       0.1       0.5       0.1       0.1
 2 N  pz              0.4       1.5       0.3       1.3       1.9       0.4
 2 N  px              2.5       0.1       2.0       0.5       0.4       3.9
 2 N  py              1.9       1.6       0.2       1.1       1.2       1.7
 2 N  dz2             0.9       0.0       0.9       0.1       0.0       1.9
 2 N  dxz             0.3       0.0       0.0       0.4       0.0       0.0
 2 N  dyz             0.0       4.1       0.2       0.1       2.7       0.0
 2 N  dx2y2           0.6       0.1       0.1       0.1       0.2       0.6
 2 N  dxy             0.6       0.1       0.0       0.4       0.1       0.3
 3 C  s               0.6       0.3       0.1       0.1       0.3       2.0
 3 C  pz              7.2       0.1       0.6       0.2       1.3       2.0
 3 C  px              7.7       0.8       1.6       1.1       1.1       0.5
 3 C  py              3.8       1.0       1.5       0.8       1.7      17.7
 3 C  dz2             0.5       0.0       0.2       0.0       0.1       0.0
 3 C  dxz             0.1       0.2       0.0       0.0       0.0       0.4
[...]
 1 C  py              0.0       0.5       1.5       6.6       2.7       0.2
 1 C  dz2             0.2       0.1       3.4       1.6       2.5       0.7
 1 C  dxz             0.3       1.9       4.1       1.3       0.2       0.2
 1 C  dyz             0.1       0.0       1.6       1.0       0.1       0.0
 1 C  dx2y2           0.0       0.0       3.5       3.8       0.0       0.0
 1 C  dxy             0.1       2.2       0.0       6.2       7.6       1.0
 2 N  s               0.1       8.2       1.3       5.9       0.0       1.2
 2 N  pz              0.4       0.3       0.2       0.2       4.1      13.0
 2 N  px              0.2       0.6       0.0       0.2      19.4       1.3
 2 N  py              0.2       0.6       0.2       1.0       2.8       1.5
 2 N  dz2             0.1       1.8       0.0       0.8       5.2      16.9
 2 N  dxz             0.1       0.3       0.0       0.8       5.3      24.9
 2 N  dyz             0.3       0.4       0.0       0.3       1.4       0.3
 2 N  dx2y2           0.1       3.1       2.4       1.2       2.6       0.1
 2 N  dxy             0.0       2.5       0.4       3.6      15.6       0.2
 3 C  s               0.5       0.7       0.2       0.3       1.6       0.3
 3 C  pz              0.1       6.0       0.4       0.2       3.1       0.9
 3 C  px              1.0       0.5       2.7       3.3       3.3       0.8
 3 C  py              1.0       0.8       0.8       0.9       0.0       0.0
 3 C  dz2             0.2       4.8       6.2       2.5       0.9       0.1
 3 C  dxz             0.0       9.3       0.2       0.0       5.1       2.6
 3 C  dyz             0.2       0.0       0.2       0.4       0.3       0.0
 3 C  dx2y2           0.2       0.0       0.7       1.6       1.7       0.3
 3 C  dxy             1.6       0.0       1.9       1.9       1.3       0.0
 4 C  s               0.3       0.0       0.1       0.0       0.0       0.0
 4 C  pz              0.3       1.4       0.1       0.1       0.0       0.0
 4 C  px              2.1       0.3       1.0       0.2       0.0       0.0
 4 C  py              5.8       0.2       0.2       0.1       0.0       0.0
 4 C  dz2             2.1       0.5       2.8       1.0       0.0       0.0
 4 C  dxz             0.9       3.1       0.1       0.2       0.1       0.0
 4 C  dyz             0.1       0.1       0.0       0.0       0.0       0.0
 4 C  dx2y2           2.6       0.1       0.9       0.1       0.0       0.0
 4 C  dxy             9.9       0.2       0.6       0.3       0.0       0.0
 5 H  s               4.3       0.6       1.0       0.1       0.0       0.0
 5 H  pz              6.6       0.8       1.5       0.0       0.1       0.0
 5 H  px              2.9       0.4       0.8       0.2       0.0       0.0
 5 H  py              1.9       0.2       0.4       0.0       0.0       0.0
 6 H  s               0.3       0.0       1.1       0.8       0.0       0.0
 6 H  pz              0.3       0.0       0.2       0.1       0.0       0.0
 6 H  px              0.0       0.1       0.3       0.6       0.0       0.0
 6 H  py              0.4       0.0       1.8       1.6       0.0       0.0
 7 H  s               1.0       0.0       0.0       1.0       0.0       0.0
 7 H  px              0.9       0.0       0.0       1.2       0.1       0.0
 7 H  py              1.1       0.0       0.1       1.2       0.0       0.0
 8 H  s               0.1       1.0       4.3       1.4       0.7       0.1
 8 H  pz              0.3       1.6       7.7       1.8       0.8       0.0
 8 H  px              0.2       0.8       2.0       0.8       0.1       0.0
 8 H  py              0.0       0.6       0.7       0.0       0.5       0.0
 9 H  s               0.0       0.2       2.1       5.6       0.1       0.0
 9 H  pz              0.0       0.1       0.6       1.0       0.0       0.0
 9 H  px              0.0       0.1       1.0       1.6       0.4       0.0
 9 H  py              0.3       0.7       3.3      11.9       0.0       0.0
10 H  s               0.0       0.8       0.0       0.2       0.0      11.6
10 H  pz              0.0       2.8       0.3       0.6       0.2      15.6
10 H  px              0.0       0.6       0.0       0.5       0.2       3.6
10 H  py              0.1       0.1       0.1       0.0       0.1       0.4
11 H  s               0.2       0.9       2.6       2.2       0.6       0.0
11 H  pz              0.0       0.4       0.0       0.0       0.2       0.0
11 H  px              0.5       0.3       1.0       1.1       0.1       0.0
11 H  py              0.5       0.9       5.5       4.2       1.1       0.0
12 H  s               0.3       5.7       1.8       1.2       0.1       0.3
12 H  pz              1.1      11.4       3.2       3.1       0.0       0.3
12 H  px              0.0       3.3       0.9       0.1       0.4       0.2
13 H  s               0.1       0.9       0.6       0.3       0.0       0.0
13 H  pz              0.2       1.6       1.2       0.5       0.0       0.0
13 H  px              0.0       1.0       0.2       0.2       0.0       0.0
13 H  py              0.3       0.0       0.0       0.0       0.0       0.0
14 H  s               1.7       1.1       0.2       0.0       0.0       0.0
14 H  pz              1.7       1.4       0.2       0.0       0.0       0.0
14 H  px              1.3       1.1       0.2       0.0       0.1       0.0
14 H  py              0.3       0.2       0.0       0.0       0.0       0.0
15 H  s               6.6       0.1       1.0       0.3       0.0       0.0
15 H  pz              0.2       0.0       0.0       0.0       0.0       0.0
15 H  px              5.2       0.1       0.7       0.0       0.0       0.0
15 H  py             12.2       0.2       1.8       0.6       0.0       0.0

                    150       151       152       153       154   
                  21.92049  21.97469  22.04741  22.05927  31.93923
                   0.00000   0.00000   0.00000   0.00000   0.00000
                  --------  --------  --------  --------  --------
 0 C  s              42.1      52.3       5.1       0.2       0.0
 1 C  s               0.6       4.7      66.6      27.7       0.0
 2 N  s               0.0       0.0       0.0       0.1      99.8
 3 C  s               0.6       3.0      25.4      70.6       0.0
 4 C  s              56.4      39.6       2.6       1.0       0.0


                      *****************************
                      * MAYER POPULATION ANALYSIS *
                      *****************************

  NA   - Mulliken gross atomic population
  ZA   - Total nuclear charge
  QA   - Mulliken gross atomic charge
  VA   - Mayer's total valence
  BVA  - Mayer's bonded valence
  FA   - Mayer's free valence

  ATOM       NA         ZA         QA         VA         BVA        FA
  0 C      6.5036     6.0000    -0.5036     3.7766     3.7766    -0.0000
  1 C      6.1897     6.0000    -0.1897     3.7205     3.7205    -0.0000
  2 N      7.3948     7.0000    -0.3948     2.6641     2.6641    -0.0000
  3 C      6.2217     6.0000    -0.2217     3.7575     3.7575     0.0000
  4 C      6.4949     6.0000    -0.4949     3.7398     3.7398    -0.0000
  5 H      0.8415     1.0000     0.1585     0.9574     0.9574    -0.0000
  6 H      0.8431     1.0000     0.1569     0.9628     0.9628    -0.0000
  7 H      0.8403     1.0000     0.1597     0.9599     0.9599    -0.0000
  8 H      0.8456     1.0000     0.1544     0.9518     0.9518    -0.0000
  9 H      0.8701     1.0000     0.1299     0.9572     0.9572    -0.0000
 10 H      0.7291     1.0000     0.2709     0.9174     0.9174    -0.0000
 11 H      0.8449     1.0000     0.1551     0.9525     0.9525     0.0000
 12 H      0.8492     1.0000     0.1508     0.9573     0.9573     0.0000
 13 H      0.8458     1.0000     0.1542     0.9628     0.9628     0.0000
 14 H      0.8428     1.0000     0.1572     0.9609     0.9609     0.0000
 15 H      0.8429     1.0000     0.1571     0.9595     0.9595     0.0000

  Mayer bond orders larger than 0.100000
B(  0-C ,  1-C ) :   0.9035 B(  0-C ,  5-H ) :   0.9692 B(  0-C ,  6-H ) :   0.9756 
B(  0-C ,  7-H ) :   0.9701 B(  1-C ,  2-N ) :   0.9239 B(  1-C ,  8-H ) :   0.9720 
B(  1-C ,  9-H ) :   0.9563 B(  2-N ,  3-C ) :   0.9607 B(  2-N , 10-H ) :   0.8988 
B(  3-C ,  4-C ) :   0.8754 B(  3-C , 11-H ) :   0.9761 B(  3-C , 12-H ) :   0.9745 
B(  4-C , 13-H ) :   0.9740 B(  4-C , 14-H ) :   0.9681 B(  4-C , 15-H ) :   0.9725 


-------
TIMINGS
-------

Total SCF time: 0 days 0 hours 0 min 16 sec 

Total time                  ....      16.452 sec
Sum of individual times     ....      15.843 sec  ( 96.3%)

SCF preparation             ....       0.895 sec  (  5.4%)
Fock matrix formation       ....      14.098 sec  ( 85.7%)
  Startup                   ....       0.051 sec  (  0.4% of F)
  Split-RI-J                ....       1.740 sec  ( 12.3% of F)
  XC integration            ....       9.429 sec  ( 66.9% of F)
    XC Preparation          ....       0.000 sec  (  0.0% of XC)
    Basis function eval.    ....       1.750 sec  ( 18.6% of XC)
    Density eval.           ....       2.200 sec  ( 23.3% of XC)
    XC-Functional eval.     ....       1.358 sec  ( 14.4% of XC)
    XC-Potential eval.      ....       2.797 sec  ( 29.7% of XC)
  CPCM terms                ....       2.405 sec  ( 17.1% of F)
Diagonalization             ....       0.000 sec  (  0.0%)
Density matrix formation    ....       0.213 sec  (  1.3%)
Total Energy calculation    ....       0.039 sec  (  0.2%)
Population analysis         ....       0.079 sec  (  0.5%)
Orbital Transformation      ....       0.046 sec  (  0.3%)
Orbital Orthonormalization  ....       0.000 sec  (  0.0%)
DIIS solution               ....       0.434 sec  (  2.6%)
  MO trafo                  ....       0.000 sec  (  0.0 % of DIIS)
  Orb grad                  ....       0.000 sec  (  0.0 % of DIIS)
  Energy W gradient         ....       0.000 sec  (  0.0 % of DIIS)
  DIIS error                ....       0.005 sec  (  1.3 % of DIIS)
  DIIS work                 ....       0.385 sec  ( 88.7 % of DIIS)
  Form Q                    ....       0.000 sec  (  0.0 % of DIIS)
  Form QpQm                 ....       0.000 sec  (  0.0 % of DIIS)
  Exp/Cayley                ....       0.000 sec  (  0.0 % of DIIS)
  Orb update                ....       0.000 sec  (  0.0 % of DIIS)
  Wake-sleep                ....       0.020 sec  (  4.7 % of DIIS)
SOSCF solution              ....       0.039 sec  (  0.2%)
  MO trafo                  ....       0.031 sec  ( 79.2 % of SOSCF)
  Orb grad                  ....       0.001 sec  (  1.6 % of SOSCF)
  Rot update                ....       0.000 sec  (  0.1 % of SOSCF)
  Step                      ....       0.007 sec  ( 19.0 % of SOSCF)
Finished LeanSCF after  16.6 sec

Maximum memory used throughout the entire LEANSCF-calculation: 19.8 MB


-------------------------------------------------------------------------------
                          DFT DISPERSION CORRECTION                            
                                                                               
                                DFTD4 V3.4.0                                   
-------------------------------------------------------------------------------
The R2SCAN3C composite method is recognized
Using three-body term ABC
Active option DFTDOPT                   ...         5   

-------------------------   ----------------
Dispersion correction           -0.003547787
-------------------------   ----------------

------------------   -----------------
gCP correction             0.012233800
------------------   -----------------

-------------------------   --------------------
FINAL SINGLE POINT ENERGY      -213.717140058967
-------------------------   --------------------


------------------------------------------------------------------------------
                              ORCA PROPERTY CALCULATIONS
------------------------------------------------------------------------------

GBWName                                 ... sp_solv.gbw
Number of atoms                         ...     16
Number of basis functions               ...    155
Max core memory                         ...   1024 MB

Electric properties:
Dipole moment                           ... YES
Quadrupole moment                       ...  NO
Static polarizability (Dipole/Dipole)   ...  NO
Static polarizability (Dipole/Quad.)    ...  NO
Static polarizability (Quad./Quad.)     ...  NO
Static polarizability (Velocity)        ...  NO

Atomic electric properties:
Dipole moment                           ...  NO
Quadrupole moment                       ...  NO
Static polarizability                   ...  NO

Choice of electric origin               ... Center of mass
Position of electric origin             ...     0.000000     0.000002    -0.000001

General magnetic properties:
Magnetizability                         ...  NO

EPR properties:
g-Tensor (aka g-matrix)                 ...  NO
Zero-Field splitting spin-orbit         ...  NO
Zero-field splitting spin-spin          ...  NO
Hyperfine couplings                     ...  NO (   0 nuclei)
Quadrupole couplings                    ...  NO (   0 nuclei)
Contact density                         ...  NO (   0 nuclei)

NMR properties:
Chemical shifts                         ...  NO (   0 nuclei)
Spin-rotation constants                 ...  NO (   0 nuclei)
Spin-spin couplings                     ...  NO (   0 nuclei,    0 pairs)

Choice of magnetic origin               ... GIAO
Position of magnetic origin             ...     0.000000     0.000000     0.000000

Properties with geometric perturbations:
SCF Hessian                             ...  NO
IR spectrum                             ...  NO
VCD spectrum                            ...  NO
X-ray spectroscopy properties:
SCF XES/XAS/RIXS spectra                ...  NO


-------------
DIPOLE MOMENT
-------------

Method             : SCF
Type of density    : Electron Density
Multiplicity       :   1
Irrep              :   0
Energy             :  -213.7258260717735823 Eh
Relativity type    : 
Basis              : AO
                                X                 Y                 Z
Electronic contribution:     -0.030168682      -1.734866680       1.219929616
Nuclear contribution   :      0.299095895       2.182574518      -1.013447277
                        -----------------------------------------
Total Dipole Moment    :      0.268927213       0.447707839       0.206482339
                        -----------------------------------------
Magnitude (a.u.)       :      0.561604052
Magnitude (Debye)      :      1.427484056



--------------------
Rotational spectrum 
--------------------
 
Rotational constants in cm-1:             0.296656             0.095723             0.090660 
Rotational constants in MHz :          8893.537259          2869.702321          2717.930405 

Dipole components along the rotational axes: 
x,y,z [a.u.] :     0.265760     0.183968     0.459268 
x,y,z [Debye]:     0.675507     0.467608     1.167366 

 

Dipole moment calculation done in   0.0 sec 

Maximum memory used throughout the entire PROP-calculation: 9.0 MB

--------------------------------
SUGGESTED CITATIONS FOR THIS RUN
--------------------------------

Below you find a list of papers that are relevant to this ORCA run
We neither can nor want to force you to cite these papers, but we appreciate if you do
You receive ORCA, which is the product of decades of hard work by many enthusiastic individuals, for free
The only thing we kindly ask in return is that you cite our papers,
We deeply appreciate it, if you show your appreciation for ORCA by not just citing the generic ORCA reference.

Please note that relegating all ORCA citations to the supporting information does *not* help us.
SI sections are not indexed - citations you put there will not count into any citation statistics
But we need these citations in order to attract the funding resources that allow us to do what we are doing

Therefore, if you are a happy ORCA user, please consider citing a few of the papers listed below in the main body of your paper

In addition to the list printed below, the program has created the file sp_solv.bibtex that contains the list in bibtex format
You can import this file easily into all common literature databanks and citation aid programs


List of essential papers. We consider these as the minimum necessary citations

  1. Neese,F.
     Software update: the ORCA program system, version 5.0
     WIRES Comput. Molec. Sci., 2022 12(1)e1606
     doi.org/10.1002/wcms.1606
  2. Grimme,S.; Hansen,A.; Ehlert,S.; Mewes,J.
     r2SCAN-3c: A 'Swiss army knife' composite electronic-structure method
     J. Chem. Phys., 2021 154 064103
     doi.org/10.1063/5.0040021

List of papers to cite with high priority. The work reported in these papers was absolutely
necessary for this run to complete.
Our perspective: the developers of density functionals and basis sets usually get cited in chemistry papers
Good! But without the algorithms to do something with them, the functionals or basis sets would not do anything.
Hence, in our opinion, the algorithm design and method developments papers are equally worthy of getting cited

  1. Neese,F.
     An improvement of the resolution of the identity approximation for the formation of the Coulomb matrix
     J. Comp. Chem., 2003 24(14)1740-1747
     doi.org/10.1002/jcc.10318
  2. Garcia-Rates,M.; Neese,F.
     Effect of the Solute Cavity on the Solvation Energy and its Derivatives within the Framework of the Gaussian Charge Scheme
     J. Comput. Chem., 2020 41 922-939
     doi.org/10.1002/jcc.26139
  3. Neese,F.
     The SHARK Integral Generation and Digestion System
     J. Comp. Chem., 2022  1-16
     doi.org/10.1002/jcc.26942
  4. Lehtola,S.; Steigemann,C.; Oliveira,M.; Marques,M.
     Recent developments in Libxc - A comprehensive library of functionals for density functional theory
     Software X, 2018 7 
     doi.org/10.1016/j.softx.2017.11.002
  5. Caldeweyher,E.; Bannwarth,C.; Grimme,S.
     Extension of the D3 dispersion coefficient model
     J. Chem. Phys., 2017 147 034112-XXXX
     doi.org/10.1063/1.4993215
  6. Caldeweyher,E.; Ehlert,S.; Hansen,A.; Neugebauer,H.; Spicher,S.; Bannwarth,C.; Grimme,S.
     A generally applicable atomic-charge dependent London dispersion correction
     J. Chem. Phys., 2019 150 154122-XXXX
     doi.org/10.1063/1.5090222
  7. Caldeweyher,E.; Mewes,J.; Ehlert,S.; Grimme,S.
     Extension and evaluation of the D4 London-dispersion model for periodic systems
     Phys. Chem. Chem. Phys., 2020 22(16)8499-8512
     doi.org/10.1039/D0CP00502A

List of suggested additional citations. These are papers that are important in the 'surrounding' of 
of this run, or papers that preceded the highly important papers. If you like your results we are grateful for a citation.

  1. Neese,F.
     The ORCA program system
     WIRES Comput. Molec. Sci., 2012 2(1)73-78
     doi.org/10.1002/wcms.81
  2. Neese,F.
     Software update: the ORCA program system, version 4.0
     WIRES Comput. Molec. Sci., 2018 8(1)1-6
     doi.org/10.1002/wcms.1327
  3. Neese,F.; Wennmohs,F.; Becker,U.; Riplinger,C.
     The ORCA quantum chemistry program package
     J. Chem. Phys., 2020 152 Art. No. L224108
     doi.org/10.1063/5.0004608

List of optional additional citations

  1. Neese,F.
     Approximate second-order SCF convergence for spin unrestricted wavefunctions
     Chem. Phys. Lett., 2000 325(1-3)93-98
     doi.org/10.1016/s0009-2614(00)00662-x

Timings for individual modules:

Sum of individual times          ...       18.036 sec (=   0.301 min)
Startup calculation              ...        0.894 sec (=   0.015 min)   5.0 %
SCF iterations                   ...       17.045 sec (=   0.284 min)  94.5 %
Property calculations            ...        0.097 sec (=   0.002 min)   0.5 %
                             ****ORCA TERMINATED NORMALLY****
TOTAL RUN TIME: 0 days 0 hours 0 minutes 18 seconds 789 msec
