17
 energy: -346.944356753508 gnorm: 0.001246568323 xtb: 6.7.1 (edcfbbe)
C           -2.63317092680167        0.29792446849009        0.99758411393030
C           -2.16936256260934        0.43184802420057       -0.45025943138805
C           -0.87064735210597       -0.28891822266575       -0.73264735382039
O            0.17657378856437        0.35664479914581        0.05757654121867
C            1.40821624501825       -0.17428977288058       -0.03153568957885
O            1.66834179335326       -1.14355789369457       -0.72821348457750
C            2.39065897524807        0.55847097352672        0.82498961269619
H           -3.59371179226935        0.80069707728582        1.14620960659012
H           -2.75785547031576       -0.75615963676084        1.27017072049153
H           -1.91304647310393        0.74330842416115        1.69118642016762
H           -2.06473503955271        1.48779916115656       -0.72645011338866
H           -2.91857284485923        0.00147573637784       -1.12517867370179
H           -0.92433564536680       -1.34298489157849       -0.44000837408021
H           -0.59162494001448       -0.22482281381237       -1.78881421108472
H            3.39327273588145        0.16613623211843        0.65865722866968
H            2.11587992989013        0.43339044107284        1.87742111214629
H            2.36141563522820        1.62856030582488        0.60192656160026
17
 energy: -346.944359192106 gnorm: 0.000372396810 xtb: 6.7.1 (edcfbbe)
C           -2.63186711953387        0.29821971158151        0.99770872808891
C           -2.16937067011617        0.43185972420845       -0.45012914148639
C           -0.87144926858907       -0.28968514851908       -0.73345822087402
O            0.17672584026550        0.35599136320492        0.05672728367521
C            1.40888777579235       -0.17457323597375       -0.03245087660136
O            1.66906023972288       -1.14386655624278       -0.72844588945486
C            2.38965756672607        0.55838206994624        0.82528884673783
H           -3.59244845289650        0.80013971997772        1.14663825139234
H           -2.75538038915737       -0.75550087763594        1.27058687328361
H           -1.91178097963308        0.74431520921548        1.69031442202433
H           -2.06372876294817        1.48774211469916       -0.72601043952273
H           -2.92004539209723        0.00273878235360       -1.12428024426828
H           -0.92457741531682       -1.34373857125156       -0.44076837714241
H           -0.59220936410711       -0.22530694800677       -1.78952958709006
H            3.39283067511275        0.16710309112525        0.66065293733331
H            2.11346878661663        0.43333834813235        1.87720430729606
H            2.35952311996932        1.62836363494812        0.60256579191618
17
 energy: -346.944359192106 gnorm: 0.000372396810 xtb: 6.7.1 (edcfbbe)
C           -2.63186711953387        0.29821971158151        0.99770872808891
C           -2.16937067011617        0.43185972420845       -0.45012914148639
C           -0.87144926858907       -0.28968514851908       -0.73345822087402
O            0.17672584026550        0.35599136320492        0.05672728367521
C            1.40888777579235       -0.17457323597375       -0.03245087660136
O            1.66906023972288       -1.14386655624278       -0.72844588945486
C            2.38965756672607        0.55838206994624        0.82528884673783
H           -3.59244845289650        0.80013971997772        1.14663825139234
H           -2.75538038915737       -0.75550087763594        1.27058687328361
H           -1.91178097963308        0.74431520921548        1.69031442202433
H           -2.06372876294817        1.48774211469916       -0.72601043952273
H           -2.92004539209723        0.00273878235360       -1.12428024426828
H           -0.92457741531682       -1.34373857125156       -0.44076837714241
H           -0.59220936410711       -0.22530694800677       -1.78952958709006
H            3.39283067511275        0.16710309112525        0.66065293733331
H            2.11346878661663        0.43333834813235        1.87720430729606
H            2.35952311996932        1.62836363494812        0.60256579191618
