13
 energy: -26.896931104902 gnorm: 0.060009550892 xtb: 6.7.1 (edcfbbe)
C            1.73209988713940       -1.25667625015801       -0.99420802732734
O            1.50904778264395       -0.18855444402563       -0.01779240334908
S            0.04035922079023        0.46434441431922        0.01211329222482
O           -0.45428635394759        0.75136882533683       -1.33084967512952
O            0.14931945172497        1.51724436708575        1.00834299104321
O           -0.77476948674241       -0.79649710350710        0.62134377009737
C           -2.24087867967722       -0.67803124746152        0.55344985847796
H            1.15367571101360       -2.14344609141412       -0.71768797364233
H            2.80286383457206       -1.46252941982239       -0.93043785258777
H            1.47475032198866       -0.90723322983466       -1.99880899865752
H           -2.61120858215408       -1.17211106683058        1.45902605532612
H           -2.59755813490841       -1.18829852190708       -0.35028061889441
H           -2.55110481068504        0.37500979804632        0.55656723922782
13
 energy: -26.901082215694 gnorm: 0.036945588604 xtb: 6.7.1 (edcfbbe)
C            1.72125143353443       -1.24743728739800       -0.98588388371179
O            1.49626661910781       -0.19522320278419       -0.01923185101352
S            0.03756547872133        0.44187793944977        0.01125578921979
O           -0.45079894871415        0.72279627045707       -1.32175869808104
O            0.12518014409212        1.49904382591649        0.98942976907990
O           -0.77708516356751       -0.80164731138224        0.61915111275962
C           -2.22037396955110       -0.67701445803371        0.55211005354558
H            1.13640596513078       -2.12149969862714       -0.70389106608589
H            2.78950680466372       -1.45451179867905       -0.93313913426330
H            1.43763127957295       -0.88884080903347       -1.97502194257389
H           -2.60078457639618       -1.17272684905568        1.44563303291685
H           -2.56935902626496       -1.16820584917431       -0.35617581998147
H           -2.49309587857111        0.37797925817148        0.54830029499846
13
 energy: -26.903063500160 gnorm: 0.016637749138 xtb: 6.7.1 (edcfbbe)
C            1.70757696859376       -1.23624597024765       -0.97535154491315
O            1.48267298822722       -0.19757491807761       -0.01642178044595
S            0.04156336641918        0.41856376210867        0.01352077210379
O           -0.43616062093847        0.69397115297844       -1.30716092362234
O            0.09313120285169        1.48344181240340        0.96617571935690
O           -0.77080545696355       -0.80289782131509        0.61568749112632
C           -2.19420253772465       -0.67273942151149        0.54901860326741
H            1.12861902185378       -2.11080790234243       -0.69165889894898
H            2.77391245980222       -1.44198906327025       -0.94144064562632
H            1.40016456408820       -0.88057253569031       -1.95641857867057
H           -2.58826652876977       -1.17603972686241        1.42711556212688
H           -2.54943013533805       -1.14258090681360       -0.36464478475571
H           -2.45646513034343        0.38006156846736        0.55235666581103
13
 energy: -26.903314100035 gnorm: 0.011813990251 xtb: 6.7.1 (edcfbbe)
C            1.70535129165903       -1.23568084109766       -0.97247159090487
O            1.48047673863229       -0.19596000502463       -0.01223120684903
S            0.04449420913456        0.41369071074428        0.01409703738536
O           -0.42844135796232        0.68750480278891       -1.30718444695578
O            0.07951664992364        1.48519108569128        0.95809848954915
O           -0.76574526889653       -0.80406662704587        0.61413355735032
C           -2.18994953869819       -0.67113927476445        0.54905344259073
H            1.13456536841139       -2.11645618266735       -0.68500770812011
H            2.77364769225437       -1.43527752773177       -0.94929162328439
H            1.38745285393515       -0.88419337029904       -1.95329918155817
H           -2.58781592046146       -1.18656625443884        1.42016197727233
H           -2.54800877090216       -1.12617290869843       -0.37396172505718
H           -2.45323378527162        0.38371642237058        0.56868063539097
13
 energy: -26.903484583636 gnorm: 0.005942116438 xtb: 6.7.1 (edcfbbe)
C            1.70512287357563       -1.23783213600691       -0.96999749085246
O            1.47858946276098       -0.19582954295467       -0.00606919368627
S            0.04813721100454        0.40878009400644        0.01268826126844
O           -0.41714330392855        0.68332259362421       -1.31296751557931
O            0.06158181263112        1.49057651106543        0.94657905826816
O           -0.76139103109419       -0.80633919658859        0.60952807271752
C           -2.18918011752038       -0.66859802798281        0.55029538988082
H            1.14613075618037       -2.12607762584485       -0.67564373107453
H            2.77633788328059       -1.42600037348786       -0.95867815911380
H            1.37383735794141       -0.88999432126165       -1.94916530997416
H           -2.58608164159073       -1.20628899612257        1.41036146306090
H           -2.55016092878454       -1.09950023017615       -0.38594625543219
H           -2.45347017269810        0.38837128155701        0.59979306732619
13
 energy: -26.903529828706 gnorm: 0.003468184295 xtb: 6.7.1 (edcfbbe)
C            1.70664371348006       -1.23969051904229       -0.96960462927889
O            1.47798238602453       -0.19779148552689       -0.00355305654541
S            0.04890772467875        0.40700577980064        0.01056849760024
O           -0.41228759196758        0.68406990455012       -1.31803730100728
O            0.05457219155366        1.49299927908279        0.94095792488807
O           -0.76209499917906       -0.80781001376304        0.60565430516029
C           -2.19114465648948       -0.66749119432386        0.55176159902382
H            1.15235572079015       -2.12969118075919       -0.67275155364105
H            2.77863429453965       -1.42210258110227       -0.96077602016687
H            1.37086690715099       -0.89186140410317       -1.94676455489243
H           -2.58473668082368       -1.21562633121681        1.40635091438463
H           -2.55384006660550       -1.08647544938713       -0.38844055352856
H           -2.45354878139436        0.38905522561813        0.61541208481276
13
 energy: -26.903557809743 gnorm: 0.002241430995 xtb: 6.7.1 (edcfbbe)
C            1.70919951082668       -1.24148996359677       -0.96927158151604
O            1.47747857506657       -0.20088135661187       -0.00157594709076
S            0.04849168933163        0.40536466734936        0.00739772471991
O           -0.40860863823270        0.68588008158356       -1.32391646080089
O            0.04880074336354        1.49439261705594        0.93525543964079
O           -0.76467527233929       -0.80994892729649        0.60046985014684
C           -2.19394911802323       -0.66642515145335        0.55373276657889
H            1.15934532185405       -2.13256645480209       -0.67055499337067
H            2.78176600094137       -1.41805645745912       -0.96139892744751
H            1.36963744880120       -0.89333413624100       -1.94406314520407
H           -2.58346448294345       -1.22435922320962        1.40276804795871
H           -2.55956724774019       -1.07300094775360       -0.38915932709948
H           -2.45214436914803        0.38901528226209        0.63109421029360
13
 energy: -26.903565438119 gnorm: 0.001923714824 xtb: 6.7.1 (edcfbbe)
C            1.71075827365907       -1.24192167445478       -0.96862263588166
O            1.47718792465455       -0.20218989339295       -0.00101800968383
S            0.04750525983833        0.40448184230766        0.00532208386062
O           -0.40778292056203        0.68604676772265       -1.32669593721587
O            0.04621049441887        1.49419526564228        0.93235894845552
O           -0.76624115129079       -0.81155567746611        0.59723394064916
C           -2.19496465588091       -0.66567005670424        0.55476540198476
H            1.16363869626872       -2.13407547296932       -0.66901701388184
H            2.78376425141779       -1.41546182150324       -0.96154003846018
H            1.36908050083695       -0.89466126795077       -1.94273797053197
H           -2.58305078863646       -1.22905447141555        1.40057747880581
H           -2.56327443728050       -1.06488160456813       -0.38991364355071
H           -2.45052128568544        0.38933809457950        0.64006505225951
13
 energy: -26.903572436355 gnorm: 0.000912117561 xtb: 6.7.1 (edcfbbe)
C            1.71295063666188       -1.24179360718366       -0.96727559166753
O            1.47680053944434       -0.20333971001477       -0.00041461898763
S            0.04552383447555        0.40328331834075        0.00233481546944
O           -0.40747187961997        0.68469834935481       -1.33000712904104
O            0.04294407565368        1.49300422687939        0.92885750815688
O           -0.76812664444753       -0.81421932758782        0.59261560809241
C           -2.19569176758269       -0.66433880204057        0.55611917382978
H            1.16961439512651       -2.13611044541097       -0.66721942751483
H            2.78655511092874       -1.41185000161661       -0.96175018536334
H            1.36889442476174       -0.89669057395043       -1.94127957570254
H           -2.58295651413683       -1.23476875318850        1.39739673842125
H           -2.56859738633332       -1.05341961734000       -0.39087462595262
H           -2.44812866317396        0.39013497358540        0.65227496706909
13
 energy: -26.903574877883 gnorm: 0.000576411816 xtb: 6.7.1 (edcfbbe)
C            1.71376690224002       -1.24160695696382       -0.96661590085122
O            1.47646275105649       -0.20325673111862       -0.00000203427946
S            0.04478496711429        0.40257356327395        0.00110649035033
O           -0.40689117385051        0.68264922736851       -1.33154450767704
O            0.04068943858889        1.49239658412472        0.92736776596321
O           -0.76835668376997       -0.81540754908504        0.59070962414682
C           -2.19578512542250       -0.66356952403874        0.55670277609025
H            1.17211915432442       -2.13714585613244       -0.66624812814471
H            2.78768956086367       -1.41012828133800       -0.96215203683115
H            1.36864014637648       -0.89769247453557       -1.94089794634838
H           -2.58302980287452       -1.23776825434307        1.39568702883085
H           -2.57051554428923       -1.04742979183092       -0.39199241505285
H           -2.44726442859938        0.39097607444606        0.65865694061268
13
 energy: -26.903576225952 gnorm: 0.000430427303 xtb: 6.7.1 (edcfbbe)
C            1.71456375626114       -1.24153351335794       -0.96628376665982
O            1.47610219058673       -0.20314378941964        0.00020807189783
S            0.04421579219069        0.40198383732161        0.00001362759222
O           -0.40616520923071        0.68052232358037       -1.33316627979820
O            0.03877115323613        1.49166783053838        0.92634189480013
O           -0.76867496882882       -0.81625308770654        0.58916240216214
C           -2.19611696681006       -0.66286272956345        0.55731318620023
H            1.17404552324034       -2.13774124633810       -0.66568613308326
H            2.78866163817128       -1.40874894789998       -0.96218203625975
H            1.36885985112679       -0.89833651023591       -1.94068327165070
H           -2.58312467832398       -1.24014342133197        1.39416803780354
H           -2.57214957673150       -1.04219947946534       -0.39248008681170
H           -2.44667834312989        0.39137876370553        0.66405201061668
13
 energy: -26.903576772822 gnorm: 0.000280694647 xtb: 6.7.1 (edcfbbe)
C            1.71506785927099       -1.24162507086297       -0.96614751465938
O            1.47578157571310       -0.20299378306297        0.00011376769502
S            0.04386385587873        0.40162381116995       -0.00082191151531
O           -0.40574425796728        0.67904427474773       -1.33455032724935
O            0.03740964129550        1.49131818869710        0.92548971143039
O           -0.76898914340126       -0.81664039808172        0.58830744838863
C           -2.19646296041714       -0.66245568398022        0.55777035008467
H            1.17503078605885       -2.13792958619629       -0.66515070083068
H            2.78927107674238       -1.40798665011884       -0.96180353767493
H            1.36907880555257       -0.89874353909257       -1.94051919380136
H           -2.58300487075120       -1.24249225385432        1.39299378041234
H           -2.57305840658304       -1.03826115731113       -0.39327672095404
H           -2.44593379963404        0.39173187777328        0.66837250548333
13
 energy: -26.903576949257 gnorm: 0.000123453582 xtb: 6.7.1 (edcfbbe)
C            1.71534158997864       -1.24172499983720       -0.96610434533927
O            1.47569513364522       -0.20283272189734       -0.00011125288454
S            0.04378474186853        0.40150861186746       -0.00122910176792
O           -0.40565527732562        0.67846317294738       -1.33521150087884
O            0.03687407298455        1.49123811876714        0.92501395712083
O           -0.76912166321717       -0.81669683592154        0.58808441923873
C           -2.19658952999719       -0.66219221029557        0.55801596076676
H            1.17559728633480       -2.13804013815907       -0.66474609536041
H            2.78960652319847       -1.40766873270574       -0.96161358832702
H            1.36918241166383       -0.89918502053665       -1.94049332321089
H           -2.58304340672182       -1.24391894487584        1.39199239000535
H           -2.57337851327855       -1.03598506912072       -0.39360205732276
H           -2.44598320737554        0.39162479959471        0.67078219476931
13
 energy: -26.903577036766 gnorm: 0.000099184428 xtb: 6.7.1 (edcfbbe)
C            1.71533495114799       -1.24180510270268       -0.96603881738229
O            1.47567103254730       -0.20259287711301       -0.00039456237347
S            0.04374284496883        0.40158794309113       -0.00137601129846
O           -0.40594895771266        0.67832715088168       -1.33538293753760
O            0.03680915169641        1.49143929760064        0.92472219726656
O           -0.76911320430607       -0.81656192206527        0.58830112998692
C           -2.19653304081194       -0.66217913638340        0.55806681985440
H            1.17561350431526       -2.13801185297376       -0.66438441332720
H            2.78959589272990       -1.40773150793382       -0.96143585328701
H            1.36920819837536       -0.89959762976983       -1.94052893960887
H           -2.58305444737823       -1.24496041432779        1.39125606148266
H           -2.57309971087997       -1.03482280030383       -0.39410522339692
H           -2.44591605293402        0.39149888182696        0.67207820643060
