21
 energy: -312.208088688110 gnorm: 0.003134475703 xtb: 6.7.1 (edcfbbe)
C            2.45002468511723        0.65411783406702       -0.60804192698990
C            1.10545676087006       -0.04352158394590       -0.43432439494625
H            0.79522464558411       -0.46466987445064       -1.39867508587946
C            0.04455358332198        0.93149617109998        0.07282028481202
C           -1.41472625881826        0.44537354474900        0.14780219892512
C           -1.90833329368214       -0.11364834396693       -1.18791776117409
C           -1.68478979000175       -0.54871009943459        1.28196000946177
O            1.25357167371145       -1.19343629140680        0.43290291026101
H            2.38033680480975        1.45360811767796       -1.35477909920060
H            2.77771165607350        1.09827806158717        0.34115345218086
H            3.21067444504695       -0.06006027828325       -0.93881613108325
H            0.35949380560563        1.28845287373459        1.06515976850904
H            0.07734671565953        1.80435682221987       -0.59279730458925
H           -2.00707692532119        1.34552287148734        0.36628836815653
H           -1.40172835671726       -1.05372533296081       -1.43563135758033
H           -1.73336707242341        0.59134595434676       -2.00893980704604
H           -2.98294209713882       -0.32249200999251       -1.14577467261270
H           -1.25234176219337       -1.53025535241259        1.06880218942476
H           -1.26831923524921       -0.19383802986606        2.23140263602709
H           -2.76341548490280       -0.68433821400945        1.41993029152028
H            1.35927451862372       -0.85617962506560        1.33483456958890
21
 energy: -312.208100258892 gnorm: 0.001105691321 xtb: 6.7.1 (edcfbbe)
C            2.45062231945281        0.65385047158317       -0.60810250285198
C            1.10583867564449       -0.04172258172231       -0.43531075545370
H            0.79610454744680       -0.46318751835115       -1.39870269167250
C            0.04441225128848        0.93120030065625        0.07311133251963
C           -1.41490956384650        0.44482805123880        0.14820617214294
C           -1.90789167651222       -0.11443822355410       -1.18727114437724
C           -1.68569911523484       -0.54840914684486        1.28244894092888
O            1.25440103440225       -1.19264661004949        0.43109363542137
H            2.38115175920270        1.45368221167086       -1.35287772904991
H            2.77794667614901        1.09593280172971        0.34082473680911
H            3.21132253548745       -0.05933372157559       -0.93997539538101
H            0.35937273441214        1.28828316803317        1.06514216011946
H            0.07612106968518        1.80405478392893       -0.59234794453432
H           -2.00745298223710        1.34466505047952        0.36620046447077
H           -1.40276595884757       -1.05522653369519       -1.43407189469749
H           -1.73129195059303        0.58976180378636       -2.00832474765991
H           -2.98284633841445       -0.32123964849363       -1.14546268098829
H           -1.25305151580749       -1.53029374626683        1.07063852023807
H           -1.27058204267675       -0.19276790529546        2.23214696106131
H           -2.76474358841800       -0.68361595178781        1.41825491819077
H            1.36057034479180       -0.85569962206704        1.33174018743184
21
 energy: -312.208104795031 gnorm: 0.001111374846 xtb: 6.7.1 (edcfbbe)
C            2.45016917291984        0.65465799539357       -0.60798035692147
C            1.10589088179661       -0.04027381726114       -0.43714490888579
H            0.79606184665621       -0.46066375860685       -1.40016081693007
C            0.04524116283613        0.93134822767166        0.07333765489826
C           -1.41402796480013        0.44392513991763        0.14845361798491
C           -1.90675789901596       -0.11618576808030       -1.18639855453782
C           -1.68693290992579       -0.54754865843885        1.28333403226201
O            1.25416160372404       -1.19340846213452        0.42813894000208
H            2.38169693462253        1.45662617912106       -1.34944923382749
H            2.77829650132372        1.09233036612741        0.34172425752191
H            3.20988106948269       -0.05789184075035       -0.94278309565889
H            0.36037578841989        1.28800275389609        1.06525412389215
H            0.07515225545706        1.80474249534055       -0.59140892180309
H           -2.00656012297542        1.34376927187320        0.36529833791813
H           -1.40450495254335       -1.05887780000314       -1.43083246552885
H           -1.72683278273769        0.58606702222387       -2.00816160821237
H           -2.98245544246770       -0.31915912364727       -1.14550906084668
H           -1.25360920157601       -1.52992385816639        1.07457902609547
H           -1.27500932102891       -0.19021162318424        2.23372339748175
H           -2.76649668318768       -0.68280447914974        1.41569026878623
H            1.36288968906226       -0.85684227453638        1.32765929038343
21
 energy: -312.208108807840 gnorm: 0.000827573293 xtb: 6.7.1 (edcfbbe)
C            2.45043734948067        0.65503097373443       -0.60787893367366
C            1.10574281320457       -0.03914281614945       -0.43868686819324
H            0.79557691126815       -0.45787860694695       -1.40241218277919
C            0.04510170452058        0.93118942025273        0.07364890191056
C           -1.41433698773349        0.44393872803399        0.14868219754427
C           -1.90585488473319       -0.11773108559496       -1.18597000626580
C           -1.68791310083671       -0.54631379675016        1.28445788532373
O            1.25355977596758       -1.19449301450230        0.42471064162311
H            2.38205412252537        1.45992524206718       -1.34651051440758
H            2.77940908948812        1.08909107106513        0.34344429702764
H            3.20949122883320       -0.05690882235050       -0.94578525333976
H            0.36069952468132        1.28686734948387        1.06577515403580
H            0.07437361567596        1.80539239948540       -0.59010525824161
H           -2.00695463953774        1.34406574954126        0.36423031451671
H           -1.40556930390363       -1.06227412038349       -1.42765455386647
H           -1.72284336126056        0.58235009271881       -2.00896928058933
H           -2.98211554938141       -0.31797436949028       -1.14642180355148
H           -1.25317035809491       -1.52861396919918        1.07822562933726
H           -1.27869388927987       -0.18716340215926        2.23533491320872
H           -2.76760184356739       -0.68265340437176        1.41464503479556
H            1.36523782969016       -0.85902503014098        1.32460729374555
21
 energy: -312.208108807840 gnorm: 0.000827573293 xtb: 6.7.1 (edcfbbe)
C            2.45043734948067        0.65503097373443       -0.60787893367366
C            1.10574281320457       -0.03914281614945       -0.43868686819324
H            0.79557691126815       -0.45787860694695       -1.40241218277919
C            0.04510170452058        0.93118942025273        0.07364890191056
C           -1.41433698773349        0.44393872803399        0.14868219754427
C           -1.90585488473319       -0.11773108559496       -1.18597000626580
C           -1.68791310083671       -0.54631379675016        1.28445788532373
O            1.25355977596758       -1.19449301450230        0.42471064162311
H            2.38205412252537        1.45992524206718       -1.34651051440758
H            2.77940908948812        1.08909107106513        0.34344429702764
H            3.20949122883320       -0.05690882235050       -0.94578525333976
H            0.36069952468132        1.28686734948387        1.06577515403580
H            0.07437361567596        1.80539239948540       -0.59010525824161
H           -2.00695463953774        1.34406574954126        0.36423031451671
H           -1.40556930390363       -1.06227412038349       -1.42765455386647
H           -1.72284336126056        0.58235009271881       -2.00896928058933
H           -2.98211554938141       -0.31797436949028       -1.14642180355148
H           -1.25317035809491       -1.52861396919918        1.07822562933726
H           -1.27869388927987       -0.18716340215926        2.23533491320872
H           -2.76760184356739       -0.68265340437176        1.41464503479556
H            1.36523782969016       -0.85902503014098        1.32460729374555
