      -----------------------------------------------------------      
     |                   =====================                   |     
     |                           x T B                           |     
     |                   =====================                   |     
     |                         S. Grimme                         |     
     |          Mulliken Center for Theoretical Chemistry        |     
     |                    University of Bonn                     |     
      -----------------------------------------------------------      

   * xtb version 6.7.1 (edcfbbe) compiled by 'albert@albert-system' on 2024-07-22

   xtb is free software: you can redistribute it and/or modify it under
   the terms of the GNU Lesser General Public License as published by
   the Free Software Foundation, either version 3 of the License, or
   (at your option) any later version.
   
   xtb is distributed in the hope that it will be useful,
   but WITHOUT ANY WARRANTY; without even the implied warranty of
   MERCHANTABILITY or FITNESS FOR A PARTICULAR PURPOSE.  See the
   GNU Lesser General Public License for more details.
   
   Cite this work as:
   * C. Bannwarth, E. Caldeweyher, S. Ehlert, A. Hansen, P. Pracht,
     J. Seibert, S. Spicher, S. Grimme, WIREs Comput. Mol. Sci., 2020, 11,
     e01493. DOI: 10.1002/wcms.1493
   
   for GFN2-xTB:
   * C. Bannwarth, S. Ehlert and S. Grimme., J. Chem. Theory Comput., 2019,
     15, 1652-1671. DOI: 10.1021/acs.jctc.8b01176
   for GFN1-xTB:
   * S. Grimme, C. Bannwarth, P. Shushkov, J. Chem. Theory Comput., 2017,
     13, 1989-2009. DOI: 10.1021/acs.jctc.7b00118
   for GFN0-xTB:
   * P. Pracht, E. Caldeweyher, S. Ehlert, S. Grimme, ChemRxiv, 2019, preprint.
     DOI: 10.26434/chemrxiv.8326202.v1
   for GFN-FF:
   * S. Spicher and S. Grimme, Angew. Chem. Int. Ed., 2020, 59, 15665-15673.
     DOI: 10.1002/anie.202004239
   
   for ALPB and GBSA implicit solvation:
   * S. Ehlert, M. Stahn, S. Spicher, S. Grimme, J. Chem. Theory Comput.,
     2021, 17, 4250-4261. DOI: 10.1021/acs.jctc.1c00471
   
   for ddCOSMO and CPCM-X implicit solvation:
   * M. Stahn, S. Ehlert, S. Grimme, J. Phys. Chem. A,
     2023, XX, XXXX-XXXX. DOI: 10.1021/acs.jpca.3c04382
   
   for DFT-D4:
   * E. Caldeweyher, C. Bannwarth and S. Grimme, J. Chem. Phys., 2017,
     147, 034112. DOI: 10.1063/1.4993215
   * E. Caldeweyher, S. Ehlert, A. Hansen, H. Neugebauer, S. Spicher,
     C. Bannwarth and S. Grimme, J. Chem. Phys., 2019, 150, 154122.
     DOI: 10.1063/1.5090222
   * E. Caldeweyher, J.-M. Mewes, S. Ehlert and S. Grimme, Phys. Chem. Chem. Phys.
     2020, 22, 8499-8512. DOI: 10.1039/D0CP00502A
   
   for sTDA-xTB:
   * S. Grimme and C. Bannwarth, J. Chem. Phys., 2016, 145, 054103.
     DOI: 10.1063/1.4959605
   
   in the mass-spec context:
   * V. Asgeirsson, C. Bauer and S. Grimme, Chem. Sci., 2017, 8, 4879.
     DOI: 10.1039/c7sc00601b
   * J. Koopman and S. Grimme, ACS Omega 2019, 4, 12, 15120-15133.
     DOI: 10.1021/acsomega.9b02011
   
   for metadynamics refer to:
   * S. Grimme, J. Chem. Theory Comput., 2019, 155, 2847-2862
     DOI: 10.1021/acs.jctc.9b00143
   
   for SPH calculations refer to:
   * S. Spicher and S. Grimme, J. Chem. Theory Comput., 2021, 17, 1701-1714
     DOI: 10.1021/acs.jctc.0c01306
   
   for ONIOM refer to:
   * C. Plett, A. Katbashev, S. Ehlert, S. Grimme, M. Bursch,
     Phys. Chem. Chem. Phys., 2023, 25, 17860-17868. DOI: 10.1039/D3CP02178E
   
   for DIPRO refer to:
   * J. Kohn, N. Gildemeister, S. Grimme, D. Fazzi, A. Hansen,
     J. Chem. Phys., 2023, just accepted.
   
   for PTB refer to:
   * S. Grimme, M. Mueller, A. Hansen, J. Chem. Phys., 2023, 158, 124111.
     DOI: 10.1063/5.0137838
   
   with help from (in alphabetical order)
   P. Atkinson, C. Bannwarth, F. Bohle, G. Brandenburg, E. Caldeweyher
   M. Checinski, S. Dohm, S. Ehlert, S. Ehrlich, I. Gerasimov, C. Hölzer
   A. Katbashev, J. Kohn, J. Koopman, C. Lavigne, S. Lehtola, F. März, M. Müller,
   F. Musil, H. Neugebauer, J. Pisarek, C. Plett, P. Pracht, F. Pultar,
   J. Seibert, P. Shushkov, S. Spicher, M. Stahn, M. Steiner, T. Strunk,
   J. Stückrath, T. Rose, and J. Unsleber
   
 * started run on 2025/04/11 at 12:08:07.854     
   ID    Z sym.   atoms
    1    6 C      1, 2, 4, 6-11
    2    8 O      3, 5, 12
    3    1 H      13-22

           -------------------------------------------------
          |                Calculation Setup                |
           -------------------------------------------------

          program call               : /srv/scratch/z5358697/.xtb/bin/xtb xtb_rrho.coord --gfn2 --ohess vtight --chrg 0 --enso --norestart -I rrho-xcontrol-inp --parallel 1 --alpb water
          hostname                   : k075
          coordinate file            : xtb_rrho.coord
          omp threads                :                     1


           -------------------------------------------------
          |                 G F N 2 - x T B                 |
           -------------------------------------------------

        Reference                      10.1021/acs.jctc.8b01176
      * Hamiltonian:
        H0-scaling (s, p, d)           1.850000    2.230000    2.230000
        zeta-weighting                 0.500000
      * Dispersion:
        s8                             2.700000
        a1                             0.520000
        a2                             5.000000
        s9                             5.000000
      * Repulsion:
        kExp                           1.500000    1.000000
        rExp                           1.000000
      * Coulomb:
        alpha                          2.000000
        third order                    shell-resolved
        anisotropic                    true
        a3                             3.000000
        a5                             4.000000
        cn-shift                       1.200000
        cn-exp                         4.000000
        max-rad                        5.000000

      * Solvation model:               ALPB
        Solvent                        water
        Parameter file                 internal GFN2-xTB/ALPB
        Dielectric constant                8.0200E+01
        Reference state                gsolv [1 M gas/solution]
        Free energy shift                  1.0808E-03 Eh       6.7819E-01 kcal/mol
        Temperature                        2.9815E+02 K
        Density                            1.0000E+00 kg/L
        Solvent mass                       1.8000E+01 g/mol
        Interaction kernel             P16
        Born radius scaling (c1)           1.4744E+00
        Born radii integrator          GBOBC
        Born offset                        0.0000E+00 a0       0.0000E+00 AA
        H-bond correction              true
        Ion screening                  false
        Surface tension                    1.0000E-05 Eh       1.5569E+01 dyn/cm
        Grid points                               974 per atom

          ...................................................
          :                      SETUP                      :
          :.................................................:
          :  # basis functions                  58          :
          :  # atomic orbitals                  58          :
          :  # shells                           34          :
          :  # electrons                        64          :
          :  max. iterations                   250          :
          :  Hamiltonian                  GFN2-xTB          :
          :  restarted?                      false          :
          :  GBSA solvation                   true          :
          :  PC potential                    false          :
          :  electronic temp.          300.0000000     K    :
          :  accuracy                    1.0000000          :
          :  -> integral cutoff          0.2500000E+02      :
          :  -> integral neglect         0.1000000E-07      :
          :  -> SCF convergence          0.1000000E-05 Eh   :
          :  -> wf. convergence          0.1000000E-03 e    :
          :  Broyden damping             0.4000000          :
          :  net charge                          0          :
          :  unpaired electrons                  0          :
          ...................................................

 iter      E             dE          RMSdq      gap      omega  full diag
   1    -36.9964260 -0.369964E+02  0.493E+00    3.55       0.0  T
   2    -37.0424589 -0.460329E-01  0.267E+00    3.21       1.0  T
   3    -37.0408250  0.163390E-02  0.116E+00    3.48       1.0  T
   4    -37.0470140 -0.618905E-02  0.268E-01    3.35       1.0  T
   5    -37.0476045 -0.590451E-03  0.963E-02    3.35       1.0  T
   6    -37.0476467 -0.421770E-04  0.500E-02    3.34       1.0  T
   7    -37.0476507 -0.399174E-05  0.151E-02    3.34       1.4  T
   8    -37.0476525 -0.179882E-05  0.618E-03    3.34       3.5  T
   9    -37.0476526 -0.178470E-06  0.334E-03    3.34       6.4  T
  10    -37.0476527 -0.448431E-07  0.107E-03    3.34      20.0  T
  11    -37.0476527 -0.411877E-08  0.406E-04    3.34      52.6  T
  12    -37.0476527 -0.987647E-09  0.191E-04    3.34     111.4  T

   *** convergence criteria satisfied after 12 iterations ***

         #    Occupation            Energy/Eh            Energy/eV
      -------------------------------------------------------------
         1        2.0000           -0.7413417             -20.1729
       ...           ...                  ...                  ...
        26        2.0000           -0.4667272             -12.7003
        27        2.0000           -0.4635212             -12.6131
        28        2.0000           -0.4392564             -11.9528
        29        2.0000           -0.4316813             -11.7466
        30        2.0000           -0.4212843             -11.4637
        31        2.0000           -0.4185145             -11.3884
        32        2.0000           -0.3980702             -10.8320 (HOMO)
        33                         -0.2753106              -7.4916 (LUMO)
        34                         -0.2372349              -6.4555
        35                         -0.1893922              -5.1536
        36                         -0.0944275              -2.5695
        37                         -0.0239167              -0.6508
       ...                                ...                  ...
        58                          0.6530397              17.7701
      -------------------------------------------------------------
                  HL-Gap            0.1227596 Eh            3.3405 eV
             Fermi-level           -0.3366904 Eh           -9.1618 eV

 SCC (total)                   0 d,  0 h,  0 min,  0.034 sec
 SCC setup                      ...        0 min,  0.001 sec (  4.207%)
 Dispersion                     ...        0 min,  0.000 sec (  0.545%)
 classical contributions        ...        0 min,  0.000 sec (  0.136%)
 integral evaluation            ...        0 min,  0.002 sec (  7.220%)
 iterations                     ...        0 min,  0.022 sec ( 65.455%)
 molecular gradient             ...        0 min,  0.007 sec ( 21.779%)
 printout                       ...        0 min,  0.000 sec (  0.584%)

         :::::::::::::::::::::::::::::::::::::::::::::::::::::
         ::                     SUMMARY                     ::
         :::::::::::::::::::::::::::::::::::::::::::::::::::::
         :: total energy             -36.589535789540 Eh    ::
         :: total w/o Gsasa/hb       -36.584217234923 Eh    ::
         :: gradient norm              0.035955033567 Eh/a0 ::
         :: HOMO-LUMO gap              3.340459134376 eV    ::
         ::.................................................::
         :: SCC energy               -37.047713554756 Eh    ::
         :: -> isotropic ES            0.087143251863 Eh    ::
         :: -> anisotropic ES         -0.000890613954 Eh    ::
         :: -> anisotropic XC          0.009835609329 Eh    ::
         :: -> dispersion             -0.017125231277 Eh    ::
         :: -> Gsolv                  -0.019817609477 Eh    ::
         ::    -> Gelec               -0.014499054860 Eh    ::
         ::    -> Gsasa                0.001630204044 Eh    ::
         ::    -> Ghb                 -0.008029518358 Eh    ::
         ::    -> Gshift               0.001080759698 Eh    ::
         :: repulsion energy           0.458177765216 Eh    ::
         :: add. restraining           0.000000000000 Eh    ::
         :: total charge               0.000000000000 e     ::
         :::::::::::::::::::::::::::::::::::::::::::::::::::::

      ----------------------------------------------------------- 
     |                   =====================                   |
     |                        A N C O P T                        |
     |                   =====================                   |
     |               Approximate Normal Coordinate               |
     |                Rational Function Optimizer                |
      ----------------------------------------------------------- 
      ----------------------------------------------------------- 
     |                   =====================                   |
     |                        A N C O P T                        |
     |                   =====================                   |
     |               Approximate Normal Coordinate               |
     |                Rational Function Optimizer                |
      ----------------------------------------------------------- 

          ...................................................
          :                      SETUP                      :
          :.................................................:
          :   optimization level         verytight          :
          :   max. optcycles                   440          :
          :   ANC micro-cycles                  20          :
          :   degrees of freedom                60          :
          :.................................................:
          :   RF solver                   davidson          :
          :   write xtbopt.log                true          :
          :   linear?                        false          :
          :   energy convergence         0.1000000E-06 Eh   :
          :   grad. convergence          0.2000000E-03 Eh/α :
          :   maxmium RF displ.          1.0000000          :
          :   Hlow (freq-cutoff)         0.1000000E-01      :
          :   Hmax (freq-cutoff)         5.0000000          :
          :   S6 in model hess.         20.0000000          :
          ...................................................

generating ANC from exact Hessian ...
Using Lindh-Hessian (1995)
 Shifting diagonal of input Hessian by   9.015573267505050E-003
 Lowest  eigenvalues of input Hessian
    0.000000    0.000000    0.000000    0.000000    0.000000    0.000000
    0.010000    0.010930    0.011417    0.014621    0.019185    0.022057
    0.022651    0.025300    0.029660    0.029751    0.033606    0.047283
 Highest eigenvalues
    1.629571    1.836118    1.872246    1.981271    2.075481    2.307934
 

........................................................................
.............................. CYCLE    1 ..............................
........................................................................

 iter      E             dE          RMSdq      gap      omega  full diag
   1    -37.0476527 -0.370477E+02  0.856E-05    3.34       0.0  T
   2    -37.0476527 -0.198028E-10  0.549E-05    3.34     388.2  T
   3    -37.0476527 -0.358114E-11  0.340E-05    3.34     627.5  T
     SCC iter.                  ...        0 min,  0.003 sec
     gradient                   ...        0 min,  0.007 sec
 * total energy  :   -36.5895358 Eh     change       -0.1345200E-09 Eh
   gradient norm :     0.0359547 Eh/α   predicted     0.0000000E+00 (-100.00%)
   displ. norm   :     0.0926987 α      lambda       -0.1862964E-02
   maximum displ.:     0.0593832 α      in ANC's #10, #33, #40, ...

........................................................................
.............................. CYCLE    2 ..............................
........................................................................

 iter      E             dE          RMSdq      gap      omega  full diag
   1    -37.0623223 -0.370623E+02  0.105E-01    3.39       0.0  T
   2    -37.0623476 -0.252913E-04  0.600E-02    3.38       1.0  T
   3    -37.0623475  0.981669E-07  0.310E-02    3.39       1.0  T
   4    -37.0623521 -0.460816E-05  0.500E-03    3.38       4.3  T
   5    -37.0623523 -0.191268E-06  0.233E-03    3.38       9.1  T
   6    -37.0623523 -0.359284E-07  0.124E-03    3.38      17.1  T
   7    -37.0623523 -0.296904E-08  0.413E-04    3.38      51.7  T
   8    -37.0623523 -0.113457E-08  0.174E-04    3.38     122.2  T
     SCC iter.                  ...        0 min,  0.006 sec
     gradient                   ...        0 min,  0.007 sec
 * total energy  :   -36.5907696 Eh     change       -0.1233840E-02 Eh
   gradient norm :     0.0164852 Eh/α   predicted    -0.9394902E-03 ( -23.86%)
   displ. norm   :     0.0656571 α      lambda       -0.4612937E-03
   maximum displ.:     0.0480114 α      in ANC's #10, #6, #12, ...

........................................................................
.............................. CYCLE    3 ..............................
........................................................................

 iter      E             dE          RMSdq      gap      omega  full diag
   1    -37.0678031 -0.370678E+02  0.661E-02    3.39       0.0  T
   2    -37.0678244 -0.212864E-04  0.360E-02    3.39       1.0  T
   3    -37.0678263 -0.190367E-05  0.217E-02    3.39       1.0  T
   4    -37.0678276 -0.125552E-05  0.569E-03    3.39       3.7  T
   5    -37.0678278 -0.171783E-06  0.175E-03    3.39      12.2  T
   6    -37.0678278 -0.269308E-07  0.932E-04    3.39      22.9  T
   7    -37.0678278 -0.197475E-08  0.342E-04    3.39      62.3  T
     SCC iter.                  ...        0 min,  0.006 sec
     gradient                   ...        0 min,  0.007 sec
 * total energy  :   -36.5910319 Eh     change       -0.2622916E-03 Eh
   gradient norm :     0.0054189 Eh/α   predicted    -0.2316781E-03 ( -11.67%)
   displ. norm   :     0.0183250 α      lambda       -0.4061931E-04
   maximum displ.:     0.0094545 α      in ANC's #12, #6, #10, ...

........................................................................
.............................. CYCLE    4 ..............................
........................................................................

 iter      E             dE          RMSdq      gap      omega  full diag
   1    -37.0670605 -0.370671E+02  0.182E-02    3.38       0.0  T
   2    -37.0670624 -0.187256E-05  0.973E-03    3.38       2.2  T
   3    -37.0670626 -0.187370E-06  0.608E-03    3.38       3.5  T
   4    -37.0670627 -0.103517E-06  0.190E-03    3.38      11.2  T
   5    -37.0670627 -0.138305E-07  0.519E-04    3.38      41.1  T
   6    -37.0670627 -0.197363E-08  0.316E-04    3.38      67.6  T
     SCC iter.                  ...        0 min,  0.005 sec
     gradient                   ...        0 min,  0.007 sec
 * total energy  :   -36.5910583 Eh     change       -0.2641535E-04 Eh
   gradient norm :     0.0020056 Eh/α   predicted    -0.2031827E-04 ( -23.08%)
   displ. norm   :     0.0112104 α      lambda       -0.8981065E-05
   maximum displ.:     0.0062039 α      in ANC's #12, #3, #33, ...

........................................................................
.............................. CYCLE    5 ..............................
........................................................................

 iter      E             dE          RMSdq      gap      omega  full diag
   1    -37.0661984 -0.370662E+02  0.786E-03    3.38       0.0  T
   2    -37.0661986 -0.214160E-06  0.452E-03    3.38       4.7  T
   3    -37.0661986 -0.195267E-07  0.267E-03    3.38       8.0  T
   4    -37.0661987 -0.337213E-07  0.585E-04    3.38      36.5  T
   5    -37.0661987 -0.134027E-08  0.265E-04    3.38      80.5  T
     SCC iter.                  ...        0 min,  0.003 sec
     gradient                   ...        0 min,  0.007 sec
 * total energy  :   -36.5910635 Eh     change       -0.5196510E-05 Eh
   gradient norm :     0.0006108 Eh/α   predicted    -0.4519024E-05 ( -13.04%)
   displ. norm   :     0.0084709 α      lambda       -0.8038380E-06
   maximum displ.:     0.0059087 α      in ANC's #3, #10, #12, ...

........................................................................
.............................. CYCLE    6 ..............................
........................................................................

 iter      E             dE          RMSdq      gap      omega  full diag
   1    -37.0660139 -0.370660E+02  0.354E-03    3.38       0.0  T
   2    -37.0660140 -0.326144E-07  0.211E-03    3.38      10.1  T
   3    -37.0660140  0.875175E-10  0.979E-04    3.38      21.8  T
   4    -37.0660140 -0.537769E-08  0.264E-04    3.38      80.8  T
     SCC iter.                  ...        0 min,  0.003 sec
     gradient                   ...        0 min,  0.007 sec
 * total energy  :   -36.5910643 Eh     change       -0.7526468E-06 Eh
   gradient norm :     0.0003302 Eh/α   predicted    -0.4464997E-06 ( -40.68%)
   displ. norm   :     0.0056127 α      lambda       -0.2427469E-06
   maximum displ.:     0.0047163 α      in ANC's #3, #5, #1, ...

........................................................................
.............................. CYCLE    7 ..............................
........................................................................

 iter      E             dE          RMSdq      gap      omega  full diag
   1    -37.0661694 -0.370662E+02  0.211E-03    3.38       0.0  T
   2    -37.0661694 -0.100562E-07  0.120E-03    3.38      17.8  T
   3    -37.0661694 -0.223643E-09  0.400E-04    3.38      53.4  T
   4    -37.0661694 -0.819753E-10  0.117E-04    3.38     182.1  T
     SCC iter.                  ...        0 min,  0.003 sec
     gradient                   ...        0 min,  0.007 sec
 * total energy  :   -36.5910645 Eh     change       -0.2494150E-06 Eh
   gradient norm :     0.0001094 Eh/α   predicted    -0.1253574E-06 ( -49.74%)
   displ. norm   :     0.0053739 α      lambda       -0.9982253E-07
   maximum displ.:     0.0043175 α      in ANC's #3, #1, #5, ...

........................................................................
.............................. CYCLE    8 ..............................
........................................................................

 iter      E             dE          RMSdq      gap      omega  full diag
   1    -37.0661988 -0.370662E+02  0.189E-03    3.38       0.0  T
   2    -37.0661988 -0.122520E-08  0.110E-03    3.38      19.3  T
   3    -37.0661988 -0.143991E-09  0.109E-04    3.38     196.2  T
   4    -37.0661988 -0.343050E-10  0.495E-05    3.38     431.0  T
     SCC iter.                  ...        0 min,  0.003 sec
     gradient                   ...        0 min,  0.007 sec
 * total energy  :   -36.5910647 Eh     change       -0.1184502E-06 Eh
   gradient norm :     0.0000984 Eh/α   predicted    -0.5078084E-07 ( -57.13%)
   displ. norm   :     0.0061689 α      lambda       -0.7869162E-07
   maximum displ.:     0.0045075 α      in ANC's #3, #1, #5, ...

........................................................................
.............................. CYCLE    9 ..............................
........................................................................

 iter      E             dE          RMSdq      gap      omega  full diag
   1    -37.0662026 -0.370662E+02  0.233E-03    3.38       0.0  T
   2    -37.0662026 -0.442164E-09  0.137E-03    3.38      15.6  T
   3    -37.0662026 -0.198050E-09  0.845E-05    3.38     252.4  T
   4    -37.0662026 -0.378719E-10  0.521E-05    3.38     409.3  T
     SCC iter.                  ...        0 min,  0.003 sec
     gradient                   ...        0 min,  0.007 sec
 * total energy  :   -36.5910648 Eh     change       -0.1001938E-06 Eh
   gradient norm :     0.0000909 Eh/α   predicted    -0.4207944E-07 ( -58.00%)
   displ. norm   :     0.0075570 α      lambda       -0.7180018E-07
   maximum displ.:     0.0050547 α      in ANC's #3, #1, #5, ...

........................................................................
.............................. CYCLE   10 ..............................
........................................................................

 iter      E             dE          RMSdq      gap      omega  full diag
   1    -37.0661931 -0.370662E+02  0.308E-03    3.38       0.0  T
   2    -37.0661931 -0.785597E-09  0.181E-03    3.38      11.8  T
   3    -37.0661931 -0.282157E-09  0.117E-04    3.38     181.8  T
   4    -37.0661931 -0.951914E-10  0.691E-05    3.38     308.4  T
     SCC iter.                  ...        0 min,  0.003 sec
     gradient                   ...        0 min,  0.007 sec
 * total energy  :   -36.5910648 Eh     change       -0.7499202E-07 Eh
   gradient norm :     0.0000576 Eh/α   predicted    -0.3680832E-07 ( -50.92%)
   displ. norm   :     0.0075570 α      lambda        0.0000000E+00
   maximum displ.:     0.0050547 α      in ANC's #3, #1, #5, ...

   *** GEOMETRY OPTIMIZATION CONVERGED AFTER 10 ITERATIONS ***

------------------------------------------------------------------------
 total energy gain   :        -0.0015290 Eh       -0.9595 kcal/mol
 total RMSD          :         0.0352888 a0        0.0187 Å
 total power (kW/mol):        -0.4014494 (step)  -25.4966 (real)
------------------------------------------------------------------------

 ANCopt (total)                0 d,  0 h,  0 min,  0.157 sec
 optimizer setup                ...        0 min,  0.000 sec (  0.220%)
 model hessian                  ...        0 min,  0.003 sec (  1.673%)
 ANC generation                 ...        0 min,  0.001 sec (  0.319%)
 coordinate transformation      ...        0 min,  0.000 sec (  0.061%)
 single point calculation       ...        0 min,  0.146 sec ( 92.711%)
 optimization log               ...        0 min,  0.007 sec (  4.318%)
 hessian update                 ...        0 min,  0.000 sec (  0.052%)
 rational function              ...        0 min,  0.000 sec (  0.314%)

================
 final structure:
================
$coord
       -7.85403772063573       -1.28244864944572        2.71082174812118      C
       -6.56412621028699       -0.27079441837400        0.36045121054696      C
       -3.88328775567365       -0.37201236594344        0.75323222671349      O
       -2.41514329072581        0.41119188147539       -1.13650463997097      C
       -3.28058704279857        1.18868098021038       -3.13048114556826      O
        0.29792857925961        0.23895772226783       -0.57076964784902      C
        2.02847154473407        0.99576874189169       -2.41012502486279      C
        4.58832890692361        0.86368477410491       -1.95590347479075      C
        5.46921231583556       -0.03297297030667        0.36170472341125      C
        3.73978619596249       -0.79192548777817        2.20787844653305      C
        1.18461449541171       -0.65814819731835        1.74798902401263      C
        7.94727760271039       -0.20349931927584        0.91054420436974      O
       -7.27334200580391       -3.22106992171092        3.05137904579479      H
       -7.34425769577969       -0.14085628217995        4.33814290388001      H
       -9.88634077827667       -1.21945587073577        2.44796841721743      H
       -7.09553985605288        1.69267479021897       -0.02418842408299      H
       -7.02356148122514       -1.39637707074481       -1.31513112545767      H
        1.31289825001427        1.68472065963262       -4.19191157168706      H
        5.90832849070176        1.45439808784884       -3.39476794850704      H
        4.45921898238034       -1.47871375726427        3.98563614224338      H
       -0.15071855265810       -1.24292269790439        3.17011215190256      H
        8.98625785648175        0.36699370244214       -0.48934326327578      H
$end
 
 Bond Distances (Angstroems)
 ---------------------------
C1-C2=1.5164         C1-H13=1.0860        C1-H14=1.0859        C1-H15=1.0849        C2-C1=1.5164         C2-O3=1.4348         
C2-H16=1.0955        C2-H17=1.0955        O3-C2=1.4348         O3-C4=1.3324         C4-O3=1.3324         C4-O5=1.2216         
C4-C6=1.4694         O5-C4=1.2216         C6-C4=1.4694         C6-C7=1.3951         C6-C11=1.3968        C7-C6=1.3951         
C7-C8=1.3776         C7-H18=1.0795        C8-C7=1.3776         C8-C9=1.3952         C8-H19=1.0795        C9-C8=1.3952         
C9-C10=1.3976        C9-O12=1.3461        C10-C9=1.3976        C10-C11=1.3757       C10-H20=1.0780       C11-C6=1.3968        
C11-C10=1.3757       C11-H21=1.0777       O12-C9=1.3461        O12-H22=0.9707       H13-C1=1.0860        H14-C1=1.0859        
H15-C1=1.0849        H16-C2=1.0955        H17-C2=1.0955        H18-C7=1.0795        H19-C8=1.0795        H20-C10=1.0780       
H21-C11=1.0777       H22-O12=0.9707       
 C  H  Rav=1.0847 sigma=0.0065  Rmin=1.0777  Rmax=1.0955     9
 C  C  Rav=1.4155 sigma=0.0469  Rmin=1.3757  Rmax=1.5164     8
 O  H  Rav=0.9707 sigma=0.0000  Rmin=0.9707  Rmax=0.9707     1
 O  C  Rav=1.3337 sigma=0.0757  Rmin=1.2216  Rmax=1.4348     4
 
 selected bond angles (degree)
 --------------------
H13-C1-C2=110.01               H14-C1-C2=110.01               H14-C1-H13=108.88              H15-C1-C2=109.28               
H15-C1-H13=109.32              H15-C1-H14=109.32              O3-C2-C1=108.24                H16-C2-C1=111.82               
H16-C2-O3=108.43               H17-C2-C1=111.84               H17-C2-O3=108.44               H17-C2-H16=107.96              
C4-O3-C2=117.14                O5-C4-O3=122.30                C6-C4-O3=113.42                C6-C4-O5=124.27                
C7-C6-C4=118.78                C11-C6-C4=121.89               C11-C6-C7=119.34               C8-C7-C6=120.61                
H18-C7-C6=118.43               H18-C7-C8=120.96               C9-C8-C7=119.95                H19-C8-C7=119.90               
H19-C8-C9=120.15               C10-C9-C8=119.57               O12-C9-C8=122.54               O12-C9-C10=117.89              
C11-C10-C9=120.34              H20-C10-C9=118.40              H20-C10-C11=121.26             
 
 selected dihedral angles (degree)
 ---------------------------------
O3-C2-C1-H13=300.00           O3-C2-C1-H14= 59.95           O3-C2-C1-H15=179.98           H16-C2-C1-H13=180.63          
H16-C2-C1-H14=300.57          H16-C2-C1-H15= 60.60          H17-C2-C1-H13= 59.41          H17-C2-C1-H14=179.36          
H17-C2-C1-H15=299.38          C4-O3-C2-C1=179.05            C4-O3-C2-H16=300.54           C4-O3-C2-H17= 57.52           
O5-C4-O3-C2=  0.02            C6-C4-O3-C2=180.06            C7-C6-C4-O3=179.74            C7-C6-C4-O5=359.77            
C11-C6-C4-O3=359.74           C11-C6-C4-O5=179.78           C8-C7-C6-C4=180.02            C8-C7-C6-C11=  0.00           
H18-C7-C6-C4=  0.00           H18-C7-C6-C11=180.01          C9-C8-C7-C6=  0.00            C9-C8-C7-H18=179.99           
H19-C8-C7-C6=179.98           H19-C8-C7-H18=  0.00          C10-C9-C8-C7=  0.00           C10-C9-C8-H19=180.01          
O12-C9-C8-C7=180.01           O12-C9-C8-H19=  0.00          C11-C10-C9-C8=  0.00          C11-C10-C9-O12=180.01         
H20-C10-C9-C8=180.01          H20-C10-C9-O12=  0.00         
           -------------------------------------------------
          |                Final Singlepoint                |
           -------------------------------------------------

          ...................................................
          :                      SETUP                      :
          :.................................................:
          :  # basis functions                  58          :
          :  # atomic orbitals                  58          :
          :  # shells                           34          :
          :  # electrons                        64          :
          :  max. iterations                   250          :
          :  Hamiltonian                  GFN2-xTB          :
          :  restarted?                      false          :
          :  GBSA solvation                   true          :
          :  PC potential                    false          :
          :  electronic temp.          300.0000000     K    :
          :  accuracy                    1.0000000          :
          :  -> integral cutoff          0.2500000E+02      :
          :  -> integral neglect         0.1000000E-07      :
          :  -> SCF convergence          0.1000000E-05 Eh   :
          :  -> wf. convergence          0.1000000E-03 e    :
          :  Broyden damping             0.4000000          :
          :  net charge                          0          :
          :  unpaired electrons                  0          :
          ...................................................

 iter      E             dE          RMSdq      gap      omega  full diag
   1    -37.0661931 -0.370662E+02  0.310E-05    3.38       0.0  T
   2    -37.0661931 -0.148503E-11  0.198E-05    3.38    1077.9  T
   3    -37.0661931 -0.781597E-13  0.122E-05    3.38    1741.0  T

   *** convergence criteria satisfied after 3 iterations ***

         #    Occupation            Energy/Eh            Energy/eV
      -------------------------------------------------------------
         1        2.0000           -0.7455449             -20.2873
       ...           ...                  ...                  ...
        26        2.0000           -0.4666269             -12.6976
        27        2.0000           -0.4633467             -12.6083
        28        2.0000           -0.4383783             -11.9289
        29        2.0000           -0.4297141             -11.6931
        30        2.0000           -0.4202901             -11.4367
        31        2.0000           -0.4185364             -11.3890
        32        2.0000           -0.3964713             -10.7885 (HOMO)
        33                         -0.2723620              -7.4113 (LUMO)
        34                         -0.2344536              -6.3798
        35                         -0.1857603              -5.0548
        36                         -0.0896532              -2.4396
        37                         -0.0005358              -0.0146
       ...                                ...                  ...
        58                          0.6730351              18.3142
      -------------------------------------------------------------
                  HL-Gap            0.1241092 Eh            3.3772 eV
             Fermi-level           -0.3344167 Eh           -9.0999 eV

 SCC (total)                   0 d,  0 h,  0 min,  0.014 sec
 SCC setup                      ...        0 min,  0.001 sec (  9.634%)
 Dispersion                     ...        0 min,  0.000 sec (  0.723%)
 classical contributions        ...        0 min,  0.000 sec (  0.174%)
 integral evaluation            ...        0 min,  0.002 sec ( 17.273%)
 iterations                     ...        0 min,  0.003 sec ( 18.451%)
 molecular gradient             ...        0 min,  0.007 sec ( 52.552%)
 printout                       ...        0 min,  0.000 sec (  1.089%)

         :::::::::::::::::::::::::::::::::::::::::::::::::::::
         ::                     SUMMARY                     ::
         :::::::::::::::::::::::::::::::::::::::::::::::::::::
         :: total energy             -36.591064829384 Eh    ::
         :: total w/o Gsasa/hb       -36.585522875535 Eh    ::
         :: gradient norm              0.000057906064 Eh/a0 ::
         :: HOMO-LUMO gap              3.377184367210 eV    ::
         ::.................................................::
         :: SCC energy               -37.066254854638 Eh    ::
         :: -> isotropic ES            0.086684021475 Eh    ::
         :: -> anisotropic ES         -0.001189719199 Eh    ::
         :: -> anisotropic XC          0.008612176109 Eh    ::
         :: -> dispersion             -0.017227476753 Eh    ::
         :: -> Gsolv                  -0.020225987991 Eh    ::
         ::    -> Gelec               -0.014684034143 Eh    ::
         ::    -> Gsasa                0.001569561958 Eh    ::
         ::    -> Ghb                 -0.008192275505 Eh    ::
         ::    -> Gshift               0.001080759698 Eh    ::
         :: repulsion energy           0.475190025255 Eh    ::
         :: add. restraining           0.000000000000 Eh    ::
         :: total charge              -0.000000000000 e     ::
         :::::::::::::::::::::::::::::::::::::::::::::::::::::

           ------------------------------------------------- 
          |                Numerical Hessian                |
           ------------------------------------------------- 
step length          :   0.00500
SCC accuracy         :   0.30000
Hessian scale factor :   1.00000
frozen atoms in %    :   0.00000    0
RMS gradient         :   0.00006
estimated CPU  time      0.03 min
estimated wall time      0.03 min

writing file <hessian>.

 projected vibrational frequencies (cm⁻¹)
eigval :       -0.00    -0.00    -0.00     0.00     0.00     0.00
eigval :       22.18    51.60    79.52    91.63   147.20   217.06
eigval :      225.22   298.33   301.02   358.02   369.96   384.67
eigval :      443.46   481.41   482.72   599.58   610.46   650.40
eigval :      722.18   798.78   819.20   822.82   861.42   877.18
eigval :      909.24   914.57   922.61  1006.18  1068.58  1093.60
eigval :     1116.95  1122.09  1127.60  1137.56  1168.84  1232.15
eigval :     1234.75  1263.73  1271.43  1322.17  1348.76  1395.54
eigval :     1424.58  1464.08  1468.48  1477.61  1481.77  1568.84
eigval :     1586.52  1654.22  2919.02  2942.86  3054.93  3057.54
eigval :     3064.77  3085.22  3097.93  3109.34  3119.57  3427.89
           -------------------------------------------------
          |                Property Printout                |
           -------------------------------------------------

    * Orbital Energies and Occupations

         #    Occupation            Energy/Eh            Energy/eV
      -------------------------------------------------------------
         1        2.0000           -0.7455449             -20.2873
       ...           ...                  ...                  ...
        20        2.0000           -0.4936976             -13.4342
        21        2.0000           -0.4890720             -13.3083
        22        2.0000           -0.4859187             -13.2225
        23        2.0000           -0.4758724             -12.9491
        24        2.0000           -0.4741819             -12.9031
        25        2.0000           -0.4695161             -12.7762
        26        2.0000           -0.4666269             -12.6976
        27        2.0000           -0.4633467             -12.6083
        28        2.0000           -0.4383783             -11.9289
        29        2.0000           -0.4297140             -11.6931
        30        2.0000           -0.4202901             -11.4367
        31        2.0000           -0.4185364             -11.3890
        32        2.0000           -0.3964713             -10.7885 (HOMO)
        33                         -0.2723620              -7.4113 (LUMO)
        34                         -0.2344536              -6.3798
        35                         -0.1857603              -5.0548
        36                         -0.0896532              -2.4396
        37                         -0.0005358              -0.0146
        38                          0.0711230               1.9354
        39                          0.1070481               2.9129
        40                          0.1232457               3.3537
        41                          0.1401140               3.8127
        42                          0.1469381               3.9984
        43                          0.1498174               4.0767
       ...                                ...                  ...
        58                          0.6730351              18.3142
      -------------------------------------------------------------
                  HL-Gap            0.1241093 Eh            3.3772 eV
             Fermi-level           -0.3344167 Eh           -9.0999 eV

     #   Z          covCN         q      C6AA      α(0)
     1   6 C        3.752    -0.133    23.119     6.857
     2   6 C        3.698     0.082    19.376     6.296
     3   8 O        1.704    -0.278    18.609     5.824
     4   6 C        2.725     0.353    21.013     7.504
     5   8 O        0.856    -0.511    24.024     6.571
     6   6 C        2.972    -0.038    28.946     8.825
     7   6 C        2.924    -0.022    28.564     8.765
     8   6 C        2.916    -0.072    29.807     8.953
     9   6 C        2.846     0.163    24.484     8.110
    10   6 C        2.918    -0.058    29.441     8.898
    11   6 C        2.920    -0.026    28.652     8.778
    12   8 O        1.660    -0.428    21.395     6.244
    13   1 H        0.925     0.070     2.086     2.259
    14   1 H        0.925     0.070     2.084     2.258
    15   1 H        0.925     0.073     2.054     2.241
    16   1 H        0.924     0.053     2.284     2.364
    17   1 H        0.924     0.053     2.285     2.364
    18   1 H        0.926     0.058     2.224     2.332
    19   1 H        0.926     0.065     2.137     2.286
    20   1 H        0.926     0.072     2.059     2.244
    21   1 H        0.926     0.068     2.107     2.270
    22   1 H        0.804     0.387     0.509     1.121

 Mol. C6AA /au·bohr⁶  :       5364.854018
 Mol. C8AA /au·bohr⁸  :     126301.741563
 Mol. α(0) /au        :        113.362811


Wiberg/Mayer (AO) data.
largest (>0.10) Wiberg bond orders for each atom

 ---------------------------------------------------------------------------
     #   Z sym  total        # sym  WBO       # sym  WBO       # sym  WBO
 ---------------------------------------------------------------------------
     1   6 C    3.985 --     2 C    1.019    13 H    0.984    14 H    0.984
                            15 H    0.980
     2   6 C    3.915 --     1 C    1.019    17 H    0.969    16 H    0.968
                             3 O    0.924
     3   8 O    2.300 --     4 C    1.144     2 C    0.924     5 O    0.160
     4   6 C    3.905 --     5 O    1.643     3 O    1.144     6 C    1.034
     5   8 O    1.940 --     4 C    1.643     3 O    0.160
     6   6 C    3.982 --     7 C    1.367    11 C    1.357     4 C    1.034
     7   6 C    3.988 --     8 C    1.479     6 C    1.367    18 H    0.966
     8   6 C    3.985 --     7 C    1.479     9 C    1.349    19 H    0.963
     9   6 C    3.944 --     8 C    1.349    10 C    1.337    12 O    1.116
    10   6 C    3.987 --    11 C    1.493     9 C    1.337    20 H    0.965
    11   6 C    3.988 --    10 C    1.493     6 C    1.357    21 H    0.965
    12   8 O    2.112 --     9 C    1.116    22 H    0.829
    13   1 H    0.995 --     1 C    0.984
    14   1 H    0.995 --     1 C    0.984
    15   1 H    0.994 --     1 C    0.980
    16   1 H    0.997 --     2 C    0.968
    17   1 H    0.997 --     2 C    0.969
    18   1 H    0.997 --     7 C    0.966
    19   1 H    0.995 --     8 C    0.963
    20   1 H    0.994 --    10 C    0.965
    21   1 H    0.995 --    11 C    0.965
    22   1 H    0.850 --    12 O    0.829
 ---------------------------------------------------------------------------

Topologies differ in total number of bonds
Writing topology from bond orders to xtbtopo.mol

molecular dipole:
                 x           y           z       tot (Debye)
 q only:        1.024      -0.325       0.847
   full:        0.986      -0.234       0.620       3.019
molecular quadrupole (traceless):
                xx          xy          yy          xz          yz          zz
 q only:       17.984       6.807      -8.058     -15.742       0.464      -9.926
  q+dip:       16.977       7.180      -7.901     -16.845       0.170      -9.076
   full:       16.376       7.218      -6.109     -17.061       1.544     -10.267

           -------------------------------------------------
          |                Geometry Summary                 |
           -------------------------------------------------

      molecular mass/u    :      166.1742454
   center of mass at/Å    :       -0.0000361      -0.0001400      -0.0000882
  moments of inertia/u·Å² :        0.1936770E+03   0.1138469E+04   0.1325817E+04
rotational constants/cm⁻¹ :        0.8703995E-01   0.1480729E-01   0.1271490E-01

 * 21 selected distances

     #   Z          #   Z                                           value/Å
     1   6 C        2   6 C                                       1.5164006 (max)
     2   6 C        3   8 O                                       1.4347846
     3   8 O        4   6 C                                       1.3324304
     4   6 C        5   8 O                                       1.2216346
     6   6 C        7   6 C                                       1.3951395
     7   6 C        8   6 C                                       1.3775525
     8   6 C        9   6 C                                       1.3951885
     9   6 C       10   6 C                                       1.3975972
     6   6 C       11   6 C                                       1.3968328
    10   6 C       11   6 C                                       1.3756876
     9   6 C       12   8 O                                       1.3461412
     1   6 C       13   1 H                                       1.0859665
     1   6 C       14   1 H                                       1.0859464
     1   6 C       15   1 H                                       1.0849187
     2   6 C       16   1 H                                       1.0954812
     2   6 C       17   1 H                                       1.0954855
     7   6 C       18   1 H                                       1.0795039
     8   6 C       19   1 H                                       1.0795310
    10   6 C       20   1 H                                       1.0779750
    11   6 C       21   1 H                                       1.0776926
    12   8 O       22   1 H                                       0.9706656 (min)

 * 4 distinct bonds (by element types)

   Z      Z             #   av. dist./Å        max./Å        min./Å
   1 H    6 C           9     1.0847223     1.0954855     1.0776926
   6 C    6 C           7     1.4077712     1.5164006     1.3756876
   1 H    8 O           1     0.9706656     0.9706656     0.9706656
   6 C    8 O           4     1.3337477     1.4347846     1.2216346

           -------------------------------------------------
          |               Frequency Printout                |
           -------------------------------------------------
 projected vibrational frequencies (cm⁻¹)
eigval :       -0.00    -0.00    -0.00     0.00     0.00     0.00
eigval :       22.18    51.60    79.52    91.63   147.20   217.06
eigval :      225.22   298.33   301.02   358.02   369.96   384.67
eigval :      443.46   481.41   482.72   599.58   610.46   650.40
eigval :      722.18   798.78   819.20   822.82   861.42   877.18
eigval :      909.24   914.57   922.61  1006.18  1068.58  1093.60
eigval :     1116.95  1122.09  1127.60  1137.56  1168.84  1232.15
eigval :     1234.75  1263.73  1271.43  1322.17  1348.76  1395.54
eigval :     1424.58  1464.08  1468.48  1477.61  1481.77  1568.84
eigval :     1586.52  1654.22  2919.02  2942.86  3054.93  3057.54
eigval :     3064.77  3085.22  3097.93  3109.34  3119.57  3427.89
 reduced masses (amu)
   1: 11.75   2: 11.85   3: 12.50   4: 12.42   5: 12.40   6: 12.39   7:  8.74   8: 11.85
   9: 11.98  10: 10.96  11:  9.02  12:  4.87  13: 12.39  14: 11.94  15: 11.62  16: 12.50
  17:  8.41  18: 11.38  19:  2.93  20:  9.62  21: 11.72  22: 12.54  23: 11.66  24: 10.85
  25: 11.57  26: 12.86  27:  2.62  28:  5.15  29:  3.35  30: 12.48  31:  9.13  32:  2.81
  33:  3.97  34:  8.87  35:  9.53  36:  4.65  37:  9.31  38:  9.37  39:  2.97  40:  5.10
  41:  2.41  42:  8.82  43:  2.23  44:  3.75  45: 10.91  46:  4.02  47: 11.45  48:  3.39
  49: 10.32  50:  1.52  51:  1.89  52:  9.79  53:  1.63  54: 11.66  55: 11.57  56: 13.30
  57:  1.98  58:  1.46  59:  1.97  60:  1.40  61:  1.81  62:  1.79  63:  1.88  64:  1.79
  65:  1.89  66:  1.86
 IR intensities (km·mol⁻¹)
   1:  0.10   2:  0.16   3:  0.01   4:  0.18   5:  0.65   6:  0.13   7:  0.71   8:  6.51
   9:  0.26  10:  2.44  11:  2.90  12:  0.47  13: 15.38  14:  3.74  15:  3.33  16:  5.33
  17: 19.47  18: 16.58  19:188.69  20:  5.96  21:  3.25  22: 22.18  23:  5.76  24:  9.01
  25: 71.31  26:  9.20  27:  0.38  28: 26.07  29:  0.37  30: 26.48  31:  2.49  32:  0.18
  33:  0.15  34: 21.62  35: 53.45  36:608.91  37:237.40  38:178.26  39:143.08  40: 15.70
  41:169.87  42:287.03  43:  3.82  44: 53.22  45:786.23  46: 25.94  47: 31.64  48:  7.52
  49: 30.37  50:  5.37  51:  1.46  52: 82.72  53:  1.57  54: 39.44  55:498.65  56:634.65
  57: 42.52  58: 48.49  59: 30.56  60: 19.94  61: 25.69  62: 25.81  63: 47.37  64: 11.35
  65: 29.73  66:215.16
 Raman intensities (Ä⁴*amu⁻¹)
   1:  0.00   2:  0.00   3:  0.00   4:  0.00   5:  0.00   6:  0.00   7:  0.00   8:  0.00
   9:  0.00  10:  0.00  11:  0.00  12:  0.00  13:  0.00  14:  0.00  15:  0.00  16:  0.00
  17:  0.00  18:  0.00  19:  0.00  20:  0.00  21:  0.00  22:  0.00  23:  0.00  24:  0.00
  25:  0.00  26:  0.00  27:  0.00  28:  0.00  29:  0.00  30:  0.00  31:  0.00  32:  0.00
  33:  0.00  34:  0.00  35:  0.00  36:  0.00  37:  0.00  38:  0.00  39:  0.00  40:  0.00
  41:  0.00  42:  0.00  43:  0.00  44:  0.00  45:  0.00  46:  0.00  47:  0.00  48:  0.00
  49:  0.00  50:  0.00  51:  0.00  52:  0.00  53:  0.00  54:  0.00  55:  0.00  56:  0.00
  57:  0.00  58:  0.00  59:  0.00  60:  0.00  61:  0.00  62:  0.00  63:  0.00  64:  0.00
  65:  0.00  66:  0.00
 output can be read by thermo (or use thermo option).
 writing <g98.out> molden fake output.
 recommended (thermochemical) frequency scaling factor: 1.0
           -------------------------------------------------
          |             Thermodynamic Functions             |
           -------------------------------------------------

Molecule has the following symmetry elements: (sigma) 
It seems to be the Cs point group
cs  symmetry found (for desy threshold:  0.10E+00) used in thermo

          ...................................................
          :                      SETUP                      :
          :.................................................:
          :  # frequencies                          60      :
          :  # imaginary freq.                       0      :
          :  linear?                             false      :
          :  only rotor calc.                    false      :
          :  symmetry                               cs      :
          :  rotational number                       1      :
          :  scaling factor                  1.0000000      :
          :  rotor cutoff                    0.0000000 cm⁻¹ :
          :  imag. cutoff                 -100.0000000 cm⁻¹ :
          :.................................................:

    mode    ω/cm⁻¹     T·S(HO)/kcal·mol⁻¹    T·S(FR)/kcal·mol⁻¹   T·S(vib)
   ------------------------------------------------------------------------
       1     22.18    -1.91684 (100.00%)    -1.29714 (  0.00%)    -1.91684
       2     51.60    -1.41774 (100.00%)    -1.04711 (  0.00%)    -1.41774
       3     79.52    -1.16355 (100.00%)    -0.91901 (  0.00%)    -1.16355
       4     91.63    -1.08080 (100.00%)    -0.87706 (  0.00%)    -1.08080
       5    147.20    -0.80744 (100.00%)    -0.73665 (  0.00%)    -0.80744
       6    217.06    -0.59136 (100.00%)    -0.62159 (  0.00%)    -0.59136
       7    225.22    -0.57148 (100.00%)    -0.61067 (  0.00%)    -0.57148
       8    298.33    -0.42524 (100.00%)    -0.52739 (  0.00%)    -0.42524
   ------------------------------------------------------------------------

   temp. (K)  partition function   enthalpy   heat capacity  entropy
                                   cal/mol     cal/K/mol   cal/K/mol   J/K/mol
 298.15  VIB  0.107E+05             5603.146     37.350     37.238
         ROT  0.131E+07              888.752      2.981     30.967
         INT  0.140E+11             6491.899     40.330     68.205
         TR   0.207E+28             1481.254      4.968     41.213
         TOT                        7973.1526    45.2985   109.4178   457.8040

       T/K    H(0)-H(T)+PV         H(T)/Eh          T*S/Eh         G(T)/Eh
   ------------------------------------------------------------------------
    298.15    0.127060E-01    0.182150E+00    0.519879E-01    0.130163E+00
   ------------------------------------------------------------------------

         :::::::::::::::::::::::::::::::::::::::::::::::::::::
         ::                  THERMODYNAMIC                  ::
         :::::::::::::::::::::::::::::::::::::::::::::::::::::
         :: total free energy         -36.460902280516 Eh   ::
         ::.................................................::
         :: total energy              -36.591064829249 Eh   ::
         :: zero point energy           0.169444444332 Eh   ::
         :: G(RRHO) w/o ZPVE           -0.039281895599 Eh   ::
         :: G(RRHO) contrib.            0.130162548733 Eh   ::
         :::::::::::::::::::::::::::::::::::::::::::::::::::::

optimized geometry written to: xtbopt.coord


           -------------------------------------------------
          | TOTAL ENERGY              -36.591064829249 Eh   |
          | TOTAL ENTHALPY            -36.408914357498 Eh   |
          | TOTAL FREE ENERGY         -36.460902280516 Eh   |
          | GRADIENT NORM               0.000057920832 Eh/α |
          | HOMO-LUMO GAP               3.377185115552 eV   |
           -------------------------------------------------

------------------------------------------------------------------------
 * finished run on 2025/04/11 at 12:08:10.110     
------------------------------------------------------------------------
 total:
 * wall-time:     0 d,  0 h,  0 min,  2.255 sec
 *  cpu-time:     0 d,  0 h,  0 min,  2.154 sec
 * ratio c/w:     0.955 speedup
 SCF:
 * wall-time:     0 d,  0 h,  0 min,  0.034 sec
 *  cpu-time:     0 d,  0 h,  0 min,  0.023 sec
 * ratio c/w:     0.664 speedup
 ANC optimizer:
 * wall-time:     0 d,  0 h,  0 min,  0.182 sec
 *  cpu-time:     0 d,  0 h,  0 min,  0.166 sec
 * ratio c/w:     0.915 speedup
 analytical hessian:
 * wall-time:     0 d,  0 h,  0 min,  1.968 sec
 *  cpu-time:     0 d,  0 h,  0 min,  1.952 sec
 * ratio c/w:     0.992 speedup

