17
 energy: -346.944834022251 gnorm: 0.001319068797 xtb: 6.7.1 (edcfbbe)
C           -3.00563130491295        0.14076310634112       -0.10637515468464
C           -1.67127329985434        0.59851854209080        0.46028270775330
C           -0.49385279823564       -0.08163806009219       -0.17841227021744
O           -0.55772131679035       -0.93228496606839       -1.05145537220319
O            0.67083519662245        0.36159337264052        0.33204774289257
C            1.88846305053259       -0.23189882909017       -0.21862908772212
C            3.05680212346441        0.39363325634255        0.50119960378159
H           -3.14377723388248       -0.93500785198257        0.02997339444221
H           -3.82314087544157        0.65678968295915        0.40339658793635
H           -3.07745217071875        0.36116155864793       -1.17494096418311
H           -1.60970313850983        0.41106137652322        1.53883093498389
H           -1.53227480034276        1.67891628557721        0.33682024202160
H            1.84550299964366       -1.31399177323850       -0.06335211759654
H            1.91431104051815       -0.02826475727860       -1.29309889640502
H            3.01447203730632        0.18770497056661        1.57447972104460
H            3.98429144137368       -0.03110696643141        0.10622246534045
H            3.08169649288018        1.47615473010073        0.34655821397124
17
 energy: -346.944837784063 gnorm: 0.000551170775 xtb: 6.7.1 (edcfbbe)
C           -3.00546382175449        0.14063639835121       -0.10543461112736
C           -1.67097495816421        0.59874406739145        0.46033818602886
C           -0.49372430713236       -0.07994143478099       -0.18100347629773
O           -0.55793488277725       -0.92924263807520       -1.05498669910783
O            0.67098458750994        0.36116722797398        0.33097909256061
C            1.88950027940444       -0.23325464342935       -0.21880897341449
C            3.05606170923603        0.39341190667211        0.50136547500680
H           -3.14443812900753       -0.93522934655169        0.03246744038392
H           -3.82300404724923        0.65765004313290        0.40369818106043
H           -3.07743254023455        0.35947278796044       -1.17452378475216
H           -1.60832699488525        0.41052768522753        1.53898024013573
H           -1.53335494255448        1.67959361027260        0.33793331931652
H            1.84596931416194       -1.31533508813868       -0.06319612298553
H            1.91613286383137       -0.03044120008884       -1.29375715183983
H            3.01250191260846        0.18847511324622        1.57486453953953
H            3.98518949265056       -0.02996553693759        0.10850623566361
H            3.07986186257331        1.47583464840519        0.34612599492760
17
 energy: -346.944837784063 gnorm: 0.000551170775 xtb: 6.7.1 (edcfbbe)
C           -3.00546382175449        0.14063639835121       -0.10543461112736
C           -1.67097495816421        0.59874406739145        0.46033818602886
C           -0.49372430713236       -0.07994143478099       -0.18100347629773
O           -0.55793488277725       -0.92924263807520       -1.05498669910783
O            0.67098458750994        0.36116722797398        0.33097909256061
C            1.88950027940444       -0.23325464342935       -0.21880897341449
C            3.05606170923603        0.39341190667211        0.50136547500680
H           -3.14443812900753       -0.93522934655169        0.03246744038392
H           -3.82300404724923        0.65765004313290        0.40369818106043
H           -3.07743254023455        0.35947278796044       -1.17452378475216
H           -1.60832699488525        0.41052768522753        1.53898024013573
H           -1.53335494255448        1.67959361027260        0.33793331931652
H            1.84596931416194       -1.31533508813868       -0.06319612298553
H            1.91613286383137       -0.03044120008884       -1.29375715183983
H            3.01250191260846        0.18847511324622        1.57486453953953
H            3.98518949265056       -0.02996553693759        0.10850623566361
H            3.07986186257331        1.47583464840519        0.34612599492760
