
                                 *****************
                                 * O   R   C   A *
                                 *****************

                                            #,                                       
                                            ###                                      
                                            ####                                     
                                            #####                                    
                                            ######                                   
                                           ########,                                 
                                     ,,################,,,,,                         
                               ,,#################################,,                 
                          ,,##########################################,,             
                       ,#########################################, ''#####,          
                    ,#############################################,,   '####,        
                  ,##################################################,,,,####,       
                ,###########''''           ''''###############################       
              ,#####''   ,,,,##########,,,,          '''####'''          '####       
            ,##' ,,,,###########################,,,                        '##       
           ' ,,###''''                  '''############,,,                           
         ,,##''                                '''############,,,,        ,,,,,,###''
      ,#''                                            '''#######################'''  
     '                                                          ''''####''''         
             ,#######,   #######,   ,#######,      ##                                
            ,#'     '#,  ##    ##  ,#'     '#,    #''#        ,####,   ,####,        
            ##       ##  ##   ,#'  ##            #'  '#       #'       #'  '#        
            ##       ##  #######   ##           ,######,      #####,   #    #        
            '#,     ,#'  ##    ##  '#,     ,#' ,#      #,     #,   #   #,  ,#        
             '#######'   ##     ##  '#######'  #'      '#     '####' # '####'        



                #########################################################
                #                        -***-                          #
                #          Department of theory and spectroscopy        #
                #                                                       #
                #                      Frank Neese                      #
                #                                                       #
                #     Directorship, Architecture, Infrastructure        #
                #                    SHARK, DRIVERS                     #
                #        Core code/Algorithms in most modules           #
                #                                                       #
                #        Max Planck Institute fuer Kohlenforschung      #
                #                Kaiser Wilhelm Platz 1                 #
                #                 D-45470 Muelheim/Ruhr                 #
                #                      Germany                          #
                #                                                       #
                #                  All rights reserved                  #
                #                        -***-                          #
                #########################################################


                         Program Version 6.0.0  -   RELEASE  -


 With contributions from (in alphabetic order):
   Daniel Aravena         : Magnetic Suceptibility
   Michael Atanasov       : Ab Initio Ligand Field Theory (pilot matlab implementation)
   Alexander A. Auer      : GIAO ZORA, VPT2 properties, NMR spectrum
   Ute Becker             : All parallelization in ORCA, NUMFREQ, NUMCALC
   Giovanni Bistoni       : ED, misc. LED, open-shell LED, HFLD
   Martin Brehm           : Molecular dynamics
   Dmytro Bykov           : pre 5.0 version of the SCF Hessian
   Marcos Casanova-Páez   : Triplet and SCS-CIS(D). UHF-(DLPNO)-IP/EA/STEOM-CCSD. UHF-CVS-IP/STEOM-CCSD
   Vijay G. Chilkuri      : MRCI spin determinant printing, contributions to CSF-ICE
   Pauline Colinet        : FMM embedding
   Dipayan Datta          : RHF DLPNO-CCSD density
   Achintya Kumar Dutta   : EOM-CC, STEOM-CC
   Nicolas Foglia         : Exact transition moments, OPA infrastructure, MCD improvements
   Dmitry Ganyushin       : Spin-Orbit,Spin-Spin,Magnetic field MRCI
   Miquel Garcia          : C-PCM and meta-GGA Hessian, CCSD/C-PCM, Gaussian charge scheme
   Tiago L. C. Gouveia    : GS-ROHF, GS-ROCIS
   Yang Guo               : DLPNO-NEVPT2, F12-NEVPT2, CIM, IAO-localization
   Andreas Hansen         : Spin unrestricted coupled pair/coupled cluster methods
   Ingolf Harden          : AUTO-CI MPn and infrastructure 
   Benjamin Helmich-Paris : MC-RPA, TRAH-(SCF,CASSCF), AVAS, COSX integrals, SCF dyn. polar.
   Lee Huntington         : MR-EOM, pCC
   Robert Izsak           : Overlap fitted RIJCOSX, COSX-SCS-MP3, EOM
   Riya Kayal             : Wick's Theorem for AUTO-CI, AUTO-CI UHF-CCSDT
   Emily Kempfer          : AUTO-CI, RHF CISDT and CCSDT
   Christian Kollmar      : KDIIS, OOCD, Brueckner-CCSD(T), CCSD density, CASPT2, CASPT2-K, improved NEVPT2
   Axel Koslowski         : Symmetry handling
   Simone Kossmann        : Meta GGA functionals, TD-DFT gradient, OOMP2, (MP2 Hessian; deprecated post 5.0)
   Lucas Lang             : DCDCAS
   Marvin Lechner         : AUTO-CI (C++ implementation), FIC-MRCC
   Spencer Leger          : CASSCF response
   Dagmar Lenk            : GEPOL surface, SMD, ORCA-2-JSON
   Dimitrios Liakos       : Extrapolation schemes; Compound Job, initial MDCI parallelization
   Dimitrios Manganas     : Further ROCIS development; embedding schemes. LFT, Crystal Embedding
   Dimitrios Pantazis     : SARC Basis sets
   Anastasios Papadopoulos: AUTO-CI, single reference methods and gradients
   Taras Petrenko         : pre 6.0 DFT Hessian and TD-DFT gradient, (ASA, deprecated), ECA, 1-Electron XAS/XES, NRVS
   Peter Pinski           : DLPNO-MP2, DLPNO-MP2 Gradient
   Christoph Reimann      : Effective Core Potentials
   Marius Retegan         : Local ZFS, SOC
   Christoph Riplinger    : Optimizer, TS searches, QM/MM, DLPNO-CCSD(T), (RO)-DLPNO pert. Triples
   Michael Roemelt        : Original ROCIS implementation
   Masaaki Saitow         : Open-shell DLPNO-CCSD energy and density
   Barbara Sandhoefer     : DKH picture change effects
   Kantharuban Sivalingam : CASSCF convergence/infrastructure, NEVPT2 and variants, FIC-MRCI
   Bernardo de Souza      : ESD, SOC TD-DFT
   Georgi Stoychev        : AutoAux, RI-MP2 NMR, DLPNO-MP2 response, X2C
   Van Anh Tran           : RI-MP2 g-tensors
   Willem Van den Heuvel  : Paramagnetic NMR
   Zikuan Wang            : NOTCH, Electric field optimization 
   Frank Wennmohs         : Technical directorship and infrastructure
   Hang Xu                : AUTO-CI-Response properties 


 We gratefully acknowledge several colleagues who have allowed us to
 interface, adapt or use parts of their codes:
   Stefan Grimme, W. Hujo, H. Kruse, P. Pracht,  : VdW corrections, initial TS optimization,
                  C. Bannwarth, S. Ehlert,         DFT functionals, gCP, sTDA/sTD-DF
                  L. Wittmann, M. Mueller
   Ed Valeev, F. Pavosevic, A. Kumar             : LibInt (2-el integral package), F12 methods
   Garnet Chan, S. Sharma, J. Yang, R. Olivares  : DMRG
   Ulf Ekstrom                                   : XCFun DFT Library
   Mihaly Kallay                                 : mrcc  (arbitrary order and MRCC methods)
   Frank Weinhold                                : gennbo (NPA and NBO analysis)
   Simon Mueller                                 : openCOSMO-RS
   Christopher J. Cramer and Donald G. Truhlar   : smd solvation model
   Lars Goerigk                                  : TD-DFT with DH, B97 family of functionals
   V. Asgeirsson, H. Jonsson                     : NEB implementation
   FAccTs GmbH                                   : IRC, NEB, NEB-TS, DLPNO-Multilevel, CI-OPT
                                                   MM, QMMM, 2- and 3-layer-ONIOM, Crystal-QMMM,
                                                   LR-CPCM, SF, NACMEs, symmetry and pop. for TD-DFT,
                                                   nearIR, NL-DFT gradient (VV10), updates on ESD,
                                                   ML-optimized integration grids, MBIS, APM,
                                                   GOAT, DOCKER, SOLVATOR, interface openCOSMO-RS
   S Lehtola, MJT Oliveira, MAL Marques          : LibXC Library
   Liviu Ungur et al                             : ANISO software


 Your calculation uses the libint2 library for the computation of 2-el integrals
 For citations please refer to: http://libint.valeyev.net

 Your ORCA version has been built with support for libXC version: 6.2.2
 For citations please refer to: https://libxc.gitlab.io

 This ORCA versions uses:
   CBLAS   interface :  Fast vector & matrix operations
   LAPACKE interface :  Fast linear algebra routines
   SCALAPACK package :  Parallel linear algebra routines
   Shared memory     :  Shared parallel matrices
   BLAS/LAPACK       :  OpenBLAS 0.3.27  USE64BITINT DYNAMIC_ARCH NO_AFFINITY SkylakeX SINGLE_THREADED
        Core in use  :  SkylakeX
   Copyright (c) 2011-2014, The OpenBLAS Project


Your calculation utilizes the geometrical counterpoise correction gCP
Please cite in your paper:
H.Kruse, S. Grimme J.Chem.Phys., 136, (2012), 154101 
   

Your calculation utilizes the atom-pairwise dispersion correction
based on EEQ partial charges (D4)


Your calculation utilizes the SMD solvation module
Please cite in your paper:
A.V. Marenich, C.J. Cramer, D.G. Truhlar J. Phys. Chem. B, 113, (2009), 6378 

================================================================================

----- Orbital basis set information -----
Your calculation utilizes the basis: def2-mTZVPP
   Stefan Grimme, Andreas Hansen, Sebastian Ehlert, and Jan-Michael Mewes 
   J. Chem. Phys. 154, 064103 (2021). DOI: 10.1063/5.0040021

----- AuxJ basis set information -----
Your calculation utilizes the auxiliary basis: def2/J
   F. Weigend, Phys. Chem. Chem. Phys. 8, 1057 (2006).

================================================================================
                                        WARNINGS
                       Please study these warnings very carefully!
================================================================================

Using LibXC functional ID 497 : Re-regularized SCAN exchange by Furness et al
[ 1]  J. W. Furness, A. D. Kaplan, J. Ning, J. P. Perdew, and J. Sun.,  J. Phys. Chem. Lett. 11, 8208-8215 (2020)
[ 2]  J. W. Furness, A. D. Kaplan, J. Ning, J. P. Perdew, and J. Sun.,  J. Phys. Chem. Lett. 11, 9248-9248 (2020)
Using LibXC functional ID 498 : Re-regularized SCAN correlation by Furness et al
[ 1]  J. W. Furness, A. D. Kaplan, J. Ning, J. P. Perdew, and J. Sun.,  J. Phys. Chem. Lett. 11, 8208-8215 (2020)
[ 2]  J. W. Furness, A. D. Kaplan, J. Ning, J. P. Perdew, and J. Sun.,  J. Phys. Chem. Lett. 11, 9248-9248 (2020)
Using LibXC functional ID 497 : Re-regularized SCAN exchange by Furness et al
[ 1]  J. W. Furness, A. D. Kaplan, J. Ning, J. P. Perdew, and J. Sun.,  J. Phys. Chem. Lett. 11, 8208-8215 (2020)
[ 2]  J. W. Furness, A. D. Kaplan, J. Ning, J. P. Perdew, and J. Sun.,  J. Phys. Chem. Lett. 11, 9248-9248 (2020)
Using LibXC functional ID 498 : Re-regularized SCAN correlation by Furness et al
[ 1]  J. W. Furness, A. D. Kaplan, J. Ning, J. P. Perdew, and J. Sun.,  J. Phys. Chem. Lett. 11, 8208-8215 (2020)
[ 2]  J. W. Furness, A. D. Kaplan, J. Ning, J. P. Perdew, and J. Sun.,  J. Phys. Chem. Lett. 11, 9248-9248 (2020)

================================================================================
                                       INPUT FILE
================================================================================
NAME = sp_solv.inp
|  1> ! r2scan-3c def2/J RI DEFGRID2 scfconv6 printgap
|  2> %output
|  3>     printlevel normal
|  4> end
|  5> %cpcm
|  6>     smd true
|  7>     smdsolvent "water"
|  8> end
|  9> * xyz 0 1
| 10> C -1.7379261243 -0.6209960535 1.0089892011
| 11> C -1.2598174155 -0.3380005314 -0.4129803303
| 12> C -2.3551653654 0.3901240538 -1.1917456652
| 13> C 0.0308256027 0.4901421572 -0.4376217316
| 14> C 1.2589089134 -0.2204295151 0.1623198567
| 15> C 2.4780400607 -0.0515879442 -0.7448785552
| 16> C 1.5872240317 0.3067995533 1.5586893756
| 17> H -2.6748052652 -1.1736575359 0.9874606573
| 18> H -1.0095928693 -1.2131773591 1.556106624
| 19> H -1.9034025496 0.3116009659 1.5445153587
| 20> H -1.06258335 -1.2954670539 -0.909776145
| 21> H -3.2695115639 -0.1984751035 -1.2062175969
| 22> H -2.5726633314 1.3501628887 -0.7284237653
| 23> H -2.0454252173 0.5671832083 -2.2191690136
| 24> H -0.1419629459 1.4300134499 0.0907191987
| 25> H 0.2419218985 0.7406863012 -1.4795045951
| 26> H 1.0427037609 -1.2919555311 0.2372000107
| 27> H 2.2885772881 -0.4777164318 -1.7274590252
| 28> H 2.716458845 1.0032021125 -0.865141736
| 29> H 3.344146221 -0.5516391063 -0.3167587
| 30> H 0.7328157153 0.2162181755 2.2232700588
| 31> H 2.4172605656 -0.2492468588 1.9897511079
| 32> H 1.8711601029 1.3559932384 1.5054036434
| 33> *
| 34> 
| 35>                          ****END OF INPUT****
================================================================================

                       ****************************
                       * Single Point Calculation *
                       ****************************

---------------------------------
CARTESIAN COORDINATES (ANGSTROEM)
---------------------------------
  C     -1.737926   -0.620996    1.008989
  C     -1.259817   -0.338001   -0.412980
  C     -2.355165    0.390124   -1.191746
  C      0.030826    0.490142   -0.437622
  C      1.258909   -0.220430    0.162320
  C      2.478040   -0.051588   -0.744879
  C      1.587224    0.306800    1.558689
  H     -2.674805   -1.173658    0.987461
  H     -1.009593   -1.213177    1.556107
  H     -1.903403    0.311601    1.544515
  H     -1.062583   -1.295467   -0.909776
  H     -3.269512   -0.198475   -1.206218
  H     -2.572663    1.350163   -0.728424
  H     -2.045425    0.567183   -2.219169
  H     -0.141963    1.430013    0.090719
  H      0.241922    0.740686   -1.479505
  H      1.042704   -1.291956    0.237200
  H      2.288577   -0.477716   -1.727459
  H      2.716459    1.003202   -0.865142
  H      3.344146   -0.551639   -0.316759
  H      0.732816    0.216218    2.223270
  H      2.417261   -0.249247    1.989751
  H      1.871160    1.355993    1.505404

----------------------------
CARTESIAN COORDINATES (A.U.)
----------------------------
  NO LB      ZA    FRAG     MASS         X           Y           Z
   0 C     6.0000    0    12.011   -3.284204   -1.173512    1.906713
   1 C     6.0000    0    12.011   -2.380710   -0.638728   -0.780420
   2 C     6.0000    0    12.011   -4.450618    0.737228   -2.252073
   3 C     6.0000    0    12.011    0.058252    0.926234   -0.826985
   4 C     6.0000    0    12.011    2.378993   -0.416551    0.306740
   5 C     6.0000    0    12.011    4.682817   -0.097487   -1.407616
   6 C     6.0000    0    12.011    2.999419    0.579767    2.945496
   7 H     1.0000    0     1.008   -5.054649   -2.217891    1.866030
   8 H     1.0000    0     1.008   -1.907854   -2.292573    2.940615
   9 H     1.0000    0     1.008   -3.596910    0.588840    2.918711
  10 H     1.0000    0     1.008   -2.007992   -2.448078   -1.719228
  11 H     1.0000    0     1.008   -6.178481   -0.375064   -2.279421
  12 H     1.0000    0     1.008   -4.861629    2.551438   -1.376521
  13 H     1.0000    0     1.008   -3.865293    1.071821   -4.193622
  14 H     1.0000    0     1.008   -0.268271    2.702334    0.171434
  15 H     1.0000    0     1.008    0.457166    1.399694   -2.795858
  16 H     1.0000    0     1.008    1.970425   -2.441442    0.448243
  17 H     1.0000    0     1.008    4.324784   -0.902753   -3.264424
  18 H     1.0000    0     1.008    5.133363    1.895777   -1.634881
  19 H     1.0000    0     1.008    6.319521   -1.042447   -0.598587
  20 H     1.0000    0     1.008    1.384821    0.408593    4.201372
  21 H     1.0000    0     1.008    4.567960   -0.471008    3.760085
  22 H     1.0000    0     1.008    3.535980    2.562456    2.844801

--------------------------------
INTERNAL COORDINATES (ANGSTROEM)
--------------------------------
 C      0   0   0     0.000000000000     0.00000000     0.00000000
 C      1   0   0     1.526653775808     0.00000000     0.00000000
 C      2   1   0     1.528537860102   109.78121087     0.00000000
 C      2   1   3     1.533684097775   112.24730426   122.32946407
 C      4   2   1     1.540464419864   114.55413046    64.99000760
 C      5   4   2     1.528985673227   110.71035656   134.20482223
 C      5   4   2     1.528269982949   111.59080856   256.35812470
 H      1   2   3     1.087952534342   110.20745524    55.34898061
 H      1   2   3     1.086501497229   111.10798292   175.12350919
 H      1   2   3     1.088075325241   110.31460268   295.79496074
 H      2   1   3     1.096562583625   108.44870313   241.85211971
 H      3   2   1     1.087514310477   110.57625869   302.25681093
 H      3   2   1     1.087955473656   110.28153618    62.10087179
 H      3   2   1     1.087606381176   110.77872460   182.10488540
 H      4   2   1     1.091951495259   108.89467864   301.94113007
 H      4   2   1     1.092178518122   107.56853034   186.14972739
 H      5   4   2     1.095682302675   108.68753243    15.96988081
 H      6   5   4     1.087633214908   110.72384029   299.82626012
 H      6   5   4     1.088066548092   110.32509530    60.01586733
 H      6   5   4     1.087877592399   110.52062234   179.81181462
 H      7   5   4     1.086225594258   111.17832625    56.12481198
 H      7   5   4     1.088100398434   110.45981464   176.46608280
 H      7   5   4     1.088240070315   110.11579142   295.97015193

---------------------------
INTERNAL COORDINATES (A.U.)
---------------------------
 C      0   0   0     0.000000000000     0.00000000     0.00000000
 C      1   0   0     2.884957537594     0.00000000     0.00000000
 C      2   1   0     2.888517940923   109.78121087     0.00000000
 C      2   1   3     2.898242920745   112.24730426   122.32946407
 C      4   2   1     2.911055872593   114.55413046    64.99000760
 C      5   4   2     2.889364185089   110.71035656   134.20482223
 C      5   4   2     2.888011726466   111.59080856   256.35812470
 H      1   2   3     2.055932336611   110.20745524    55.34898061
 H      1   2   3     2.053190273859   111.10798292   175.12350919
 H      1   2   3     2.056164377782   110.31460268   295.79496074
 H      2   1   3     2.072202971756   108.44870313   241.85211971
 H      3   2   1     2.055104213522   110.57625869   302.25681093
 H      3   2   1     2.055937891110   110.28153618    62.10087179
 H      3   2   1     2.055278201928   110.77872460   182.10488540
 H      4   2   1     2.063489277566   108.89467864   301.94113007
 H      4   2   1     2.063918288603   107.56853034   186.14972739
 H      5   4   2     2.070539481840   108.68753243    15.96988081
 H      6   5   4     2.055328910332   110.72384029   299.82626012
 H      6   5   4     2.056147791375   110.32509530    60.01586733
 H      6   5   4     2.055790716864   110.52062234   179.81181462
 H      7   5   4     2.052668892803   111.17832625    56.12481198
 H      7   5   4     2.056211759250   110.45981464   176.46608280
 H      7   5   4     2.056475700854   110.11579142   295.97015193

---------------------
BASIS SET INFORMATION
---------------------
There are 2 groups of distinct atoms

 Group   1 Type C   : 11s6p1d contracted to 5s3p1d pattern {62111/411/1}
 Group   2 Type H   : 4s1p contracted to 2s1p pattern {31/1}

Atom   0C    basis set group =>   1
Atom   1C    basis set group =>   1
Atom   2C    basis set group =>   1
Atom   3C    basis set group =>   1
Atom   4C    basis set group =>   1
Atom   5C    basis set group =>   1
Atom   6C    basis set group =>   1
Atom   7H    basis set group =>   2
Atom   8H    basis set group =>   2
Atom   9H    basis set group =>   2
Atom  10H    basis set group =>   2
Atom  11H    basis set group =>   2
Atom  12H    basis set group =>   2
Atom  13H    basis set group =>   2
Atom  14H    basis set group =>   2
Atom  15H    basis set group =>   2
Atom  16H    basis set group =>   2
Atom  17H    basis set group =>   2
Atom  18H    basis set group =>   2
Atom  19H    basis set group =>   2
Atom  20H    basis set group =>   2
Atom  21H    basis set group =>   2
Atom  22H    basis set group =>   2
---------------------------------
AUXILIARY/J BASIS SET INFORMATION
---------------------------------
There are 2 groups of distinct atoms

 Group   1 Type C   : 12s5p4d2f1g contracted to 6s4p3d1f1g pattern {711111/2111/211/2/1}
 Group   2 Type H   : 5s2p1d contracted to 3s1p1d pattern {311/2/1}

Atom   0C    basis set group =>   1
Atom   1C    basis set group =>   1
Atom   2C    basis set group =>   1
Atom   3C    basis set group =>   1
Atom   4C    basis set group =>   1
Atom   5C    basis set group =>   1
Atom   6C    basis set group =>   1
Atom   7H    basis set group =>   2
Atom   8H    basis set group =>   2
Atom   9H    basis set group =>   2
Atom  10H    basis set group =>   2
Atom  11H    basis set group =>   2
Atom  12H    basis set group =>   2
Atom  13H    basis set group =>   2
Atom  14H    basis set group =>   2
Atom  15H    basis set group =>   2
Atom  16H    basis set group =>   2
Atom  17H    basis set group =>   2
Atom  18H    basis set group =>   2
Atom  19H    basis set group =>   2
Atom  20H    basis set group =>   2
Atom  21H    basis set group =>   2
Atom  22H    basis set group =>   2

Checking for AutoStart:
The File: sp_solv.gbw exists
Trying to determine its content:
     ... Fine, the file contains calculation information
     ... Fine, the calculation information was read
     ... Fine, the file contains a basis set
     ... Fine, the basis set was read
     ... Fine, the file contains a geometry
     ... Fine, the geometry was read
     ... Fine, the file contains a set of orbitals
     ... Fine, the orbitals can be read
     => possible old guess file was deleted
     => GBW file was renamed to GES file
     => GES file is set as startup file
     => Guess is set to MORead
     ... now leaving AutoStart

------------------------------------------------------------------------------
                             ORCA STARTUP CALCULATIONS
                           -- RI-GTO INTEGRALS CHOSEN --
------------------------------------------------------------------------------
------------------------------------------------------------------------------
                   ___                                                        
                  /   \      - P O W E R E D   B Y -                         
                 /     \                                                     
                 |  |  |   _    _      __       _____    __    __             
                 |  |  |  | |  | |    /  \     |  _  \  |  |  /  |          
                  \  \/   | |  | |   /    \    | | | |  |  | /  /          
                 / \  \   | |__| |  /  /\  \   | |_| |  |  |/  /          
                |  |  |   |  __  | /  /__\  \  |    /   |      \           
                |  |  |   | |  | | |   __   |  |    \   |  |\   \          
                \     /   | |  | | |  |  |  |  | |\  \  |  | \   \       
                 \___/    |_|  |_| |__|  |__|  |_| \__\ |__|  \__/        
                                                                              
                      - O R C A' S   B I G   F R I E N D -                    
                                      &                                       
                       - I N T E G R A L  F E E D E R -                       
                                                                              
 v1 FN, 2020, v2 2021, v3 2022-2024                                           
------------------------------------------------------------------------------


----------------------
SHARK INTEGRAL PACKAGE
----------------------

Number of atoms                             ...     23
Number of basis functions                   ...    213
Number of shells                            ...    111
Maximum angular momentum                    ...      2
Integral batch strategy                     ... SHARK/LIBINT Hybrid
RI-J (if used) integral strategy            ... SPLIT-RIJ (Revised 2003 algorithm where possible)
Printlevel                                  ...      1
Contraction scheme used                     ... SEGMENTED contraction
Prescreening option                         ... SCHWARTZ
   Thresh                                   ... 1.000e-10
   Tcut                                     ... 1.000e-11
   Tpresel                                  ... 1.000e-11 
Coulomb Range Separation                    ... NOT USED
Exchange Range Separation                   ... NOT USED
Multipole approximations                    ... NOT USED
Finite Nucleus Model                        ... NOT USED
CABS basis                                  ... NOT available
Auxiliary Coulomb fitting basis             ... AVAILABLE
   # of basis functions in Aux-J            ...    519
   # of shells in Aux-J                     ...    185
   Maximum angular momentum in Aux-J        ...      4
Auxiliary J/K fitting basis                 ... NOT available
Auxiliary Correlation fitting basis         ... NOT available
Auxiliary 'external' fitting basis          ... NOT available

Checking pre-screening integrals            ... done (  0.0 sec) Dimension = 111
Check shell pair data                       ... done (  0.0 sec)
Shell pair information
Shell pair cut-off parameter TPreSel        ...   1.0e-11
Total number of shell pairs                 ...      6216
Shell pairs after pre-screening             ...      5627
Total number of primitive shell pairs       ...     21523
Primitive shell pairs kept                  ...     14067
          la=0 lb=0:   2069 shell pairs
          la=1 lb=0:   2238 shell pairs
          la=1 lb=1:    636 shell pairs
          la=2 lb=0:    426 shell pairs
          la=2 lb=1:    232 shell pairs
          la=2 lb=2:     26 shell pairs

Calculating one electron integrals          ... done (  0.0 sec)
Calculating RI/J V-Matrix + Cholesky decomp.... done (  0.1 sec)
Calculating Nuclear repulsion               ... done (  0.0 sec) ENN=    331.729885589969 Eh

Diagonalization of the overlap matrix:
Smallest eigenvalue                        ... 1.584e-04
Time for diagonalization                   ...    0.005 sec
Threshold for overlap eigenvalues          ... 1.000e-07
Number of eigenvalues below threshold      ... 0
Time for construction of square roots      ...    0.016 sec
Total time needed                          ...    0.032 sec

-------------------
DFT GRID GENERATION
-------------------

General Integration Accuracy     IntAcc      ... 4.388
Radial Grid Type                 RadialGrid  ... OptM3 with GC (2021)
Angular Grid (max. ang.)         AngularGrid ... 4 (Lebedev-302)
Angular grid pruning method      GridPruning ... 4 (adaptive)
Weight generation scheme         WeightScheme... mBecke (2022)
Basis function cutoff            BFCut       ... 1.0000e-10
Integration weight cutoff        WCut        ... 1.0000e-14
Partially contracted basis set               ... off
Rotationally invariant grid construction     ... off
Angular grids for H and He will be reduced by one unit

Total number of grid points                  ...    92933
Total number of batches                      ...     1465
Average number of points per batch           ...       63
Average number of grid points per atom       ...     4041
Initializing property integral containers    ... done (  0.0 sec)

SHARK setup successfully completed in   1.4 seconds

Maximum memory used throughout the entire STARTUP-calculation: 38.9 MB
-------------------------------------------------------------------------------
                                 ORCA GUESS
                   Start orbitals & Density for SCF / CASSCF
-------------------------------------------------------------------------------

------------
SCF SETTINGS
------------
Hamiltonian:
 Density Functional     Method          .... DFT(GTOs)
  Functional kind                       .... Exchange
  Functional name                       .... Re-regularized SCAN exchange by Furness et al
  Functional family                     .... MGGA
  Functional refs                              
    [ 0] J. W. Furness, A. D. Kaplan, J. Ning, J. P. Perdew, and J. Sun.,  J. Phys. Chem. Lett. 11, 8208-8215 (2020), doi: 10.1021/acs.jpclett.0c02405
    [ 1] J. W. Furness, A. D. Kaplan, J. Ning, J. P. Perdew, and J. Sun.,  J. Phys. Chem. Lett. 11, 9248-9248 (2020), doi: 10.1021/acs.jpclett.0c03077
  Functional external parameters        .... 6
    Parameter  0 _c1        =  6.670000e-01 : c1 parameter        
    Parameter  1 _c2        =  8.000000e-01 : c2 parameter        
    Parameter  2 _d         =  1.240000e+00 : d parameter         
    Parameter  3 _k1        =  6.500000e-02 : k1 parameter        
    Parameter  4 _eta       =  1.000000e-03 : eta parameter       
    Parameter  5 _dp2       =  3.610000e-01 : dp2 parameter       
  Functional kind                       .... Correlation
  Functional name                       .... Re-regularized SCAN correlation by Furness et al
  Functional family                     .... MGGA
  Functional refs                              
    [ 0] J. W. Furness, A. D. Kaplan, J. Ning, J. P. Perdew, and J. Sun.,  J. Phys. Chem. Lett. 11, 8208-8215 (2020), doi: 10.1021/acs.jpclett.0c02405
    [ 1] J. W. Furness, A. D. Kaplan, J. Ning, J. P. Perdew, and J. Sun.,  J. Phys. Chem. Lett. 11, 9248-9248 (2020), doi: 10.1021/acs.jpclett.0c03077
  Functional external parameters        .... 1
    Parameter  0 _eta       =  1.000000e-03 : Regularization parameter
 Gradients option       PostSCFGGA      .... off
 RI-approximation to the Coulomb term is turned on
   Number of AuxJ basis functions       .... 519


General Settings:
 Integral files         IntName         .... sp_solv
 Hartree-Fock type      HFTyp           .... RHF
 Total Charge           Charge          ....    0
 Multiplicity           Mult            ....    1
 Number of Electrons    NEL             ....   58
 Basis Dimension        Dim             ....  213
 Nuclear Repulsion      ENuc            ....    331.7298855900 Eh

Convergence Acceleration:
 AO-DIIS                CNVDIIS         .... on
   Start iteration      DIISMaxIt       ....    12
   Startup error        DIISStart       ....  0.200000
   # of expansion vecs  DIISMaxEq       ....     5
   Bias factor          DIISBfac        ....   1.050
   Max. coefficient     DIISMaxC        ....  10.000
 MO-DIIS                CNVKDIIS        .... off
 Trust-Rad. Augm. Hess. CNVTRAH         .... auto
   Auto Start mean grad. ratio tolernc. ....  1.125000
   Auto Start start iteration           ....     1
   Auto Start num. interpolation iter.  ....    10
   Max. Number of Micro iterations      ....    24
   Max. Number of Macro iterations      .... Maxiter - #DIIS iter
   Number of Davidson start vectors     ....     2
   Converg. threshold    (grad. norm)   ....   3.330e-04
   Grad. Scal. Fac. for Micro threshold ....   0.100
   Minimum threshold for Micro iter.    ....   1.000e-02
   NR start threshold (gradient norm)   ....   1.000e-04
   Initial trust radius                 ....   0.400
   Minimum AH scaling param. (alpha)    ....   1.000
   Maximum AH scaling param. (alpha)    .... 1000.000
   Quad. conv. algorithm                .... NR
   White noise on init. David. guess    .... on
   Maximum white noise                  ....   0.010
   Pseudo random numbers                .... off
   Inactive MOs                         .... canonical
   Orbital update algorithm             .... Taylor
   Preconditioner                       .... Diag
   Full preconditioner red. dimension   ....   250
   COSX micro iterations for RIJONX calc.... off
 SOSCF                  CNVSOSCF        .... on
   Start iteration      SOSCFMaxIt      ....   150
   Startup grad/error   SOSCFStart      ....  0.003300
   Hessian update       SOSCFHessUp     .... L-BFGS
 Level Shifting         CNVShift        .... on
   Level shift para.    LevelShift      ....    0.2500
   Turn off err/grad.   ShiftErr        ....    0.0010
 Zerner damping         CNVZerner       .... off
 Static damping         CNVDamp         .... on
   Fraction old density DampFac         ....    0.7000
   Max. Damping (<1)    DampMax         ....    0.9800
   Min. Damping (>=0)   DampMin         ....    0.0000
   Turn off err/grad.   DampErr         ....    0.1000

SCF Procedure:
 Maximum # iterations   MaxIter         ....   125
 SCF integral mode      SCFMode         .... Direct
   Integral package                     .... SHARK and LIBINT hybrid scheme
 Reset frequency        DirectResetFreq ....    20
 Integral Threshold     Thresh          ....  1.000e-10 Eh
 Primitive CutOff       TCut            ....  1.000e-11 Eh

Convergence Tolerance:
 Convergence Check Mode ConvCheckMode   .... Total+1el-Energy
 Convergence forced     ConvForced      .... 0
 Energy Change          TolE            ....  1.000e-06 Eh
 1-El. energy change                    ....  1.000e-03 Eh
 Orbital Gradient       TolG            ....  3.330e-04
 Orbital Rotation angle TolX            ....  3.330e-04
 DIIS Error             TolErr          ....  1.000e-06

---------------------
INITIAL GUESS: MOREAD
---------------------
Guess MOs are being read from file: sp_solv.ges
Input Geometry matches current geometry (good)
Atom 0: N(Shells)= 9 and 6 - projection required
Input basis set needs projection
NBasis(read)= 130
NBasis(calc)= 213
Basis set overlap was calculated
Using GuessMode=FMatrix for the initial guess
C*T matrix was formed
Effective Fockian was calculated
Effective Fockian was diagonalized
Initial density was built
                      ------------------
                      INITIAL GUESS DONE (   0.1 sec)
                      ------------------
             **** ENERGY FILE WAS UPDATED (sp_solv.en.tmp) ****
Finished Guess after   0.4 sec
Maximum memory used throughout the entire GUESS-calculation: 14.7 MB

-------------------------------------------------------------------------------------------
                                      ORCA LEAN-SCF
                              memory conserving SCF solver
-------------------------------------------------------------------------------------------

--------------------
CPCM SOLVATION MODEL
--------------------
CPCM parameters:
  Epsilon                                         ...      78.3550
  Refrac                                          ...       1.3328
  Rsolv                                           ...       1.3000
  Surface type                                    ... GAUSSIAN VDW
  Discretization scheme                           ... Constant charge density
    Threshold for H atoms                         ...       5.0000 (charges/Ang^2)
    Threshold for non-H atoms                     ...       5.0000 (charges/Ang^2)
  Epsilon function type                           ...         CPCM
Solvent:                                          ... WATER
SMD-CDS solvent descriptors:
  Soln                                            ...       1.3328
  Soln25                                          ...       1.3323
  Sola                                            ...       0.0000
  Solb                                            ...       0.0000
  Solg                                            ...       0.0000
  Solc                                            ...       0.0000
  Solh                                            ...       0.0000
Radii:
  Scheme                                          ... Element-dependent radii
  Radius for C  used is    3.4960 Bohr (=   1.8500 Ang.)
  Radius for H  used is    2.2677 Bohr (=   1.2000 Ang.)
Calculating surface                               ...        done! (  0.0s)
Cavity surface points                             ...         1655
Cavity Volume                                     ...     917.4213
Cavity Surface-area                               ...     596.1548
Calculating surface distance matrix               ...        done! (  0.0s)
Performing Cholesky decomposition & store         ...        done! (  0.1s)
Overall time for CPCM initialization              ...                 0.2s

----------------------------------------D-I-I-S--------------------------------------------
Iteration    Energy (Eh)           Delta-E    RMSDP     MaxDP     DIISErr   Damp  Time(sec)
-------------------------------------------------------------------------------------------
               ***  Starting incremental Fock matrix formation  ***
    1    -276.1430597779133791     0.00e+00  3.62e-03  1.35e-01  2.84e-01  0.700   3.6
    2    -276.1875430821406212    -4.45e-02  2.92e-03  8.53e-02  2.00e-01  0.700   3.4
                               ***Turning on AO-DIIS***
    3    -276.2190727363437759    -3.15e-02  2.17e-03  6.27e-02  1.40e-01  0.700   3.3
    4    -276.2412265841845169    -2.22e-02  1.56e-03  4.46e-02  9.78e-02  0.700   3.3
    5    -276.2567762814555294    -1.55e-02  3.69e-03  1.05e-01  6.84e-02  0.000   3.5
                              *** Initializing SOSCF ***
---------------------------------------S-O-S-C-F--------------------------------------
Iteration    Energy (Eh)           Delta-E    RMSDP     MaxDP     MaxGrad    Time(sec)
--------------------------------------------------------------------------------------
    6    -276.2932109308497388    -3.64e-02  6.04e-05  1.83e-03  2.68e-04     3.4
               *** Restarting incremental Fock matrix formation ***
    7    -276.2932121488220787    -1.22e-06  2.55e-05  5.92e-04  4.07e-05     3.8
                  *** Gradient check signals convergence ***

               *****************************************************
               *                     SUCCESS                       *
               *           SCF CONVERGED AFTER   7 CYCLES          *
               *****************************************************


SMD CDS free energy correction energy :                 3.98464     Kcal/mol
Total Energy after SMD CDS correction =              -276.286862223 Eh
             **** ENERGY FILE WAS UPDATED (sp_solv.en.tmp) ****

----------------
TOTAL SCF ENERGY
----------------

Total Energy       :       -276.28686222256027 Eh           -7518.14774 eV

Components:
Nuclear Repulsion  :        331.72988558996855 Eh            9026.82910 eV
Electronic Energy  :       -608.02053757883630 Eh          -16545.07996 eV
One Electron Energy:      -1027.63171608520838 Eh          -27963.28062 eV
Two Electron Energy:        419.61117850637208 Eh           11418.20066 eV
CPCM Dielectric    :         -0.00256015995429 Eh              -0.06967 eV
SMD CDS (Gcds)     :          0.00634992626182 Eh               0.17279 eV

Virial components:
Potential Energy   :       -551.25666340535929 Eh          -15000.45642 eV
Kinetic Energy     :        274.96980118279902 Eh            7482.30868 eV
Virial Ratio       :          2.00478983886265

DFT components:
N(Alpha)           :       28.999988769247 electrons
N(Beta)            :       28.999988769247 electrons
N(Total)           :       57.999977538494 electrons
E(X)               :      -42.136076144609 Eh       
E(C)               :       -1.780501967500 Eh       
E(XC)              :      -43.916578112109 Eh       

CPCM Solvation Model Properties:
Surface-charge          :         -0.05285103799263
Corrected charge        :         -0.00000000000000
Outlying charge corr.   :          0.00021258612728 Eh               0.00578 eV
Free-energy (cav+disp)  :          0.00634992626182 Eh               0.17279 eV

---------------
SCF CONVERGENCE
---------------

  Last Energy change         ...    1.2180e-06  Tolerance :   1.0000e-06
  Last MAX-Density change    ...    5.9189e-04  Tolerance :   1.0000e-05
  Last RMS-Density change    ...    2.5516e-05  Tolerance :   1.0000e-06
  Last DIIS Error            ...    2.6844e-04  Tolerance :   1.0000e-06
  Last Orbital Gradient      ...    4.0728e-05  Tolerance :   3.3300e-04
  Last Orbital Rotation      ...    7.4709e-05  Tolerance :   3.3300e-04


----------------
ORBITAL ENERGIES
----------------

  NO   OCC          E(Eh)            E(eV) 
   0   2.0000     -10.022713      -272.7319 
   1   2.0000     -10.021938      -272.7108 
   2   2.0000     -10.008301      -272.3397 
   3   2.0000     -10.004899      -272.2471 
   4   2.0000     -10.004619      -272.2395 
   5   2.0000     -10.004485      -272.2359 
   6   2.0000     -10.004233      -272.2290 
   7   2.0000      -0.777801       -21.1650 
   8   2.0000      -0.735820       -20.0227 
   9   2.0000      -0.643629       -17.5140 
  10   2.0000      -0.636668       -17.3246 
  11   2.0000      -0.632679       -17.2161 
  12   2.0000      -0.527620       -14.3573 
  13   2.0000      -0.513497       -13.9730 
  14   2.0000      -0.425157       -11.5691 
  15   2.0000      -0.418754       -11.3949 
  16   2.0000      -0.400157       -10.8888 
  17   2.0000      -0.385692       -10.4952 
  18   2.0000      -0.368153       -10.0179 
  19   2.0000      -0.354918        -9.6578 
  20   2.0000      -0.344892        -9.3850 
  21   2.0000      -0.340851        -9.2750 
  22   2.0000      -0.326059        -8.8725 
  23   2.0000      -0.315987        -8.5984 
  24   2.0000      -0.295308        -8.0357 
  25   2.0000      -0.289395        -7.8748 
  26   2.0000      -0.276300        -7.5185 
  27   2.0000      -0.272585        -7.4174 
  28   2.0000      -0.262316        -7.1380 
  29   0.0000       0.090778         2.4702 
  30   0.0000       0.106342         2.8937 
  31   0.0000       0.120964         3.2916 
  32   0.0000       0.125714         3.4209 
  33   0.0000       0.137770         3.7489 
  34   0.0000       0.140659         3.8275 
  35   0.0000       0.147497         4.0136 
  36   0.0000       0.150114         4.0848 
  37   0.0000       0.155057         4.2193 
  38   0.0000       0.165985         4.5167 
  39   0.0000       0.170716         4.6454 
*Only the first 10 virtual orbitals were printed.

                    ********************************
                    * MULLIKEN POPULATION ANALYSIS *
                    ********************************

-----------------------
MULLIKEN ATOMIC CHARGES
-----------------------
   0 C :   -0.556842
   1 C :   -0.016497
   2 C :   -0.532101
   3 C :   -0.345630
   4 C :    0.017661
   5 C :   -0.541425
   6 C :   -0.555689
   7 H :    0.154307
   8 H :    0.163356
   9 H :    0.166444
  10 H :    0.155752
  11 H :    0.157315
  12 H :    0.156933
  13 H :    0.154846
  14 H :    0.161667
  15 H :    0.155907
  16 H :    0.157719
  17 H :    0.156787
  18 H :    0.159344
  19 H :    0.153820
  20 H :    0.159549
  21 H :    0.155163
  22 H :    0.161614
Sum of atomic charges:    0.0000000

--------------------------------
MULLIKEN REDUCED ORBITAL CHARGES
--------------------------------
  0 C s       :     3.358327  s :     3.358327
      pz      :     0.968626  p :     3.171358
      px      :     1.101232
      py      :     1.101500
      dz2     :     0.006076  d :     0.027157
      dxz     :     0.005247
      dyz     :     0.007135
      dx2y2   :     0.002957
      dxy     :     0.005740

  1 C s       :     3.098368  s :     3.098368
      pz      :     0.918009  p :     2.871439
      px      :     0.931488
      py      :     1.021941
      dz2     :     0.009791  d :     0.046690
      dxz     :     0.009720
      dyz     :     0.009014
      dx2y2   :     0.008576
      dxy     :     0.009588

  2 C s       :     3.350730  s :     3.350730
      pz      :     1.067780  p :     3.154261
      px      :     1.028588
      py      :     1.057893
      dz2     :     0.007245  d :     0.027109
      dxz     :     0.004018
      dyz     :     0.004084
      dx2y2   :     0.005207
      dxy     :     0.006555

  3 C s       :     3.255290  s :     3.255290
      pz      :     1.093798  p :     3.054518
      px      :     0.957694
      py      :     1.003027
      dz2     :     0.007665  d :     0.035821
      dxz     :     0.005719
      dyz     :     0.005651
      dx2y2   :     0.008703
      dxy     :     0.008083

  4 C s       :     3.069470  s :     3.069470
      pz      :     0.886130  p :     2.867183
      px      :     0.928560
      py      :     1.052494
      dz2     :     0.010751  d :     0.045685
      dxz     :     0.011600
      dyz     :     0.006038
      dx2y2   :     0.010361
      dxy     :     0.006936

  5 C s       :     3.361571  s :     3.361571
      pz      :     1.053168  p :     3.152459
      px      :     1.009390
      py      :     1.089902
      dz2     :     0.006700  d :     0.027394
      dxz     :     0.005981
      dyz     :     0.003501
      dx2y2   :     0.006289
      dxy     :     0.004922

  6 C s       :     3.367165  s :     3.367165
      pz      :     0.990462  p :     3.161169
      px      :     1.101927
      py      :     1.068779
      dz2     :     0.006261  d :     0.027355
      dxz     :     0.008337
      dyz     :     0.003830
      dx2y2   :     0.005219
      dxy     :     0.003708

  7 H s       :     0.827403  s :     0.827403
      pz      :     0.003596  p :     0.018290
      px      :     0.009155
      py      :     0.005539

  8 H s       :     0.818192  s :     0.818192
      pz      :     0.005556  p :     0.018452
      px      :     0.007093
      py      :     0.005803

  9 H s       :     0.815368  s :     0.815368
      pz      :     0.005399  p :     0.018188
      px      :     0.003831
      py      :     0.008959

 10 H s       :     0.826761  s :     0.826761
      pz      :     0.004833  p :     0.017487
      px      :     0.003473
      py      :     0.009181

 11 H s       :     0.824381  s :     0.824381
      pz      :     0.003646  p :     0.018304
      px      :     0.008957
      py      :     0.005701

 12 H s       :     0.824820  s :     0.824820
      pz      :     0.004900  p :     0.018247
      px      :     0.003940
      py      :     0.009407

 13 H s       :     0.826846  s :     0.826846
      pz      :     0.010223  p :     0.018308
      px      :     0.004144
      py      :     0.003940

 14 H s       :     0.820371  s :     0.820371
      pz      :     0.005257  p :     0.017962
      px      :     0.003602
      py      :     0.009103

 15 H s       :     0.826021  s :     0.826021
      pz      :     0.010299  p :     0.018073
      px      :     0.003719
      py      :     0.004054

 16 H s       :     0.824695  s :     0.824695
      pz      :     0.003386  p :     0.017586
      px      :     0.003577
      py      :     0.010623

 17 H s       :     0.824946  s :     0.824946
      pz      :     0.009740  p :     0.018267
      px      :     0.003740
      py      :     0.004788

 18 H s       :     0.822465  s :     0.822465
      pz      :     0.003728  p :     0.018191
      px      :     0.003970
      py      :     0.010493

 19 H s       :     0.827924  s :     0.827924
      pz      :     0.004684  p :     0.018257
      px      :     0.008404
      py      :     0.005169

 20 H s       :     0.821955  s :     0.821955
      pz      :     0.006393  p :     0.018496
      px      :     0.008319
      py      :     0.003784

 21 H s       :     0.826593  s :     0.826593
      pz      :     0.004773  p :     0.018244
      px      :     0.007968
      py      :     0.005503

 22 H s       :     0.820180  s :     0.820180
      pz      :     0.003531  p :     0.018206
      px      :     0.004193
      py      :     0.010482


------------------------
MULLIKEN OVERLAP CHARGES
------------------------
B(  0-C ,  1-C ) :   0.4011 B(  0-C ,  2-C ) :  -0.2289 B(  0-C ,  3-C ) :  -0.1940 
B(  0-C ,  7-H ) :   0.7942 B(  0-C ,  8-H ) :   0.7999 B(  0-C ,  9-H ) :   0.8709 
B(  0-C , 10-H ) :  -0.0659 B(  1-C ,  2-C ) :   0.5329 B(  1-C ,  3-C ) :   0.1987 
B(  1-C ,  4-C ) :   0.0533 B(  1-C ,  7-H ) :  -0.0819 B(  1-C ,  8-H ) :  -0.0590 
B(  1-C ,  9-H ) :  -0.1080 B(  1-C , 10-H ) :   0.8999 B(  1-C , 11-H ) :  -0.0909 
B(  1-C , 12-H ) :  -0.0931 B(  1-C , 13-H ) :  -0.0840 B(  1-C , 15-H ) :  -0.0893 
B(  1-C , 16-H ) :   0.0528 B(  2-C ,  3-C ) :  -0.2384 B(  2-C , 10-H ) :  -0.0576 
B(  2-C , 11-H ) :   0.8158 B(  2-C , 12-H ) :   0.8631 B(  2-C , 13-H ) :   0.8118 
B(  3-C ,  4-C ) :   0.1565 B(  3-C ,  5-C ) :  -0.1071 B(  3-C ,  6-C ) :  -0.1410 
B(  3-C , 10-H ) :  -0.1125 B(  3-C , 14-H ) :   0.8384 B(  3-C , 15-H ) :   0.8600 
B(  3-C , 16-H ) :  -0.1816 B(  4-C ,  5-C ) :   0.4956 B(  4-C ,  6-C ) :   0.4507 
B(  4-C , 14-H ) :  -0.1294 B(  4-C , 15-H ) :  -0.1123 B(  4-C , 16-H ) :   0.8863 
B(  4-C , 17-H ) :  -0.0730 B(  4-C , 18-H ) :  -0.0927 B(  4-C , 19-H ) :  -0.1037 
B(  4-C , 20-H ) :  -0.0666 B(  4-C , 21-H ) :  -0.1008 B(  4-C , 22-H ) :  -0.0976 
B(  5-C ,  6-C ) :  -0.2342 B(  5-C , 16-H ) :  -0.0719 B(  5-C , 17-H ) :   0.8154 
B(  5-C , 18-H ) :   0.8586 B(  5-C , 19-H ) :   0.8290 B(  6-C , 20-H ) :   0.7939 
B(  6-C , 21-H ) :   0.8263 B(  6-C , 22-H ) :   0.8791 


                     *******************************
                     * LOEWDIN POPULATION ANALYSIS *
                     *******************************

----------------------
LOEWDIN ATOMIC CHARGES
----------------------
   0 C :   -0.426937
   1 C :   -0.241675
   2 C :   -0.428387
   3 C :   -0.298972
   4 C :   -0.245630
   5 C :   -0.426867
   6 C :   -0.427006
   7 H :    0.154492
   8 H :    0.156046
   9 H :    0.155699
  10 H :    0.155661
  11 H :    0.154262
  12 H :    0.155633
  13 H :    0.154464
  14 H :    0.163033
  15 H :    0.162151
  16 H :    0.157803
  17 H :    0.154015
  18 H :    0.155526
  19 H :    0.153360
  20 H :    0.155322
  21 H :    0.153455
  22 H :    0.154551

-------------------------------
LOEWDIN REDUCED ORBITAL CHARGES
-------------------------------
  0 C s       :     2.970438  s :     2.970438
      pz      :     1.092386  p :     3.393014
      px      :     1.145471
      py      :     1.155157
      dz2     :     0.014051  d :     0.063484
      dxz     :     0.011607
      dyz     :     0.016194
      dx2y2   :     0.007386
      dxy     :     0.014247

  1 C s       :     2.909200  s :     2.909200
      pz      :     1.072463  p :     3.236457
      px      :     1.057349
      py      :     1.106646
      dz2     :     0.020315  d :     0.096018
      dxz     :     0.019337
      dyz     :     0.018563
      dx2y2   :     0.017281
      dxy     :     0.020522

  2 C s       :     2.973223  s :     2.973223
      pz      :     1.135161  p :     3.391765
      px      :     1.115013
      py      :     1.141590
      dz2     :     0.016994  d :     0.063399
      dxz     :     0.009279
      dyz     :     0.009721
      dx2y2   :     0.011743
      dxy     :     0.015662

  3 C s       :     2.933987  s :     2.933987
      pz      :     1.127423  p :     3.287338
      px      :     1.050227
      py      :     1.109689
      dz2     :     0.017769  d :     0.077647
      dxz     :     0.011271
      dyz     :     0.012990
      dx2y2   :     0.017720
      dxy     :     0.017898

  4 C s       :     2.907868  s :     2.907868
      pz      :     1.066176  p :     3.244445
      px      :     1.060744
      py      :     1.117524
      dz2     :     0.021767  d :     0.093317
      dxz     :     0.023885
      dyz     :     0.011588
      dx2y2   :     0.022394
      dxy     :     0.013682

  5 C s       :     2.974735  s :     2.974735
      pz      :     1.128780  p :     3.388251
      px      :     1.103778
      py      :     1.155693
      dz2     :     0.015348  d :     0.063881
      dxz     :     0.014174
      dyz     :     0.008179
      dx2y2   :     0.015101
      dxy     :     0.011079

  6 C s       :     2.972965  s :     2.972965
      pz      :     1.088708  p :     3.390203
      px      :     1.151438
      py      :     1.150057
      dz2     :     0.014315  d :     0.063838
      dxz     :     0.019230
      dyz     :     0.008275
      dx2y2   :     0.012862
      dxy     :     0.009157

  7 H s       :     0.801599  s :     0.801599
      pz      :     0.008282  p :     0.043909
      px      :     0.022531
      py      :     0.013096

  8 H s       :     0.799379  s :     0.799379
      pz      :     0.013397  p :     0.044575
      px      :     0.017253
      py      :     0.013924

  9 H s       :     0.800480  s :     0.800480
      pz      :     0.012907  p :     0.043821
      px      :     0.008559
      py      :     0.022355

 10 H s       :     0.801442  s :     0.801442
      pz      :     0.011861  p :     0.042897
      px      :     0.008501
      py      :     0.022535

 11 H s       :     0.801774  s :     0.801774
      pz      :     0.008130  p :     0.043964
      px      :     0.022068
      py      :     0.013767

 12 H s       :     0.800413  s :     0.800413
      pz      :     0.011613  p :     0.043954
      px      :     0.008993
      py      :     0.023347

 13 H s       :     0.801689  s :     0.801689
      pz      :     0.025418  p :     0.043846
      px      :     0.009655
      py      :     0.008773

 14 H s       :     0.792814  s :     0.792814
      pz      :     0.012565  p :     0.044154
      px      :     0.008755
      py      :     0.022834

 15 H s       :     0.793800  s :     0.793800
      pz      :     0.025797  p :     0.044049
      px      :     0.008702
      py      :     0.009549

 16 H s       :     0.798777  s :     0.798777
      pz      :     0.008446  p :     0.043420
      px      :     0.008630
      py      :     0.026344

 17 H s       :     0.802229  s :     0.802229
      pz      :     0.024102  p :     0.043756
      px      :     0.008621
      py      :     0.011033

 18 H s       :     0.800647  s :     0.800647
      pz      :     0.008376  p :     0.043826
      px      :     0.009073
      py      :     0.026377

 19 H s       :     0.802818  s :     0.802818
      pz      :     0.011032  p :     0.043823
      px      :     0.020640
      py      :     0.012151

 20 H s       :     0.800184  s :     0.800184
      pz      :     0.015674  p :     0.044494
      px      :     0.020407
      py      :     0.008413

 21 H s       :     0.802729  s :     0.802729
      pz      :     0.011305  p :     0.043816
      px      :     0.019434
      py      :     0.013077

 22 H s       :     0.801680  s :     0.801680
      pz      :     0.008073  p :     0.043768
      px      :     0.009481
      py      :     0.026215


---------------------------------
LOEWDIN BOND ORDERS (THRESH 0.050000)
---------------------------------
B(  0-C ,  1-C ) :   1.1094 B(  0-C ,  2-C ) :   0.0720 B(  0-C ,  3-C ) :   0.0623 
B(  0-C ,  7-H ) :   0.9225 B(  0-C ,  8-H ) :   0.9194 B(  0-C ,  9-H ) :   0.9227 
B(  1-C ,  2-C ) :   1.1106 B(  1-C ,  3-C ) :   1.0725 B(  1-C ,  4-C ) :   0.0712 
B(  1-C , 10-H ) :   0.8616 B(  2-C ,  3-C ) :   0.0775 B(  2-C , 11-H ) :   0.9239 
B(  2-C , 12-H ) :   0.9224 B(  2-C , 13-H ) :   0.9249 B(  3-C ,  4-C ) :   1.0532 
B(  3-C ,  5-C ) :   0.0771 B(  3-C ,  6-C ) :   0.0713 B(  3-C , 14-H ) :   0.8804 
B(  3-C , 15-H ) :   0.8768 B(  4-C ,  5-C ) :   1.1144 B(  4-C ,  6-C ) :   1.1121 
B(  4-C , 16-H ) :   0.8596 B(  5-C ,  6-C ) :   0.0729 B(  5-C , 17-H ) :   0.9256 
B(  5-C , 18-H ) :   0.9218 B(  5-C , 19-H ) :   0.9236 B(  6-C , 20-H ) :   0.9211 
B(  6-C , 21-H ) :   0.9245 B(  6-C , 22-H ) :   0.9227 

------------------------------------------
LOEWDIN REDUCED ORBITAL POPULATIONS PER MO
-------------------------------------------
THRESHOLD FOR PRINTING IS 0.1%%
                      0         1         2         3         4         5   
                 -10.02271 -10.02194 -10.00830 -10.00490 -10.00462 -10.00448
                   2.00000   2.00000   2.00000   2.00000   2.00000   2.00000
                  --------  --------  --------  --------  --------  --------
 0 C  s               0.0       0.0       0.0       0.0       0.0      99.7
 1 C  s              99.6       0.0       0.0       0.0       0.0       0.0
 2 C  s               0.0       0.0       0.0       0.0      99.7       0.0
 3 C  s               0.0       0.0      99.7       0.0       0.0       0.0
 4 C  s               0.0      99.6       0.0       0.0       0.0       0.0
 5 C  s               0.0       0.0       0.0      99.7       0.0       0.0

                      6         7         8         9        10        11   
                 -10.00423  -0.77780  -0.73582  -0.64363  -0.63667  -0.63268
                   2.00000   2.00000   2.00000   2.00000   2.00000   2.00000
                  --------  --------  --------  --------  --------  --------
 0 C  s               0.0       5.9       7.8      15.9      11.6       1.5
 0 C  pz              0.0       1.6       1.4       0.6       0.3       0.0
 0 C  px              0.0       0.4       0.0       0.0       0.0       0.6
 0 C  py              0.0       0.1       0.1       0.1       0.1       0.0
 1 C  s               0.0      16.3      12.6       0.0       0.0       0.1
 1 C  pz              0.0       0.1       0.0       7.3       5.1       0.0
 1 C  px              0.0       0.3       2.0       0.0       0.1      11.2
 1 C  py              0.0       0.6       0.1       1.9       1.4       0.3
 1 C  dz2             0.0       0.0       0.0       0.1       0.1       0.1
 1 C  dxy             0.0       0.0       0.0       0.0       0.0       0.2
 2 C  s               0.0       5.6       9.2       7.7       8.4      11.8
 2 C  pz              0.0       0.6       0.5       0.4       0.4       0.0
 2 C  px              0.0       1.2       0.5       0.0       0.0       1.0
 2 C  py              0.0       0.3       0.4       0.1       0.1       0.0
 3 C  s               0.0      16.5       0.0       1.7       0.1      19.5
 3 C  pz              0.0       0.3       0.3       1.6       0.0       0.0
 3 C  px              0.0       0.0       7.5       0.0       0.1       0.0
 3 C  py              0.0       1.3       0.0       0.1       0.2       0.1
 3 C  dxy             0.0       0.0       0.1       0.0       0.0       0.0
 4 C  s               0.0      15.5      13.2       0.0       0.0       0.1
 4 C  pz              0.1       0.1       0.1       7.5       6.8       0.7
 4 C  px              0.0       0.4       2.1       0.2       1.0       9.7
 4 C  py              0.0       0.6       0.2       0.0       0.3       0.4
 4 C  dxz             0.0       0.0       0.0       0.0       0.1       0.1
 5 C  s               0.0       5.3       9.6       7.0      12.8       8.2
 5 C  pz              0.0       0.6       0.8       0.4       0.5       0.0
 5 C  px              0.0       1.4       0.7       0.0       0.1       0.8
 6 C  s              99.7       5.4       8.8      12.2      13.2       3.0
 6 C  pz              0.0       1.7       1.4       0.5       0.5       0.1
 6 C  px              0.0       0.2       0.0       0.0       0.0       0.6
 6 C  py              0.0       0.1       0.1       0.0       0.0       0.0
 7 H  s               0.0       0.7       1.2       3.6       2.8       0.6
 7 H  px              0.0       0.0       0.1       0.2       0.2       0.0
 8 H  s               0.0       0.7       1.0       4.2       2.9       0.3
 8 H  px              0.0       0.0       0.0       0.2       0.1       0.0
 8 H  py              0.0       0.0       0.0       0.1       0.1       0.0
 9 H  s               0.0       0.7       1.1       3.6       2.6       0.4
 9 H  py              0.0       0.0       0.1       0.2       0.2       0.0
10 H  s               0.0       1.9       1.7       0.0       0.0       0.0
10 H  py              0.0       0.1       0.1       0.0       0.0       0.0
11 H  s               0.0       0.7       1.4       1.6       1.9       3.5
11 H  px              0.0       0.0       0.1       0.1       0.1       0.2
12 H  s               0.0       0.7       1.3       1.7       2.0       2.8
12 H  py              0.0       0.0       0.1       0.1       0.1       0.2
13 H  s               0.0       0.7       1.3       2.1       2.3       2.6
13 H  pz              0.0       0.1       0.1       0.2       0.2       0.2
14 H  s               0.0       2.0       0.0       0.2       0.1       4.4
14 H  pz              0.0       0.0       0.0       0.0       0.0       0.1
14 H  py              0.0       0.1       0.0       0.0       0.0       0.3
15 H  s               0.0       2.1       0.0       0.9       0.0       4.3
15 H  pz              0.0       0.2       0.0       0.1       0.0       0.4
16 H  s               0.0       1.9       1.7       0.0       0.0       0.0
16 H  py              0.0       0.2       0.2       0.0       0.0       0.0
17 H  s               0.0       0.6       1.3       1.9       3.4       1.7
17 H  pz              0.0       0.0       0.1       0.1       0.2       0.1
18 H  s               0.0       0.7       1.4       1.6       2.9       1.9
18 H  py              0.0       0.1       0.1       0.1       0.2       0.2
19 H  s               0.0       0.6       1.4       1.4       2.9       2.5
19 H  px              0.0       0.0       0.1       0.1       0.2       0.1
20 H  s               0.0       0.7       1.2       3.3       3.3       0.6
20 H  pz              0.0       0.0       0.0       0.1       0.1       0.0
20 H  px              0.0       0.0       0.1       0.2       0.2       0.0
21 H  s               0.0       0.6       1.3       2.8       3.1       1.0
21 H  px              0.0       0.0       0.1       0.1       0.2       0.0
22 H  s               0.0       0.7       1.3       2.7       3.1       0.7
22 H  py              0.0       0.1       0.1       0.2       0.2       0.1

                     12        13        14        15        16        17   
                  -0.52762  -0.51350  -0.42516  -0.41875  -0.40016  -0.38569
                   2.00000   2.00000   2.00000   2.00000   2.00000   2.00000
                  --------  --------  --------  --------  --------  --------
 0 C  s               2.0       1.8       0.2       0.3       0.2       0.1
 0 C  pz              3.5       4.3       0.2       7.1       0.4       3.4
 0 C  px              0.7       0.6       1.9       1.8       7.6       7.8
 0 C  py              0.0       0.5      10.5       1.3       0.1       2.5
 1 C  s               8.7       5.9       0.2       0.8       0.0       0.0
 1 C  pz              0.8       0.8       4.8       1.5       2.4       0.5
 1 C  px              1.0       0.1       0.2       6.2       0.6       4.6
 1 C  py              0.5       7.2      13.1       0.0       2.1       0.3
 2 C  s               3.7       0.5       0.0       0.1       0.2       0.1
 2 C  pz              0.7       0.1       4.4       6.8       0.3      11.9
 2 C  px              4.3       0.6       0.7       0.3       4.8       1.7
 2 C  py              1.5       2.7       5.3       1.7       0.0       1.0
 3 C  s               0.0       4.8       0.1       0.2       0.1       0.0
 3 C  pz              0.9       0.2       6.0       5.3      12.2       1.0
 3 C  px              6.8       0.0       8.7       0.8       0.6       1.6
 3 C  py              0.0      11.7       0.1       2.1       1.4       0.0
 3 C  dxy             0.3       0.0       0.0       0.0       0.0       0.1
 4 C  s               9.7       5.2       0.0       0.8       0.1       0.0
 4 C  pz              0.1       0.2       2.8       0.3       0.1       3.7
 4 C  px              1.5       0.0       0.1       1.2      10.1       1.1
 4 C  py              1.0       8.4       4.6      11.3       1.0       1.6
 5 C  s               3.2       0.8       0.1       0.1       0.4       0.0
 5 C  pz              1.2       1.2       0.5       4.0       8.1      10.2
 5 C  px              4.6       1.1       3.1       0.3       1.0       5.2
 5 C  py              0.3       1.6       3.1       5.7       1.1       3.1
 5 C  dxz             0.1       0.0       0.0       0.1       0.0       0.0
 6 C  s               3.4       0.7       0.1       0.3       0.0       0.3
 6 C  pz              4.1       1.3       0.0      10.4       0.4       7.0
 6 C  px              1.1       0.0       0.1       0.1      16.1       0.5
 6 C  py              1.1       2.5       3.2       3.5       1.9       0.0
 7 H  s               1.3       0.9       3.6       0.0       2.3       0.8
 7 H  px              0.0       0.0       0.1       0.0       0.0       0.0
 8 H  s               1.1       0.6       0.7       4.2       0.8       5.8
 9 H  s               1.4       2.4       1.2       0.1       0.8       0.1
 9 H  py              0.1       0.1       0.0       0.0       0.0       0.0
10 H  s               4.1       6.5       4.0       0.0       0.2       0.5
10 H  py              0.3       0.3       0.1       0.0       0.0       0.0
11 H  s               2.4       0.1       1.6       0.1       1.9       0.8
12 H  s               2.4       1.2       2.3       0.0       0.2       0.1
12 H  py              0.1       0.0       0.1       0.0       0.0       0.0
13 H  s               1.6       0.4       0.8       3.5       0.0       6.4
13 H  pz              0.1       0.0       0.0       0.1       0.0       0.1
14 H  s               0.0       6.0       0.9       1.0       0.0       0.1
14 H  pz              0.0       0.1       0.0       0.0       0.1       0.0
14 H  py              0.0       0.2       0.1       0.0       0.0       0.0
15 H  s               0.0       3.5       3.2       2.0       4.8       0.7
15 H  pz              0.0       0.2       0.1       0.0       0.1       0.0
16 H  s               4.4       6.5       1.4       2.3       0.1       0.5
16 H  px              0.0       0.0       0.0       0.0       0.1       0.0
16 H  py              0.3       0.4       0.1       0.0       0.0       0.0
17 H  s               1.5       0.5       0.0       3.1       2.3       6.4
17 H  pz              0.1       0.0       0.0       0.1       0.0       0.1
18 H  s               2.2       1.4       0.3       1.0       1.8       1.4
18 H  py              0.1       0.1       0.0       0.0       0.1       0.0
19 H  s               2.1       0.2       2.5       0.4       0.1       2.0
19 H  py              0.0       0.0       0.0       0.0       0.0       0.1
20 H  s               1.4       0.6       0.0       3.2       4.6       2.4
20 H  pz              0.0       0.0       0.0       0.0       0.1       0.0
20 H  px              0.1       0.0       0.0       0.1       0.0       0.1
21 H  s               2.2       0.2       0.0       2.2       4.7       0.4
21 H  pz              0.0       0.0       0.0       0.0       0.1       0.0
21 H  px              0.1       0.0       0.0       0.1       0.0       0.0
22 H  s               2.3       1.3       1.5       0.7       0.0       0.0
22 H  py              0.1       0.1       0.0       0.0       0.0       0.0

                     18        19        20        21        22        23   
                  -0.36815  -0.35492  -0.34489  -0.34085  -0.32606  -0.31599
                   2.00000   2.00000   2.00000   2.00000   2.00000   2.00000
                  --------  --------  --------  --------  --------  --------
 0 C  pz              1.1       2.7       0.1       1.9       0.8       2.0
 0 C  px              2.1       7.1       0.0       2.5       8.5      11.6
 0 C  py              6.7       4.9       0.2      20.2       0.9       0.0
 0 C  dxz             0.0       0.0       0.0       0.0       0.0       0.1
 0 C  dx2y2           0.1       0.0       0.0       0.1       0.0       0.0
 0 C  dxy             0.0       0.0       0.0       0.1       0.0       0.2
 1 C  s               0.3       0.0       0.0       0.0       0.1       0.0
 1 C  pz              0.0       7.6       0.0       0.1       0.8       1.0
 1 C  px              0.8       2.2       0.1       0.5       4.1       2.3
 1 C  py              1.6       1.4       0.0       0.0       0.1       0.0
 1 C  dz2             0.0       0.0       0.0       0.0       0.1       0.0
 1 C  dyz             0.0       0.0       0.0       0.1       0.0       0.0
 2 C  pz              0.0       3.0       1.9       2.2       2.1       8.8
 2 C  px              4.4      13.9       0.0       7.8       3.4       0.1
 2 C  py              7.0       5.3       0.5      17.2       1.7       0.7
 2 C  dz2             0.0       0.1       0.0       0.0       0.1       0.1
 2 C  dyz             0.0       0.1       0.0       0.0       0.1       0.0
 2 C  dx2y2           0.0       0.0       0.0       0.1       0.0       0.0
 2 C  dxy             0.1       0.0       0.0       0.2       0.0       0.0
 3 C  s               1.5       0.4       0.0       0.2       0.4       0.3
 3 C  pz              1.0       0.0       1.4       0.0       2.0       8.5
 3 C  px              0.0       0.0       0.1       0.0       0.1       0.3
 3 C  py              8.6       0.3       0.1       0.7      11.6       1.8
 3 C  dx2y2           0.2       0.0       0.0       0.0       0.0       0.0
 4 C  s               0.2       0.3       0.0       0.1       0.0       0.0
 4 C  pz              3.8       2.3       1.5       0.5       0.0       0.3
 4 C  px              0.2       0.1       0.2       0.0       4.1       5.3
 4 C  py              0.8       0.1       0.0       0.0       0.2       0.1
 4 C  dxz             0.0       0.0       0.0       0.0       0.1       0.1
 4 C  dyz             0.0       0.0       0.2       0.0       0.0       0.0
 5 C  pz              0.9       0.4       0.1       0.4       5.2       6.7
 5 C  px             10.6       0.1       0.1       0.0      13.4       0.6
 5 C  py              5.0       0.1      27.8       0.4       0.3       0.9
 5 C  dz2             0.0       0.0       0.1       0.0       0.2       0.0
 5 C  dx2y2           0.0       0.0       0.2       0.0       0.0       0.1
 6 C  pz              0.0       0.6       1.0       0.5       0.1       0.2
 6 C  px              0.7      16.6       0.4       3.8       1.0      10.2
 6 C  py              6.1       0.1      24.7       0.8       4.2       0.2
 6 C  dxz             0.0       0.1       0.0       0.0       0.0       0.3
 6 C  dx2y2           0.0       0.0       0.2       0.0       0.0       0.0
 7 H  s               3.1       0.7       0.0       6.5       2.1       5.5
 7 H  px              0.1       0.0       0.0       0.2       0.0       0.0
 8 H  s               0.0       2.0       0.0       0.3       2.5       6.1
 8 H  pz              0.0       0.1       0.0       0.0       0.1       0.0
 8 H  py              0.1       0.0       0.0       0.1       0.0       0.1
 9 H  s               3.2       4.6       0.2       9.4       1.3       0.0
10 H  s               0.1       0.0       0.0       0.0       0.3       0.1
11 H  s               4.9       2.0       0.0      10.7       0.3       0.4
11 H  px              0.1       0.0       0.0       0.2       0.0       0.0
11 H  py              0.0       0.2       0.0       0.0       0.0       0.0
12 H  s               1.8       6.2       0.7       7.1       2.2       0.3
12 H  px              0.1       0.0       0.0       0.1       0.0       0.0
12 H  py              0.0       0.1       0.0       0.1       0.0       0.0
13 H  s               0.5       2.5       0.7       0.0       1.6       5.1
13 H  py              0.0       0.1       0.0       0.1       0.0       0.0
14 H  s               7.4       0.0       0.8       0.1       4.7       0.3
14 H  py              0.1       0.0       0.0       0.0       0.0       0.1
15 H  s               0.2       0.1       0.8       0.0       0.5       4.1
15 H  py              0.1       0.0       0.0       0.0       0.1       0.0
16 H  s               0.2       0.0       0.0       0.1       0.3       0.3
17 H  s               0.1       0.1       1.8       0.4       5.1       1.7
17 H  pz              0.0       0.0       0.1       0.0       0.1       0.0
17 H  py              0.0       0.0       0.1       0.0       0.0       0.0
18 H  s               0.9       0.2      13.4       0.1       0.6       1.0
18 H  px              0.1       0.0       0.0       0.0       0.1       0.0
18 H  py              0.0       0.0       0.2       0.0       0.0       0.0
19 H  s               7.9       0.0       2.5       0.0       7.0       0.6
19 H  px              0.1       0.0       0.1       0.0       0.0       0.1
19 H  py              0.0       0.0       0.1       0.0       0.1       0.0
20 H  s               0.2       3.6       1.2       0.5       0.3       5.3
20 H  pz              0.0       0.1       0.0       0.0       0.0       0.0
20 H  py              0.0       0.0       0.2       0.0       0.0       0.0
21 H  s               0.3       5.1       2.8       2.5       1.6       4.3
21 H  px              0.0       0.0       0.2       0.0       0.0       0.0
21 H  py              0.0       0.1       0.0       0.0       0.0       0.0
22 H  s               3.4       0.9      12.2       0.1       1.5       0.1
22 H  py              0.1       0.0       0.2       0.0       0.0       0.0

                     24        25        26        27        28        29   
                  -0.29531  -0.28939  -0.27630  -0.27258  -0.26232   0.09078
                   2.00000   2.00000   2.00000   2.00000   2.00000   0.00000
                  --------  --------  --------  --------  --------  --------
 0 C  s               0.3       0.1       0.4       0.4       0.0       9.6
 0 C  pz             10.0       2.8       2.8       7.4       0.1       1.2
 0 C  px              0.0       0.1       0.6       0.8       2.5       0.2
 0 C  py              2.9       2.5       1.0       2.9       0.2       0.6
 0 C  dz2             0.1       0.0       0.0       0.1       0.1       0.3
 0 C  dxz             0.1       0.0       0.0       0.0       0.1       0.1
 0 C  dyz             0.0       0.2       0.2       0.0       0.0       0.0
 0 C  dxy             0.0       0.0       0.0       0.0       0.1       0.0
 1 C  s               0.0       0.1       0.4       0.1       0.1       3.7
 1 C  pz              7.3       2.9       3.8       6.0       0.7       0.6
 1 C  px              0.1       0.9       0.1       0.9      14.7       0.4
 1 C  py              4.5       8.0       8.7       3.2       0.3       1.4
 1 C  dz2             0.2       0.0       0.0       0.2       0.0       0.0
 1 C  dxz             0.1       0.0       0.0       0.2       0.1       0.0
 1 C  dyz             0.0       0.2       0.3       0.0       0.0       0.0
 1 C  dx2y2           0.0       0.1       0.4       0.0       0.0       0.0
 1 C  dxy             0.0       0.1       0.1       0.0       0.4       0.1
 2 C  s               0.1       0.1       0.1       0.3       0.6       2.7
 2 C  pz              7.5       1.0       0.2       2.1       1.8       1.2
 2 C  px              0.1       1.0       0.2       0.7       9.0       0.7
 2 C  py              4.4       4.3       1.8       0.9       0.2       0.7
 2 C  dz2             0.3       0.1       0.0       0.1       0.0       0.1
 2 C  dxz             0.1       0.0       0.0       0.0       0.0       0.2
 2 C  dx2y2           0.1       0.1       0.1       0.0       0.1       0.0
 2 C  dxy             0.0       0.1       0.0       0.0       0.2       0.1
 3 C  s               0.0       0.0       0.5       0.7       0.0       6.5
 3 C  pz              0.0       0.1       3.4      11.5       0.4       1.3
 3 C  px              4.1       1.2       0.2       0.1      19.9       0.0
 3 C  py              0.0       0.0      10.4       4.8       0.1       2.9
 3 C  dz2             0.0       0.0       0.1       0.4       0.0       0.3
 3 C  dxz             0.0       0.0       0.0       0.1       0.1       0.1
 3 C  dyz             0.0       0.0       0.3       0.1       0.0       0.0
 3 C  dx2y2           0.0       0.0       0.4       0.1       0.0       0.0
 3 C  dxy             0.0       0.0       0.0       0.0       0.3       0.0
 4 C  s               0.0       0.0       0.2       0.2       0.1       4.7
 4 C  pz              5.4       5.8       2.5       8.1       0.6       0.0
 4 C  px              0.6       0.0       0.7       0.0      14.5       0.3
 4 C  py              2.9       8.3       7.3       6.7       0.0       2.1
 4 C  dz2             0.0       0.3       0.2       0.0       0.1       0.0
 4 C  dxz             0.0       0.1       0.1       0.0       0.2       0.0
 4 C  dx2y2           0.2       0.0       0.1       0.5       0.1       0.0
 5 C  s               0.2       0.0       0.0       0.6       0.5       5.2
 5 C  pz              7.5       4.0       0.8       2.5       0.4       1.4
 5 C  px              0.4       0.1       0.9       2.1       8.4       1.9
 5 C  py              1.4       4.0       2.1       0.9       0.0       0.1
 5 C  dz2             0.0       0.2       0.1       0.0       0.1       0.0
 5 C  dxz             0.0       0.0       0.0       0.0       0.1       0.5
 5 C  dyz             0.0       0.1       0.0       0.0       0.0       0.0
 5 C  dx2y2           0.2       0.0       0.0       0.1       0.0       0.0
 5 C  dxy             0.1       0.1       0.1       0.0       0.1       0.0
 6 C  s               0.0       0.5       0.6       0.1       0.2       9.5
 6 C  pz              6.1       8.2       4.8       4.8       0.8       2.3
 6 C  px              1.7       0.0       0.2       0.3       3.9       0.0
 6 C  py              1.5       4.9       1.2       1.3       0.1       0.1
 6 C  dz2             0.0       0.1       0.1       0.0       0.1       0.2
 6 C  dxz             0.1       0.1       0.0       0.0       0.2       0.0
 6 C  dyz             0.0       0.0       0.0       0.1       0.0       0.2
 6 C  dx2y2           0.1       0.0       0.0       0.1       0.0       0.1
 7 H  s               0.1       0.5       0.1       1.2       2.4       2.6
 7 H  pz              0.1       0.0       0.0       0.1       0.0       0.1
 7 H  px              0.0       0.0       0.0       0.0       0.0       0.7
 7 H  py              0.0       0.0       0.0       0.0       0.0       0.1
 8 H  s               4.0       0.2       0.2       1.0       1.3       1.7
 8 H  px              0.1       0.0       0.0       0.1       0.0       0.8
 8 H  py              0.0       0.0       0.0       0.0       0.0       0.1
 9 H  s               0.1       3.8       2.7       0.2       0.1       1.4
 9 H  pz              0.1       0.0       0.0       0.1       0.0       0.0
 9 H  py              0.0       0.0       0.0       0.0       0.0       0.6
10 H  s               0.3       9.1      11.2       0.0       0.0       0.7
10 H  pz              0.1       0.0       0.0       0.1       0.0       0.1
10 H  px              0.0       0.0       0.0       0.0       0.1       0.1
10 H  py              0.0       0.1       0.0       0.0       0.0       0.3
11 H  s               1.9       0.2       0.3       0.0       3.5       0.4
11 H  pz              0.1       0.0       0.0       0.0       0.0       0.1
11 H  py              0.0       0.0       0.0       0.0       0.1       0.2
12 H  s               0.1       4.6       2.2       0.0       0.0       0.5
[...]
 4 C  dz2             0.2       4.3       0.0       0.0       0.0       0.0
 4 C  dxz             0.1       0.3       0.0       0.0       0.0       0.0
 4 C  dyz             0.2       0.5       0.0       0.0       0.0       0.0
 4 C  dx2y2           2.9       3.9       0.0       0.0       0.0       0.0
 4 C  dxy             0.2       0.1       0.0       0.0       0.0       0.0
 5 C  s               0.0       0.2      21.4      35.8      24.8       2.5
 5 C  pz              0.5       0.2       0.0       0.0       0.0       0.0
 5 C  px              0.0       0.6       0.0       0.0       0.0       0.0
 5 C  py              0.3       0.5       0.0       0.0       0.0       0.0
 5 C  dz2             0.0       0.9       0.0       0.0       0.0       0.0
 5 C  dxz             0.1       0.5       0.0       0.0       0.0       0.0
 5 C  dx2y2           1.2       1.6       0.0       0.0       0.0       0.0
 5 C  dxy             0.2       0.0       0.0       0.0       0.0       0.0
 6 C  s               0.1       0.3      18.6       8.8      36.6      16.8
 6 C  pz              0.3       0.4       0.0       0.0       0.0       0.0
 6 C  px              2.4       1.4       0.0       0.0       0.0       0.0
 6 C  py              0.0       0.3       0.0       0.0       0.0       0.0
 6 C  dz2             0.1       2.1       0.0       0.0       0.0       0.0
 6 C  dxz             2.6       0.6       0.0       0.0       0.0       0.0
 6 C  dyz             0.0       0.8       0.0       0.0       0.0       0.0
 6 C  dx2y2           1.0       0.9       0.0       0.0       0.0       0.0
 6 C  dxy             0.2       0.0       0.0       0.0       0.0       0.0
 7 H  s               0.5       0.2       0.0       0.0       0.0       0.0
 7 H  px              0.9       0.3       0.0       0.0       0.0       0.0
 7 H  py              0.3       0.2       0.0       0.0       0.0       0.0
 8 H  s               0.2       0.1       0.0       0.0       0.0       0.0
 8 H  pz              0.2       0.1       0.0       0.0       0.0       0.0
 8 H  py              0.5       0.1       0.0       0.0       0.0       0.0
 9 H  s               0.0       0.3       0.0       0.0       0.0       0.0
 9 H  pz              0.1       0.4       0.0       0.0       0.0       0.0
 9 H  py              0.1       0.3       0.0       0.0       0.0       0.0
10 H  s               2.3       2.9       0.0       0.0       0.0       0.0
10 H  pz              1.5       2.0       0.0       0.0       0.0       0.0
10 H  px              0.2       0.5       0.0       0.0       0.0       0.0
10 H  py              4.7       5.3       0.0       0.0       0.0       0.0
11 H  px              0.0       0.1       0.0       0.0       0.0       0.0
12 H  s               0.2       0.3       0.0       0.0       0.0       0.0
12 H  pz              0.1       0.2       0.0       0.0       0.0       0.0
12 H  py              0.4       0.8       0.0       0.0       0.0       0.0
14 H  s               5.0       0.5       0.0       0.0       0.0       0.0
14 H  pz              1.9       0.9       0.0       0.0       0.0       0.0
14 H  px              0.1       0.1       0.0       0.0       0.0       0.0
14 H  py             10.3       0.9       0.0       0.0       0.0       0.0
15 H  s               2.2       1.3       0.0       0.0       0.0       0.0
15 H  pz              3.6       4.0       0.0       0.0       0.0       0.0
15 H  px              0.2       0.0       0.0       0.0       0.0       0.0
15 H  py              0.7       0.0       0.0       0.0       0.0       0.0
16 H  s               0.9       3.0       0.0       0.0       0.0       0.0
16 H  px              0.3       0.2       0.0       0.0       0.0       0.0
16 H  py              2.4       6.7       0.0       0.0       0.0       0.0
17 H  pz              0.1       0.1       0.0       0.0       0.0       0.0
18 H  s               0.3       0.8       0.0       0.0       0.0       0.0
18 H  px              0.1       0.2       0.0       0.0       0.0       0.0
18 H  py              0.9       1.9       0.0       0.0       0.0       0.0
19 H  s               0.2       0.0       0.0       0.0       0.0       0.0
19 H  px              0.3       0.0       0.0       0.0       0.0       0.0
20 H  s               1.8       0.6       0.0       0.0       0.0       0.0
20 H  pz              2.0       1.0       0.0       0.0       0.0       0.0
20 H  px              2.4       0.5       0.0       0.0       0.0       0.0
20 H  py              0.1       0.0       0.0       0.0       0.0       0.0
21 H  s               0.6       0.4       0.0       0.0       0.0       0.0
21 H  pz              0.3       0.0       0.0       0.0       0.0       0.0
21 H  px              0.4       0.5       0.0       0.0       0.0       0.0
21 H  py              0.4       0.4       0.0       0.0       0.0       0.0
22 H  s               0.1       0.6       0.0       0.0       0.0       0.0
22 H  px              0.1       0.0       0.0       0.0       0.0       0.0
22 H  py              0.3       1.7       0.0       0.0       0.0       0.0

                    210       211       212   
                  22.07682  22.09081  22.16945
                   0.00000   0.00000   0.00000
                  --------  --------  --------
 0 C  s               2.0       1.8       0.5
 1 C  s              22.6      24.5      34.2
 2 C  s               2.3       0.1       4.2
 3 C  s               9.6      58.8      16.8
 4 C  s              44.8       0.0      43.0
 5 C  s               0.2      14.0       0.8
 6 C  s              18.3       0.4       0.2


                      *****************************
                      * MAYER POPULATION ANALYSIS *
                      *****************************

  NA   - Mulliken gross atomic population
  ZA   - Total nuclear charge
  QA   - Mulliken gross atomic charge
  VA   - Mayer's total valence
  BVA  - Mayer's bonded valence
  FA   - Mayer's free valence

  ATOM       NA         ZA         QA         VA         BVA        FA
  0 C      6.5568     6.0000    -0.5568     3.7397     3.7397     0.0000
  1 C      6.0165     6.0000    -0.0165     3.5305     3.5305     0.0000
  2 C      6.5321     6.0000    -0.5321     3.7417     3.7417     0.0000
  3 C      6.3456     6.0000    -0.3456     3.4856     3.4856     0.0000
  4 C      5.9823     6.0000     0.0177     3.4244     3.4244     0.0000
  5 C      6.5414     6.0000    -0.5414     3.7792     3.7792    -0.0000
  6 C      6.5557     6.0000    -0.5557     3.8220     3.8220     0.0000
  7 H      0.8457     1.0000     0.1543     0.9610     0.9610    -0.0000
  8 H      0.8366     1.0000     0.1634     0.9586     0.9586    -0.0000
  9 H      0.8336     1.0000     0.1664     0.9601     0.9601    -0.0000
 10 H      0.8442     1.0000     0.1558     0.9571     0.9571     0.0000
 11 H      0.8427     1.0000     0.1573     0.9606     0.9606     0.0000
 12 H      0.8431     1.0000     0.1569     0.9634     0.9634     0.0000
 13 H      0.8452     1.0000     0.1548     0.9620     0.9620     0.0000
 14 H      0.8383     1.0000     0.1617     0.9633     0.9633     0.0000
 15 H      0.8441     1.0000     0.1559     0.9608     0.9608     0.0000
 16 H      0.8423     1.0000     0.1577     0.9585     0.9585     0.0000
 17 H      0.8432     1.0000     0.1568     0.9600     0.9600    -0.0000
 18 H      0.8407     1.0000     0.1593     0.9609     0.9609    -0.0000
 19 H      0.8462     1.0000     0.1538     0.9611     0.9611     0.0000
 20 H      0.8405     1.0000     0.1595     0.9590     0.9590    -0.0000
 21 H      0.8448     1.0000     0.1552     0.9612     0.9612    -0.0000
 22 H      0.8384     1.0000     0.1616     0.9610     0.9610     0.0000

  Mayer bond orders larger than 0.100000
B(  0-C ,  1-C ) :   0.8744 B(  0-C ,  7-H ) :   0.9695 B(  0-C ,  8-H ) :   0.9678 
B(  0-C ,  9-H ) :   0.9861 B(  1-C ,  2-C ) :   0.8993 B(  1-C ,  3-C ) :   0.8878 
B(  1-C , 10-H ) :   0.9709 B(  2-C , 11-H ) :   0.9749 B(  2-C , 12-H ) :   0.9843 
B(  2-C , 13-H ) :   0.9746 B(  3-C ,  4-C ) :   0.8154 B(  3-C , 14-H ) :   0.9812 
B(  3-C , 15-H ) :   0.9855 B(  4-C ,  5-C ) :   0.8920 B(  4-C ,  6-C ) :   0.9009 
B(  4-C , 16-H ) :   0.9664 B(  5-C , 17-H ) :   0.9746 B(  5-C , 18-H ) :   0.9830 
B(  5-C , 19-H ) :   0.9766 B(  6-C , 20-H ) :   0.9656 B(  6-C , 21-H ) :   0.9764 
B(  6-C , 22-H ) :   0.9873 

-------
TIMINGS
-------

Total SCF time: 0 days 0 hours 0 min 24 sec 

Total time                  ....      24.827 sec
Sum of individual times     ....      24.354 sec  ( 98.1%)

SCF preparation             ....       0.369 sec  (  1.5%)
Fock matrix formation       ....      23.191 sec  ( 93.4%)
  Startup                   ....       0.053 sec  (  0.2% of F)
  Split-RI-J                ....       3.615 sec  ( 15.6% of F)
  XC integration            ....      14.697 sec  ( 63.4% of F)
    XC Preparation          ....       0.000 sec  (  0.0% of XC)
    Basis function eval.    ....       2.680 sec  ( 18.2% of XC)
    Density eval.           ....       4.402 sec  ( 30.0% of XC)
    XC-Functional eval.     ....       1.823 sec  ( 12.4% of XC)
    XC-Potential eval.      ....       4.727 sec  ( 32.2% of XC)
  CPCM terms                ....       4.416 sec  ( 19.0% of F)
Diagonalization             ....       0.000 sec  (  0.0%)
Density matrix formation    ....       0.186 sec  (  0.7%)
Total Energy calculation    ....       0.034 sec  (  0.1%)
Population analysis         ....       0.142 sec  (  0.6%)
Orbital Transformation      ....       0.059 sec  (  0.2%)
Orbital Orthonormalization  ....       0.000 sec  (  0.0%)
DIIS solution               ....       0.319 sec  (  1.3%)
  MO trafo                  ....       0.000 sec  (  0.0 % of DIIS)
  Orb grad                  ....       0.000 sec  (  0.0 % of DIIS)
  Energy W gradient         ....       0.000 sec  (  0.0 % of DIIS)
  DIIS error                ....       0.008 sec  (  2.4 % of DIIS)
  DIIS work                 ....       0.266 sec  ( 83.4 % of DIIS)
  Form Q                    ....       0.000 sec  (  0.0 % of DIIS)
  Form QpQm                 ....       0.000 sec  (  0.0 % of DIIS)
  Exp/Cayley                ....       0.000 sec  (  0.0 % of DIIS)
  Orb update                ....       0.000 sec  (  0.0 % of DIIS)
  Wake-sleep                ....       0.015 sec  (  4.7 % of DIIS)
SOSCF solution              ....       0.054 sec  (  0.2%)
  MO trafo                  ....       0.043 sec  ( 78.3 % of SOSCF)
  Orb grad                  ....       0.001 sec  (  1.0 % of SOSCF)
  Rot update                ....       0.000 sec  (  0.1 % of SOSCF)
  Step                      ....       0.011 sec  ( 20.5 % of SOSCF)
Finished LeanSCF after  25.1 sec

Maximum memory used throughout the entire LEANSCF-calculation: 33.8 MB


-------------------------------------------------------------------------------
                          DFT DISPERSION CORRECTION                            
                                                                               
                                DFTD4 V3.4.0                                   
-------------------------------------------------------------------------------
The R2SCAN3C composite method is recognized
Using three-body term ABC
Active option DFTDOPT                   ...         5   

-------------------------   ----------------
Dispersion correction           -0.006316428
-------------------------   ----------------

------------------   -----------------
gCP correction             0.010991912
------------------   -----------------

-------------------------   --------------------
FINAL SINGLE POINT ENERGY      -276.282186738763
-------------------------   --------------------


------------------------------------------------------------------------------
                              ORCA PROPERTY CALCULATIONS
------------------------------------------------------------------------------

GBWName                                 ... sp_solv.gbw
Number of atoms                         ...     23
Number of basis functions               ...    213
Max core memory                         ...   1024 MB

Electric properties:
Dipole moment                           ... YES
Quadrupole moment                       ...  NO
Static polarizability (Dipole/Dipole)   ...  NO
Static polarizability (Dipole/Quad.)    ...  NO
Static polarizability (Quad./Quad.)     ...  NO
Static polarizability (Velocity)        ...  NO

Atomic electric properties:
Dipole moment                           ...  NO
Quadrupole moment                       ...  NO
Static polarizability                   ...  NO

Choice of electric origin               ... Center of mass
Position of electric origin             ...    -0.000000     0.000001     0.000001

General magnetic properties:
Magnetizability                         ...  NO

EPR properties:
g-Tensor (aka g-matrix)                 ...  NO
Zero-Field splitting spin-orbit         ...  NO
Zero-field splitting spin-spin          ...  NO
Hyperfine couplings                     ...  NO (   0 nuclei)
Quadrupole couplings                    ...  NO (   0 nuclei)
Contact density                         ...  NO (   0 nuclei)

NMR properties:
Chemical shifts                         ...  NO (   0 nuclei)
Spin-rotation constants                 ...  NO (   0 nuclei)
Spin-spin couplings                     ...  NO (   0 nuclei,    0 pairs)

Choice of magnetic origin               ... GIAO
Position of magnetic origin             ...     0.000000     0.000000     0.000000

Properties with geometric perturbations:
SCF Hessian                             ...  NO
IR spectrum                             ...  NO
VCD spectrum                            ...  NO
X-ray spectroscopy properties:
SCF XES/XAS/RIXS spectra                ...  NO


-------------
DIPOLE MOMENT
-------------

Method             : SCF
Type of density    : Electron Density
Multiplicity       :   1
Irrep              :   0
Energy             :  -276.2868622225602735 Eh
Relativity type    : 
Basis              : AO
                                X                 Y                 Z
Electronic contribution:      0.010229059      -0.567464220      -0.667423979
Nuclear contribution   :     -0.023362748       0.491338936       0.639803661
                        -----------------------------------------
Total Dipole Moment    :     -0.013133689      -0.076125284      -0.027620319
                        -----------------------------------------
Magnitude (a.u.)       :      0.082039226
Magnitude (Debye)      :      0.208527141



--------------------
Rotational spectrum 
--------------------
 
Rotational constants in cm-1:             0.137907             0.048809             0.040331 
Rotational constants in MHz :          4134.335903          1463.268970          1209.084791 

Dipole components along the rotational axes: 
x,y,z [a.u.] :    -0.019345    -0.012032    -0.078813 
x,y,z [Debye]:    -0.049172    -0.030582    -0.200326 

 

Dipole moment calculation done in   0.0 sec 

Maximum memory used throughout the entire PROP-calculation: 13.4 MB

--------------------------------
SUGGESTED CITATIONS FOR THIS RUN
--------------------------------

Below you find a list of papers that are relevant to this ORCA run
We neither can nor want to force you to cite these papers, but we appreciate if you do
You receive ORCA, which is the product of decades of hard work by many enthusiastic individuals, for free
The only thing we kindly ask in return is that you cite our papers,
We deeply appreciate it, if you show your appreciation for ORCA by not just citing the generic ORCA reference.

Please note that relegating all ORCA citations to the supporting information does *not* help us.
SI sections are not indexed - citations you put there will not count into any citation statistics
But we need these citations in order to attract the funding resources that allow us to do what we are doing

Therefore, if you are a happy ORCA user, please consider citing a few of the papers listed below in the main body of your paper

In addition to the list printed below, the program has created the file sp_solv.bibtex that contains the list in bibtex format
You can import this file easily into all common literature databanks and citation aid programs


List of essential papers. We consider these as the minimum necessary citations

  1. Neese,F.
     Software update: the ORCA program system, version 5.0
     WIRES Comput. Molec. Sci., 2022 12(1)e1606
     doi.org/10.1002/wcms.1606
  2. Grimme,S.; Hansen,A.; Ehlert,S.; Mewes,J.
     r2SCAN-3c: A 'Swiss army knife' composite electronic-structure method
     J. Chem. Phys., 2021 154 064103
     doi.org/10.1063/5.0040021

List of papers to cite with high priority. The work reported in these papers was absolutely
necessary for this run to complete.
Our perspective: the developers of density functionals and basis sets usually get cited in chemistry papers
Good! But without the algorithms to do something with them, the functionals or basis sets would not do anything.
Hence, in our opinion, the algorithm design and method developments papers are equally worthy of getting cited

  1. Neese,F.
     An improvement of the resolution of the identity approximation for the formation of the Coulomb matrix
     J. Comp. Chem., 2003 24(14)1740-1747
     doi.org/10.1002/jcc.10318
  2. Garcia-Rates,M.; Neese,F.
     Effect of the Solute Cavity on the Solvation Energy and its Derivatives within the Framework of the Gaussian Charge Scheme
     J. Comput. Chem., 2020 41 922-939
     doi.org/10.1002/jcc.26139
  3. Neese,F.
     The SHARK Integral Generation and Digestion System
     J. Comp. Chem., 2022  1-16
     doi.org/10.1002/jcc.26942
  4. Lehtola,S.; Steigemann,C.; Oliveira,M.; Marques,M.
     Recent developments in Libxc - A comprehensive library of functionals for density functional theory
     Software X, 2018 7 
     doi.org/10.1016/j.softx.2017.11.002
  5. Caldeweyher,E.; Bannwarth,C.; Grimme,S.
     Extension of the D3 dispersion coefficient model
     J. Chem. Phys., 2017 147 034112-XXXX
     doi.org/10.1063/1.4993215
  6. Caldeweyher,E.; Ehlert,S.; Hansen,A.; Neugebauer,H.; Spicher,S.; Bannwarth,C.; Grimme,S.
     A generally applicable atomic-charge dependent London dispersion correction
     J. Chem. Phys., 2019 150 154122-XXXX
     doi.org/10.1063/1.5090222
  7. Caldeweyher,E.; Mewes,J.; Ehlert,S.; Grimme,S.
     Extension and evaluation of the D4 London-dispersion model for periodic systems
     Phys. Chem. Chem. Phys., 2020 22(16)8499-8512
     doi.org/10.1039/D0CP00502A

List of suggested additional citations. These are papers that are important in the 'surrounding' of 
of this run, or papers that preceded the highly important papers. If you like your results we are grateful for a citation.

  1. Neese,F.
     The ORCA program system
     WIRES Comput. Molec. Sci., 2012 2(1)73-78
     doi.org/10.1002/wcms.81
  2. Neese,F.
     Software update: the ORCA program system, version 4.0
     WIRES Comput. Molec. Sci., 2018 8(1)1-6
     doi.org/10.1002/wcms.1327
  3. Neese,F.; Wennmohs,F.; Becker,U.; Riplinger,C.
     The ORCA quantum chemistry program package
     J. Chem. Phys., 2020 152 Art. No. L224108
     doi.org/10.1063/5.0004608

List of optional additional citations

  1. Neese,F.
     Approximate second-order SCF convergence for spin unrestricted wavefunctions
     Chem. Phys. Lett., 2000 325(1-3)93-98
     doi.org/10.1016/s0009-2614(00)00662-x

Timings for individual modules:

Sum of individual times          ...       26.987 sec (=   0.450 min)
Startup calculation              ...        1.404 sec (=   0.023 min)   5.2 %
SCF iterations                   ...       25.471 sec (=   0.425 min)  94.4 %
Property calculations            ...        0.112 sec (=   0.002 min)   0.4 %
                             ****ORCA TERMINATED NORMALLY****
TOTAL RUN TIME: 0 days 0 hours 0 minutes 27 seconds 720 msec
