
                                 *****************
                                 * O   R   C   A *
                                 *****************

                                            #,                                       
                                            ###                                      
                                            ####                                     
                                            #####                                    
                                            ######                                   
                                           ########,                                 
                                     ,,################,,,,,                         
                               ,,#################################,,                 
                          ,,##########################################,,             
                       ,#########################################, ''#####,          
                    ,#############################################,,   '####,        
                  ,##################################################,,,,####,       
                ,###########''''           ''''###############################       
              ,#####''   ,,,,##########,,,,          '''####'''          '####       
            ,##' ,,,,###########################,,,                        '##       
           ' ,,###''''                  '''############,,,                           
         ,,##''                                '''############,,,,        ,,,,,,###''
      ,#''                                            '''#######################'''  
     '                                                          ''''####''''         
             ,#######,   #######,   ,#######,      ##                                
            ,#'     '#,  ##    ##  ,#'     '#,    #''#        ,####,   ,####,        
            ##       ##  ##   ,#'  ##            #'  '#       #'       #'  '#        
            ##       ##  #######   ##           ,######,      #####,   #    #        
            '#,     ,#'  ##    ##  '#,     ,#' ,#      #,     #,   #   #,  ,#        
             '#######'   ##     ##  '#######'  #'      '#     '####' # '####'        



                #########################################################
                #                        -***-                          #
                #          Department of theory and spectroscopy        #
                #                                                       #
                #                      Frank Neese                      #
                #                                                       #
                #     Directorship, Architecture, Infrastructure        #
                #                    SHARK, DRIVERS                     #
                #        Core code/Algorithms in most modules           #
                #                                                       #
                #        Max Planck Institute fuer Kohlenforschung      #
                #                Kaiser Wilhelm Platz 1                 #
                #                 D-45470 Muelheim/Ruhr                 #
                #                      Germany                          #
                #                                                       #
                #                  All rights reserved                  #
                #                        -***-                          #
                #########################################################


                         Program Version 6.0.0  -   RELEASE  -


 With contributions from (in alphabetic order):
   Daniel Aravena         : Magnetic Suceptibility
   Michael Atanasov       : Ab Initio Ligand Field Theory (pilot matlab implementation)
   Alexander A. Auer      : GIAO ZORA, VPT2 properties, NMR spectrum
   Ute Becker             : All parallelization in ORCA, NUMFREQ, NUMCALC
   Giovanni Bistoni       : ED, misc. LED, open-shell LED, HFLD
   Martin Brehm           : Molecular dynamics
   Dmytro Bykov           : pre 5.0 version of the SCF Hessian
   Marcos Casanova-Páez   : Triplet and SCS-CIS(D). UHF-(DLPNO)-IP/EA/STEOM-CCSD. UHF-CVS-IP/STEOM-CCSD
   Vijay G. Chilkuri      : MRCI spin determinant printing, contributions to CSF-ICE
   Pauline Colinet        : FMM embedding
   Dipayan Datta          : RHF DLPNO-CCSD density
   Achintya Kumar Dutta   : EOM-CC, STEOM-CC
   Nicolas Foglia         : Exact transition moments, OPA infrastructure, MCD improvements
   Dmitry Ganyushin       : Spin-Orbit,Spin-Spin,Magnetic field MRCI
   Miquel Garcia          : C-PCM and meta-GGA Hessian, CCSD/C-PCM, Gaussian charge scheme
   Tiago L. C. Gouveia    : GS-ROHF, GS-ROCIS
   Yang Guo               : DLPNO-NEVPT2, F12-NEVPT2, CIM, IAO-localization
   Andreas Hansen         : Spin unrestricted coupled pair/coupled cluster methods
   Ingolf Harden          : AUTO-CI MPn and infrastructure 
   Benjamin Helmich-Paris : MC-RPA, TRAH-(SCF,CASSCF), AVAS, COSX integrals, SCF dyn. polar.
   Lee Huntington         : MR-EOM, pCC
   Robert Izsak           : Overlap fitted RIJCOSX, COSX-SCS-MP3, EOM
   Riya Kayal             : Wick's Theorem for AUTO-CI, AUTO-CI UHF-CCSDT
   Emily Kempfer          : AUTO-CI, RHF CISDT and CCSDT
   Christian Kollmar      : KDIIS, OOCD, Brueckner-CCSD(T), CCSD density, CASPT2, CASPT2-K, improved NEVPT2
   Axel Koslowski         : Symmetry handling
   Simone Kossmann        : Meta GGA functionals, TD-DFT gradient, OOMP2, (MP2 Hessian; deprecated post 5.0)
   Lucas Lang             : DCDCAS
   Marvin Lechner         : AUTO-CI (C++ implementation), FIC-MRCC
   Spencer Leger          : CASSCF response
   Dagmar Lenk            : GEPOL surface, SMD, ORCA-2-JSON
   Dimitrios Liakos       : Extrapolation schemes; Compound Job, initial MDCI parallelization
   Dimitrios Manganas     : Further ROCIS development; embedding schemes. LFT, Crystal Embedding
   Dimitrios Pantazis     : SARC Basis sets
   Anastasios Papadopoulos: AUTO-CI, single reference methods and gradients
   Taras Petrenko         : pre 6.0 DFT Hessian and TD-DFT gradient, (ASA, deprecated), ECA, 1-Electron XAS/XES, NRVS
   Peter Pinski           : DLPNO-MP2, DLPNO-MP2 Gradient
   Christoph Reimann      : Effective Core Potentials
   Marius Retegan         : Local ZFS, SOC
   Christoph Riplinger    : Optimizer, TS searches, QM/MM, DLPNO-CCSD(T), (RO)-DLPNO pert. Triples
   Michael Roemelt        : Original ROCIS implementation
   Masaaki Saitow         : Open-shell DLPNO-CCSD energy and density
   Barbara Sandhoefer     : DKH picture change effects
   Kantharuban Sivalingam : CASSCF convergence/infrastructure, NEVPT2 and variants, FIC-MRCI
   Bernardo de Souza      : ESD, SOC TD-DFT
   Georgi Stoychev        : AutoAux, RI-MP2 NMR, DLPNO-MP2 response, X2C
   Van Anh Tran           : RI-MP2 g-tensors
   Willem Van den Heuvel  : Paramagnetic NMR
   Zikuan Wang            : NOTCH, Electric field optimization 
   Frank Wennmohs         : Technical directorship and infrastructure
   Hang Xu                : AUTO-CI-Response properties 


 We gratefully acknowledge several colleagues who have allowed us to
 interface, adapt or use parts of their codes:
   Stefan Grimme, W. Hujo, H. Kruse, P. Pracht,  : VdW corrections, initial TS optimization,
                  C. Bannwarth, S. Ehlert,         DFT functionals, gCP, sTDA/sTD-DF
                  L. Wittmann, M. Mueller
   Ed Valeev, F. Pavosevic, A. Kumar             : LibInt (2-el integral package), F12 methods
   Garnet Chan, S. Sharma, J. Yang, R. Olivares  : DMRG
   Ulf Ekstrom                                   : XCFun DFT Library
   Mihaly Kallay                                 : mrcc  (arbitrary order and MRCC methods)
   Frank Weinhold                                : gennbo (NPA and NBO analysis)
   Simon Mueller                                 : openCOSMO-RS
   Christopher J. Cramer and Donald G. Truhlar   : smd solvation model
   Lars Goerigk                                  : TD-DFT with DH, B97 family of functionals
   V. Asgeirsson, H. Jonsson                     : NEB implementation
   FAccTs GmbH                                   : IRC, NEB, NEB-TS, DLPNO-Multilevel, CI-OPT
                                                   MM, QMMM, 2- and 3-layer-ONIOM, Crystal-QMMM,
                                                   LR-CPCM, SF, NACMEs, symmetry and pop. for TD-DFT,
                                                   nearIR, NL-DFT gradient (VV10), updates on ESD,
                                                   ML-optimized integration grids, MBIS, APM,
                                                   GOAT, DOCKER, SOLVATOR, interface openCOSMO-RS
   S Lehtola, MJT Oliveira, MAL Marques          : LibXC Library
   Liviu Ungur et al                             : ANISO software


 Your calculation uses the libint2 library for the computation of 2-el integrals
 For citations please refer to: http://libint.valeyev.net

 Your ORCA version has been built with support for libXC version: 6.2.2
 For citations please refer to: https://libxc.gitlab.io

 This ORCA versions uses:
   CBLAS   interface :  Fast vector & matrix operations
   LAPACKE interface :  Fast linear algebra routines
   SCALAPACK package :  Parallel linear algebra routines
   Shared memory     :  Shared parallel matrices
   BLAS/LAPACK       :  OpenBLAS 0.3.27  USE64BITINT DYNAMIC_ARCH NO_AFFINITY SkylakeX SINGLE_THREADED
        Core in use  :  SkylakeX
   Copyright (c) 2011-2014, The OpenBLAS Project


Your calculation utilizes the geometrical counterpoise correction gCP
Please cite in your paper:
H.Kruse, S. Grimme J.Chem.Phys., 136, (2012), 154101 
   

Your calculation utilizes the atom-pairwise dispersion correction
based on EEQ partial charges (D4)


================================================================================

----- Orbital basis set information -----
Your calculation utilizes the basis: def2-mTZVPP
   Stefan Grimme, Andreas Hansen, Sebastian Ehlert, and Jan-Michael Mewes 
   J. Chem. Phys. 154, 064103 (2021). DOI: 10.1063/5.0040021

----- AuxJ basis set information -----
Your calculation utilizes the auxiliary basis: def2/J
   F. Weigend, Phys. Chem. Chem. Phys. 8, 1057 (2006).

================================================================================
                                        WARNINGS
                       Please study these warnings very carefully!
================================================================================

Using LibXC functional ID 497 : Re-regularized SCAN exchange by Furness et al
[ 1]  J. W. Furness, A. D. Kaplan, J. Ning, J. P. Perdew, and J. Sun.,  J. Phys. Chem. Lett. 11, 8208-8215 (2020)
[ 2]  J. W. Furness, A. D. Kaplan, J. Ning, J. P. Perdew, and J. Sun.,  J. Phys. Chem. Lett. 11, 9248-9248 (2020)
Using LibXC functional ID 498 : Re-regularized SCAN correlation by Furness et al
[ 1]  J. W. Furness, A. D. Kaplan, J. Ning, J. P. Perdew, and J. Sun.,  J. Phys. Chem. Lett. 11, 8208-8215 (2020)
[ 2]  J. W. Furness, A. D. Kaplan, J. Ning, J. P. Perdew, and J. Sun.,  J. Phys. Chem. Lett. 11, 9248-9248 (2020)
Using LibXC functional ID 497 : Re-regularized SCAN exchange by Furness et al
[ 1]  J. W. Furness, A. D. Kaplan, J. Ning, J. P. Perdew, and J. Sun.,  J. Phys. Chem. Lett. 11, 8208-8215 (2020)
[ 2]  J. W. Furness, A. D. Kaplan, J. Ning, J. P. Perdew, and J. Sun.,  J. Phys. Chem. Lett. 11, 9248-9248 (2020)
Using LibXC functional ID 498 : Re-regularized SCAN correlation by Furness et al
[ 1]  J. W. Furness, A. D. Kaplan, J. Ning, J. P. Perdew, and J. Sun.,  J. Phys. Chem. Lett. 11, 8208-8215 (2020)
[ 2]  J. W. Furness, A. D. Kaplan, J. Ning, J. P. Perdew, and J. Sun.,  J. Phys. Chem. Lett. 11, 9248-9248 (2020)

================================================================================
                                       INPUT FILE
================================================================================
NAME = sp_gas.inp
|  1> ! r2scan-3c def2/J RI DEFGRID2 scfconv6 printgap
|  2> %output
|  3>     printlevel normal
|  4> end
|  5> * xyz 0 1
|  6> C -2.3610502746 -0.1292411399 -1.2425477864
|  7> C -1.9485309845 0.1387218601 0.2028898827
|  8> C -1.9256301054 -1.1546284254 1.0141643223
|  9> C -0.5847685242 0.8289641238 0.2515009595
| 10> O 0.4078290355 -0.0308325732 -0.3226499438
| 11> C 1.675124867 0.1648826599 0.0129453351
| 12> O 2.0368627982 1.0346346333 0.7803037319
| 13> C 2.5854611153 -0.8093663245 -0.673452529
| 14> H -1.6320636463 -0.7761992113 -1.7228932134
| 15> H -2.4215281043 0.8009842304 -1.8016647134
| 16> H -3.3324395297 -0.6147007852 -1.2716364376
| 17> H -2.6635055935 0.8316991208 0.6574750063
| 18> H -1.6347026173 -0.9568911789 2.0432720542
| 19> H -1.2154351576 -1.8543454984 0.5810155514
| 20> H -2.9095542171 -1.6149720921 1.0149425063
| 21> H -0.5990355495 1.7621593185 -0.321378145
| 22> H -0.2900270896 1.0616679879 1.2804735996
| 23> H 2.5944245359 -0.5905003948 -1.738309937
| 24> H 2.2084967231 -1.8186428141 -0.5379340804
| 25> H 3.5882739926 -0.7164739706 -0.2702842393
| 26> *
| 27> 
| 28>                          ****END OF INPUT****
================================================================================

                       ****************************
                       * Single Point Calculation *
                       ****************************

---------------------------------
CARTESIAN COORDINATES (ANGSTROEM)
---------------------------------
  C     -2.361050   -0.129241   -1.242548
  C     -1.948531    0.138722    0.202890
  C     -1.925630   -1.154628    1.014164
  C     -0.584769    0.828964    0.251501
  O      0.407829   -0.030833   -0.322650
  C      1.675125    0.164883    0.012945
  O      2.036863    1.034635    0.780304
  C      2.585461   -0.809366   -0.673453
  H     -1.632064   -0.776199   -1.722893
  H     -2.421528    0.800984   -1.801665
  H     -3.332440   -0.614701   -1.271636
  H     -2.663506    0.831699    0.657475
  H     -1.634703   -0.956891    2.043272
  H     -1.215435   -1.854345    0.581016
  H     -2.909554   -1.614972    1.014943
  H     -0.599036    1.762159   -0.321378
  H     -0.290027    1.061668    1.280474
  H      2.594425   -0.590500   -1.738310
  H      2.208497   -1.818643   -0.537934
  H      3.588274   -0.716474   -0.270284

----------------------------
CARTESIAN COORDINATES (A.U.)
----------------------------
  NO LB      ZA    FRAG     MASS         X           Y           Z
   0 C     6.0000    0    12.011   -4.461738   -0.244230   -2.348075
   1 C     6.0000    0    12.011   -3.682190    0.262146    0.383406
   2 C     6.0000    0    12.011   -3.638914   -2.181932    1.916493
   3 C     6.0000    0    12.011   -1.105052    1.566515    0.475268
   4 O     8.0000    0    15.999    0.770685   -0.058265   -0.609720
   5 C     6.0000    0    12.011    3.165527    0.311583    0.024463
   6 O     8.0000    0    15.999    3.849113    1.955176    1.474560
   7 C     6.0000    0    12.011    4.885813   -1.529481   -1.272641
   8 H     1.0000    0     1.008   -3.084153   -1.466804   -3.255796
   9 H     1.0000    0     1.008   -4.576025    1.513641   -3.404653
  10 H     1.0000    0     1.008   -6.297398   -1.161616   -2.403045
  11 H     1.0000    0     1.008   -5.033296    1.571684    1.242448
  12 H     1.0000    0     1.008   -3.089140   -1.808262    3.861225
  13 H     1.0000    0     1.008   -2.296840   -3.504205    1.097960
  14 H     1.0000    0     1.008   -5.498261   -3.051855    1.917963
  15 H     1.0000    0     1.008   -1.132013    3.329999   -0.607317
  16 H     1.0000    0     1.008   -0.548072    2.006262    2.419744
  17 H     1.0000    0     1.008    4.902752   -1.115884   -3.284930
  18 H     1.0000    0     1.008    4.173454   -3.436737   -1.016548
  19 H     1.0000    0     1.008    6.780855   -1.353940   -0.510763

--------------------------------
INTERNAL COORDINATES (ANGSTROEM)
--------------------------------
 C      0   0   0     0.000000000000     0.00000000     0.00000000
 C      1   0   0     1.526848515514     0.00000000     0.00000000
 C      2   1   0     1.526907209890   111.00106339     0.00000000
 C      2   1   3     1.529263047193   110.50220612   123.10319195
 O      4   2   1     1.433230454412   109.51818900   297.99719304
 C      5   4   2     1.325506457255   118.17351071   202.14762417
 O      6   5   4     1.214973964841   123.38506959   359.96282890
 C      6   5   4     1.499671696210   111.62700602   180.20164988
 H      1   2   3     1.086603874293   109.98201290   297.26854701
 H      1   2   3     1.087008990530   110.59631410   177.28266860
 H      1   2   3     1.086330659499   110.20422322    57.19571311
 H      2   1   3     1.094556444392   109.13527608   239.85838481
 H      3   2   1     1.087566800634   110.65658066   180.20399599
 H      3   2   1     1.087013663143   110.07960480    60.12741539
 H      3   2   1     1.086288890961   110.22764795   300.32724735
 H      4   2   1     1.095101496572   110.87792417    57.20466954
 H      4   2   1     1.095357610879   111.45134559   177.92361311
 H      8   6   5     1.087154054155   108.81603816    68.02603387
 H      8   6   5     1.085866674761   109.63132855   309.87801590
 H      8   6   5     1.084807506478   109.59744576   188.13611753

---------------------------
INTERNAL COORDINATES (A.U.)
---------------------------
 C      0   0   0     0.000000000000     0.00000000     0.00000000
 C      1   0   0     2.885325542305     0.00000000     0.00000000
 C      2   1   0     2.885436458602   111.00106339     0.00000000
 C      2   1   3     2.889888345920   110.50220612   123.10319195
 O      4   2   1     2.708413045635   109.51818900   297.99719304
 C      5   4   2     2.504844192956   118.17351071   202.14762417
 O      6   5   4     2.295968053394   123.38506959   359.96282890
 C      6   5   4     2.833968796631   111.62700602   180.20164988
 H      1   2   3     2.053383738472   109.98201290   297.26854701
 H      1   2   3     2.054149297212   110.59631410   177.28266860
 H      1   2   3     2.052867437335   110.20422322    57.19571311
 H      2   1   3     2.068411918020   109.13527608   239.85838481
 H      3   2   1     2.055203405544   110.65658066   180.20399599
 H      3   2   1     2.054158127172   110.07960480    60.12741539
 H      3   2   1     2.052788506238   110.22764795   300.32724735
 H      4   2   1     2.069441917369   110.87792417    57.20466954
 H      4   2   1     2.069925903268   111.45134559   177.92361311
 H      8   6   5     2.054423427734   108.81603816    68.02603387
 H      8   6   5     2.051990633250   109.63132855   309.87801590
 H      8   6   5     2.049989095266   109.59744576   188.13611753

---------------------
BASIS SET INFORMATION
---------------------
There are 3 groups of distinct atoms

 Group   1 Type C   : 11s6p1d contracted to 5s3p1d pattern {62111/411/1}
 Group   2 Type O   : 11s6p2d contracted to 5s3p2d pattern {62111/411/11}
 Group   3 Type H   : 4s1p contracted to 2s1p pattern {31/1}

Atom   0C    basis set group =>   1
Atom   1C    basis set group =>   1
Atom   2C    basis set group =>   1
Atom   3C    basis set group =>   1
Atom   4O    basis set group =>   2
Atom   5C    basis set group =>   1
Atom   6O    basis set group =>   2
Atom   7C    basis set group =>   1
Atom   8H    basis set group =>   3
Atom   9H    basis set group =>   3
Atom  10H    basis set group =>   3
Atom  11H    basis set group =>   3
Atom  12H    basis set group =>   3
Atom  13H    basis set group =>   3
Atom  14H    basis set group =>   3
Atom  15H    basis set group =>   3
Atom  16H    basis set group =>   3
Atom  17H    basis set group =>   3
Atom  18H    basis set group =>   3
Atom  19H    basis set group =>   3
---------------------------------
AUXILIARY/J BASIS SET INFORMATION
---------------------------------
There are 3 groups of distinct atoms

 Group   1 Type C   : 12s5p4d2f1g contracted to 6s4p3d1f1g pattern {711111/2111/211/2/1}
 Group   2 Type O   : 12s5p4d2f1g contracted to 6s4p3d1f1g pattern {711111/2111/211/2/1}
 Group   3 Type H   : 5s2p1d contracted to 3s1p1d pattern {311/2/1}

Atom   0C    basis set group =>   1
Atom   1C    basis set group =>   1
Atom   2C    basis set group =>   1
Atom   3C    basis set group =>   1
Atom   4O    basis set group =>   2
Atom   5C    basis set group =>   1
Atom   6O    basis set group =>   2
Atom   7C    basis set group =>   1
Atom   8H    basis set group =>   3
Atom   9H    basis set group =>   3
Atom  10H    basis set group =>   3
Atom  11H    basis set group =>   3
Atom  12H    basis set group =>   3
Atom  13H    basis set group =>   3
Atom  14H    basis set group =>   3
Atom  15H    basis set group =>   3
Atom  16H    basis set group =>   3
Atom  17H    basis set group =>   3
Atom  18H    basis set group =>   3
Atom  19H    basis set group =>   3

Checking for AutoStart:
The File: sp_gas.gbw exists
Trying to determine its content:
     ... Fine, the file contains calculation information
     ... Fine, the calculation information was read
     ... Fine, the file contains a basis set
     ... Fine, the basis set was read
     ... Fine, the file contains a geometry
     ... Fine, the geometry was read
     ... Fine, the file contains a set of orbitals
     ... Fine, the orbitals can be read
     => possible old guess file was deleted
     => GBW file was renamed to GES file
     => GES file is set as startup file
     => Guess is set to MORead
     ... now leaving AutoStart

------------------------------------------------------------------------------
                             ORCA STARTUP CALCULATIONS
                           -- RI-GTO INTEGRALS CHOSEN --
------------------------------------------------------------------------------
------------------------------------------------------------------------------
                   ___                                                        
                  /   \      - P O W E R E D   B Y -                         
                 /     \                                                     
                 |  |  |   _    _      __       _____    __    __             
                 |  |  |  | |  | |    /  \     |  _  \  |  |  /  |          
                  \  \/   | |  | |   /    \    | | | |  |  | /  /          
                 / \  \   | |__| |  /  /\  \   | |_| |  |  |/  /          
                |  |  |   |  __  | /  /__\  \  |    /   |      \           
                |  |  |   | |  | | |   __   |  |    \   |  |\   \          
                \     /   | |  | | |  |  |  |  | |\  \  |  | \   \       
                 \___/    |_|  |_| |__|  |__|  |_| \__\ |__|  \__/        
                                                                              
                      - O R C A' S   B I G   F R I E N D -                    
                                      &                                       
                       - I N T E G R A L  F E E D E R -                       
                                                                              
 v1 FN, 2020, v2 2021, v3 2022-2024                                           
------------------------------------------------------------------------------


----------------------
SHARK INTEGRAL PACKAGE
----------------------

Number of atoms                             ...     20
Number of basis functions                   ...    222
Number of shells                            ...    110
Maximum angular momentum                    ...      2
Integral batch strategy                     ... SHARK/LIBINT Hybrid
RI-J (if used) integral strategy            ... SPLIT-RIJ (Revised 2003 algorithm where possible)
Printlevel                                  ...      1
Contraction scheme used                     ... SEGMENTED contraction
Prescreening option                         ... SCHWARTZ
   Thresh                                   ... 1.000e-10
   Tcut                                     ... 1.000e-11
   Tpresel                                  ... 1.000e-11 
Coulomb Range Separation                    ... NOT USED
Exchange Range Separation                   ... NOT USED
Multipole approximations                    ... NOT USED
Finite Nucleus Model                        ... NOT USED
CABS basis                                  ... NOT available
Auxiliary Coulomb fitting basis             ... AVAILABLE
   # of basis functions in Aux-J            ...    524
   # of shells in Aux-J                     ...    180
   Maximum angular momentum in Aux-J        ...      4
Auxiliary J/K fitting basis                 ... NOT available
Auxiliary Correlation fitting basis         ... NOT available
Auxiliary 'external' fitting basis          ... NOT available

Checking pre-screening integrals            ... done (  0.0 sec) Dimension = 110
Check shell pair data                       ... done (  0.0 sec)
Shell pair information
Shell pair cut-off parameter TPreSel        ...   1.0e-11
Total number of shell pairs                 ...      6105
Shell pairs after pre-screening             ...      5403
Total number of primitive shell pairs       ...     21533
Primitive shell pairs kept                  ...     13481
          la=0 lb=0:   1816 shell pairs
          la=1 lb=0:   2046 shell pairs
          la=1 lb=1:    598 shell pairs
          la=2 lb=0:    569 shell pairs
          la=2 lb=1:    323 shell pairs
          la=2 lb=2:     51 shell pairs

Calculating one electron integrals          ... done (  0.0 sec)
Calculating RI/J V-Matrix + Cholesky decomp.... done (  0.1 sec)
Calculating Nuclear repulsion               ... done (  0.0 sec) ENN=    397.259484672171 Eh

Diagonalization of the overlap matrix:
Smallest eigenvalue                        ... 2.095e-04
Time for diagonalization                   ...    0.005 sec
Threshold for overlap eigenvalues          ... 1.000e-07
Number of eigenvalues below threshold      ... 0
Time for construction of square roots      ...    0.018 sec
Total time needed                          ...    0.032 sec

-------------------
DFT GRID GENERATION
-------------------

General Integration Accuracy     IntAcc      ... 4.388
Radial Grid Type                 RadialGrid  ... OptM3 with GC (2021)
Angular Grid (max. ang.)         AngularGrid ... 4 (Lebedev-302)
Angular grid pruning method      GridPruning ... 4 (adaptive)
Weight generation scheme         WeightScheme... mBecke (2022)
Basis function cutoff            BFCut       ... 1.0000e-10
Integration weight cutoff        WCut        ... 1.0000e-14
Partially contracted basis set               ... off
Rotationally invariant grid construction     ... off
Angular grids for H and He will be reduced by one unit
Diffuse basis detected: some atoms will have their outermost
                        angular grid increased by 1.

Total number of grid points                  ...    87289
Total number of batches                      ...     1375
Average number of points per batch           ...       63
Average number of grid points per atom       ...     4364
Initializing property integral containers    ... done (  0.1 sec)

SHARK setup successfully completed in   1.4 seconds

Maximum memory used throughout the entire STARTUP-calculation: 39.6 MB
-------------------------------------------------------------------------------
                                 ORCA GUESS
                   Start orbitals & Density for SCF / CASSCF
-------------------------------------------------------------------------------

------------
SCF SETTINGS
------------
Hamiltonian:
 Density Functional     Method          .... DFT(GTOs)
  Functional kind                       .... Exchange
  Functional name                       .... Re-regularized SCAN exchange by Furness et al
  Functional family                     .... MGGA
  Functional refs                              
    [ 0] J. W. Furness, A. D. Kaplan, J. Ning, J. P. Perdew, and J. Sun.,  J. Phys. Chem. Lett. 11, 8208-8215 (2020), doi: 10.1021/acs.jpclett.0c02405
    [ 1] J. W. Furness, A. D. Kaplan, J. Ning, J. P. Perdew, and J. Sun.,  J. Phys. Chem. Lett. 11, 9248-9248 (2020), doi: 10.1021/acs.jpclett.0c03077
  Functional external parameters        .... 6
    Parameter  0 _c1        =  6.670000e-01 : c1 parameter        
    Parameter  1 _c2        =  8.000000e-01 : c2 parameter        
    Parameter  2 _d         =  1.240000e+00 : d parameter         
    Parameter  3 _k1        =  6.500000e-02 : k1 parameter        
    Parameter  4 _eta       =  1.000000e-03 : eta parameter       
    Parameter  5 _dp2       =  3.610000e-01 : dp2 parameter       
  Functional kind                       .... Correlation
  Functional name                       .... Re-regularized SCAN correlation by Furness et al
  Functional family                     .... MGGA
  Functional refs                              
    [ 0] J. W. Furness, A. D. Kaplan, J. Ning, J. P. Perdew, and J. Sun.,  J. Phys. Chem. Lett. 11, 8208-8215 (2020), doi: 10.1021/acs.jpclett.0c02405
    [ 1] J. W. Furness, A. D. Kaplan, J. Ning, J. P. Perdew, and J. Sun.,  J. Phys. Chem. Lett. 11, 9248-9248 (2020), doi: 10.1021/acs.jpclett.0c03077
  Functional external parameters        .... 1
    Parameter  0 _eta       =  1.000000e-03 : Regularization parameter
 Gradients option       PostSCFGGA      .... off
 RI-approximation to the Coulomb term is turned on
   Number of AuxJ basis functions       .... 524


General Settings:
 Integral files         IntName         .... sp_gas
 Hartree-Fock type      HFTyp           .... RHF
 Total Charge           Charge          ....    0
 Multiplicity           Mult            ....    1
 Number of Electrons    NEL             ....   64
 Basis Dimension        Dim             ....  222
 Nuclear Repulsion      ENuc            ....    397.2594846722 Eh

Convergence Acceleration:
 AO-DIIS                CNVDIIS         .... on
   Start iteration      DIISMaxIt       ....    12
   Startup error        DIISStart       ....  0.200000
   # of expansion vecs  DIISMaxEq       ....     5
   Bias factor          DIISBfac        ....   1.050
   Max. coefficient     DIISMaxC        ....  10.000
 MO-DIIS                CNVKDIIS        .... off
 Trust-Rad. Augm. Hess. CNVTRAH         .... auto
   Auto Start mean grad. ratio tolernc. ....  1.125000
   Auto Start start iteration           ....     1
   Auto Start num. interpolation iter.  ....    10
   Max. Number of Micro iterations      ....    24
   Max. Number of Macro iterations      .... Maxiter - #DIIS iter
   Number of Davidson start vectors     ....     2
   Converg. threshold    (grad. norm)   ....   3.330e-04
   Grad. Scal. Fac. for Micro threshold ....   0.100
   Minimum threshold for Micro iter.    ....   1.000e-02
   NR start threshold (gradient norm)   ....   1.000e-04
   Initial trust radius                 ....   0.400
   Minimum AH scaling param. (alpha)    ....   1.000
   Maximum AH scaling param. (alpha)    .... 1000.000
   Quad. conv. algorithm                .... NR
   White noise on init. David. guess    .... on
   Maximum white noise                  ....   0.010
   Pseudo random numbers                .... off
   Inactive MOs                         .... canonical
   Orbital update algorithm             .... Taylor
   Preconditioner                       .... Diag
   Full preconditioner red. dimension   ....   250
   COSX micro iterations for RIJONX calc.... off
 SOSCF                  CNVSOSCF        .... on
   Start iteration      SOSCFMaxIt      ....   150
   Startup grad/error   SOSCFStart      ....  0.003300
   Hessian update       SOSCFHessUp     .... L-BFGS
 Level Shifting         CNVShift        .... on
   Level shift para.    LevelShift      ....    0.2500
   Turn off err/grad.   ShiftErr        ....    0.0010
 Zerner damping         CNVZerner       .... off
 Static damping         CNVDamp         .... on
   Fraction old density DampFac         ....    0.7000
   Max. Damping (<1)    DampMax         ....    0.9800
   Min. Damping (>=0)   DampMin         ....    0.0000
   Turn off err/grad.   DampErr         ....    0.1000

SCF Procedure:
 Maximum # iterations   MaxIter         ....   125
 SCF integral mode      SCFMode         .... Direct
   Integral package                     .... SHARK and LIBINT hybrid scheme
 Reset frequency        DirectResetFreq ....    20
 Integral Threshold     Thresh          ....  1.000e-10 Eh
 Primitive CutOff       TCut            ....  1.000e-11 Eh

Convergence Tolerance:
 Convergence Check Mode ConvCheckMode   .... Total+1el-Energy
 Convergence forced     ConvForced      .... 0
 Energy Change          TolE            ....  1.000e-06 Eh
 1-El. energy change                    ....  1.000e-03 Eh
 Orbital Gradient       TolG            ....  3.330e-04
 Orbital Rotation angle TolX            ....  3.330e-04
 DIIS Error             TolErr          ....  1.000e-06

---------------------
INITIAL GUESS: MOREAD
---------------------
Guess MOs are being read from file: sp_gas.ges
Input Geometry matches current geometry (good)
Atom 0: N(Shells)= 9 and 6 - projection required
Input basis set needs projection
NBasis(read)= 136
NBasis(calc)= 222
Basis set overlap was calculated
Using GuessMode=FMatrix for the initial guess
C*T matrix was formed
Effective Fockian was calculated
Effective Fockian was diagonalized
Initial density was built
                      ------------------
                      INITIAL GUESS DONE (   0.1 sec)
                      ------------------
             **** ENERGY FILE WAS UPDATED (sp_gas.en.tmp) ****
Finished Guess after   0.3 sec
Maximum memory used throughout the entire GUESS-calculation: 15.2 MB

-------------------------------------------------------------------------------------------
                                      ORCA LEAN-SCF
                              memory conserving SCF solver
-------------------------------------------------------------------------------------------

----------------------------------------D-I-I-S--------------------------------------------
Iteration    Energy (Eh)           Delta-E    RMSDP     MaxDP     DIISErr   Damp  Time(sec)
-------------------------------------------------------------------------------------------
               ***  Starting incremental Fock matrix formation  ***
    1    -386.0474624189607198     0.00e+00  3.48e-03  1.29e-01  6.27e-01  0.700   4.5
    2    -386.1059606849793795    -5.85e-02  2.85e-03  8.55e-02  4.40e-01  0.700   3.6
    3    -386.1473191263875719    -4.14e-02  2.10e-03  6.04e-02  3.09e-01  0.700   2.8
    4    -386.1763561340576985    -2.90e-02  1.51e-03  4.26e-02  2.16e-01  0.700   2.8
                               ***Turning on AO-DIIS***
    5    -386.1967234008560013    -2.04e-02  1.09e-03  3.08e-02  1.51e-01  0.700   2.8
    6    -386.2110002316762234    -1.43e-02  7.74e-04  2.18e-02  1.06e-01  0.700   3.1
    7    -386.2210080589711083    -1.00e-02  5.46e-04  1.53e-02  7.41e-02  0.700   2.7
    8    -386.2280196951944049    -7.01e-03  1.28e-03  3.57e-02  5.19e-02  0.000   2.6
                              *** Initializing SOSCF ***
---------------------------------------S-O-S-C-F--------------------------------------
Iteration    Energy (Eh)           Delta-E    RMSDP     MaxDP     MaxGrad    Time(sec)
--------------------------------------------------------------------------------------
    9    -386.2444013298647292    -1.64e-02  8.30e-06  2.78e-04  7.40e-05     2.7
                  *** Gradient check signals convergence ***

               *****************************************************
               *                     SUCCESS                       *
               *           SCF CONVERGED AFTER   9 CYCLES          *
               *****************************************************

             **** ENERGY FILE WAS UPDATED (sp_gas.en.tmp) ****

----------------
TOTAL SCF ENERGY
----------------

Total Energy       :       -386.24440132986473 Eh          -10510.24449 eV

Components:
Nuclear Repulsion  :        397.25948467217137 Eh           10809.98015 eV
Electronic Energy  :       -783.50388600203610 Eh          -21320.22464 eV
One Electron Energy:      -1311.59482969649093 Eh          -35690.30978 eV
Two Electron Energy:        528.09094369445484 Eh           14370.08514 eV

Virial components:
Potential Energy   :       -770.89353387425376 Eh          -20977.07951 eV
Kinetic Energy     :        384.64913254438909 Eh           10466.83502 eV
Virial Ratio       :          2.00414733493593

DFT components:
N(Alpha)           :       32.000019443540 electrons
N(Beta)            :       32.000019443540 electrons
N(Total)           :       64.000038887079 electrons
E(X)               :      -52.081107993395 Eh       
E(C)               :       -2.038714211794 Eh       
E(XC)              :      -54.119822205189 Eh       

---------------
SCF CONVERGENCE
---------------

  Last Energy change         ...    1.6382e-02  Tolerance :   1.0000e-06
  Last MAX-Density change    ...    2.7834e-04  Tolerance :   1.0000e-05
  Last RMS-Density change    ...    8.2955e-06  Tolerance :   1.0000e-06
  Last DIIS Error            ...    7.3971e-05  Tolerance :   1.0000e-06
  Last Orbital Gradient      ...    7.3971e-05  Tolerance :   3.3300e-04
  Last Orbital Rotation      ...    7.3971e-05  Tolerance :   3.3300e-04


----------------
ORBITAL ENERGIES
----------------

  NO   OCC          E(Eh)            E(eV) 
   0   2.0000     -18.997639      -516.9520 
   1   2.0000     -18.927946      -515.0556 
   2   2.0000     -10.155863      -276.3551 
   3   2.0000     -10.086425      -274.4656 
   4   2.0000     -10.046217      -273.3715 
   5   2.0000     -10.039620      -273.1919 
   6   2.0000     -10.020860      -272.6815 
   7   2.0000     -10.020353      -272.6677 
   8   2.0000      -1.073637       -29.2151 
   9   2.0000      -0.975347       -26.5405 
  10   2.0000      -0.785055       -21.3624 
  11   2.0000      -0.727170       -19.7873 
  12   2.0000      -0.661890       -18.0110 
  13   2.0000      -0.656757       -17.8713 
  14   2.0000      -0.566773       -15.4227 
  15   2.0000      -0.515592       -14.0300 
  16   2.0000      -0.464481       -12.6392 
  17   2.0000      -0.461861       -12.5679 
  18   2.0000      -0.440250       -11.9798 
  19   2.0000      -0.419614       -11.4183 
  20   2.0000      -0.411277       -11.1914 
  21   2.0000      -0.402064       -10.9407 
  22   2.0000      -0.377441       -10.2707 
  23   2.0000      -0.369582       -10.0568 
  24   2.0000      -0.354547        -9.6477 
  25   2.0000      -0.342835        -9.3290 
  26   2.0000      -0.332674        -9.0525 
  27   2.0000      -0.310890        -8.4598 
  28   2.0000      -0.308469        -8.3939 
  29   2.0000      -0.298211        -8.1147 
  30   2.0000      -0.270734        -7.3670 
  31   2.0000      -0.235631        -6.4119 
  32   0.0000      -0.013826        -0.3762 
  33   0.0000       0.063189         1.7195 
  34   0.0000       0.089497         2.4353 
  35   0.0000       0.104810         2.8520 
  36   0.0000       0.127815         3.4780 
  37   0.0000       0.129981         3.5370 
  38   0.0000       0.138200         3.7606 
  39   0.0000       0.139950         3.8082 
  40   0.0000       0.147083         4.0023 
  41   0.0000       0.155918         4.2427 
  42   0.0000       0.162780         4.4295 
*Only the first 10 virtual orbitals were printed.

                    ********************************
                    * MULLIKEN POPULATION ANALYSIS *
                    ********************************

-----------------------
MULLIKEN ATOMIC CHARGES
-----------------------
   0 C :   -0.505225
   1 C :    0.018402
   2 C :   -0.500869
   3 C :   -0.200527
   4 O :   -0.174583
   5 C :    0.421655
   6 O :   -0.429795
   7 C :   -0.527727
   8 H :    0.164523
   9 H :    0.144063
  10 H :    0.145637
  11 H :    0.144965
  12 H :    0.147582
  13 H :    0.159654
  14 H :    0.148405
  15 H :    0.151097
  16 H :    0.179838
  17 H :    0.169035
  18 H :    0.165649
  19 H :    0.178221
Sum of atomic charges:   -0.0000000

--------------------------------
MULLIKEN REDUCED ORBITAL CHARGES
--------------------------------
  0 C s       :     3.334931  s :     3.334931
      pz      :     0.957180  p :     3.143575
      px      :     1.092949
      py      :     1.093446
      dz2     :     0.006465  d :     0.026718
      dxz     :     0.004479
      dyz     :     0.007160
      dx2y2   :     0.003527
      dxy     :     0.005088

  1 C s       :     3.031735  s :     3.031735
      pz      :     0.949180  p :     2.903993
      px      :     0.978701
      py      :     0.976112
      dz2     :     0.010711  d :     0.045870
      dxz     :     0.007594
      dyz     :     0.010378
      dx2y2   :     0.006603
      dxy     :     0.010584

  2 C s       :     3.332118  s :     3.332118
      pz      :     1.058801  p :     3.142033
      px      :     1.100695
      py      :     0.982537
      dz2     :     0.007238  d :     0.026718
      dxz     :     0.002451
      dyz     :     0.005513
      dx2y2   :     0.004215
      dxy     :     0.007301

  3 C s       :     3.302668  s :     3.302668
      pz      :     1.077661  p :     2.844229
      px      :     0.834111
      py      :     0.932457
      dz2     :     0.009705  d :     0.053630
      dxz     :     0.009451
      dyz     :     0.009117
      dx2y2   :     0.011784
      dxy     :     0.013573

  4 O s       :     3.703723  s :     3.703723
      pz      :     1.688250  p :     4.439771
      px      :     1.121159
      py      :     1.630362
      dz2     :     0.001607  d :     0.031090
      dxz     :     0.004631
      dyz     :     0.008007
      dx2y2   :     0.009705
      dxy     :     0.007140

  5 C s       :     3.112249  s :     3.112249
      pz      :     0.777327  p :     2.340782
      px      :     0.798560
      py      :     0.764894
      dz2     :     0.021019  d :     0.125315
      dxz     :     0.028528
      dyz     :     0.013937
      dx2y2   :     0.030635
      dxy     :     0.031195

  6 O s       :     3.842320  s :     3.842320
      pz      :     1.391136  p :     4.567410
      px      :     1.771706
      py      :     1.404567
      dz2     :     0.006952  d :     0.020065
      dxz     :     0.002526
      dyz     :     0.004767
      dx2y2   :     0.002340
      dxy     :     0.003481

  7 C s       :     3.346727  s :     3.346727
      pz      :     1.076190  p :     3.156362
      px      :     1.053677
      py      :     1.026495
      dz2     :     0.006105  d :     0.024638
      dxz     :     0.004044
      dyz     :     0.003268
      dx2y2   :     0.005320
      dxy     :     0.005901

  8 H s       :     0.817179  s :     0.817179
      pz      :     0.005011  p :     0.018298
      px      :     0.007087
      py      :     0.006200

  9 H s       :     0.837659  s :     0.837659
      pz      :     0.005720  p :     0.018278
      px      :     0.003728
      py      :     0.008830

 10 H s       :     0.836031  s :     0.836031
      pz      :     0.003627  p :     0.018332
      px      :     0.009474
      py      :     0.005232

 11 H s       :     0.837548  s :     0.837548
      pz      :     0.004636  p :     0.017487
      px      :     0.006615
      py      :     0.006236

 12 H s       :     0.834166  s :     0.834166
      pz      :     0.010247  p :     0.018253
      px      :     0.004243
      py      :     0.003762

 13 H s       :     0.822039  s :     0.822039
      pz      :     0.004751  p :     0.018307
      px      :     0.006939
      py      :     0.006617

 14 H s       :     0.833258  s :     0.833258
      pz      :     0.003652  p :     0.018337
      px      :     0.009541
      py      :     0.005143

 15 H s       :     0.831543  s :     0.831543
      pz      :     0.005250  p :     0.017359
      px      :     0.002849
      py      :     0.009261

 16 H s       :     0.802345  s :     0.802345
      pz      :     0.010698  p :     0.017817
      px      :     0.003772
      py      :     0.003347

 17 H s       :     0.812346  s :     0.812346
      pz      :     0.010939  p :     0.018619
      px      :     0.003627
      py      :     0.004053

 18 H s       :     0.815845  s :     0.815845
      pz      :     0.003877  p :     0.018507
      px      :     0.004310
      py      :     0.010319

 19 H s       :     0.803788  s :     0.803788
      pz      :     0.004484  p :     0.017991
      px      :     0.010189
      py      :     0.003318


------------------------
MULLIKEN OVERLAP CHARGES
------------------------
B(  0-C ,  1-C ) :   0.4477 B(  0-C ,  2-C ) :  -0.2231 B(  0-C ,  3-C ) :  -0.1843 
B(  0-C ,  8-H ) :   0.8708 B(  0-C ,  9-H ) :   0.7881 B(  0-C , 10-H ) :   0.7992 
B(  1-C ,  2-C ) :   0.5754 B(  1-C ,  3-C ) :   0.5161 B(  1-C ,  4-O ) :  -0.1827 
B(  1-C ,  8-H ) :  -0.0993 B(  1-C ,  9-H ) :  -0.0593 B(  1-C , 10-H ) :  -0.0792 
B(  1-C , 11-H ) :   0.8138 B(  1-C , 12-H ) :  -0.0722 B(  1-C , 13-H ) :  -0.0993 
B(  1-C , 14-H ) :  -0.0807 B(  1-C , 16-H ) :  -0.0825 B(  2-C ,  3-C ) :  -0.2688 
B(  2-C , 12-H ) :   0.7970 B(  2-C , 13-H ) :   0.8620 B(  2-C , 14-H ) :   0.8106 
B(  3-C ,  4-O ) :   0.1845 B(  3-C ,  5-C ) :  -0.2143 B(  3-C , 11-H ) :  -0.1041 
B(  3-C , 15-H ) :   0.7473 B(  3-C , 16-H ) :   0.8371 B(  4-O ,  5-C ) :   0.3574 
B(  4-O ,  6-O ) :  -0.2297 B(  4-O ,  7-C ) :  -0.0571 B(  4-O , 15-H ) :  -0.0648 
B(  4-O , 16-H ) :  -0.0585 B(  5-C ,  6-O ) :   0.9955 B(  5-C ,  7-C ) :   0.5184 
B(  5-C , 18-H ) :  -0.0581 B(  5-C , 19-H ) :  -0.1145 B(  6-O ,  7-C ) :  -0.1154 
B(  7-C , 17-H ) :   0.7773 B(  7-C , 18-H ) :   0.7996 B(  7-C , 19-H ) :   0.8751 



                     *******************************
                     * LOEWDIN POPULATION ANALYSIS *
                     *******************************

----------------------
LOEWDIN ATOMIC CHARGES
----------------------
   0 C :   -0.408259
   1 C :   -0.220468
   2 C :   -0.407577
   3 C :    0.044011
   4 O :   -0.607074
   5 C :    0.353838
   6 O :   -0.431529
   7 C :   -0.336460
   8 H :    0.163303
   9 H :    0.155051
  10 H :    0.153495
  11 H :    0.163198
  12 H :    0.156688
  13 H :    0.161851
  14 H :    0.154081
  15 H :    0.181306
  16 H :    0.194182
  17 H :    0.179148
  18 H :    0.176223
  19 H :    0.174991

-------------------------------
LOEWDIN REDUCED ORBITAL CHARGES
-------------------------------
  0 C s       :     2.967226  s :     2.967226
      pz      :     1.077654  p :     3.378036
      px      :     1.145027
      py      :     1.155355
      dz2     :     0.015267  d :     0.062996
      dxz     :     0.009739
      dyz     :     0.016442
      dx2y2   :     0.008739
      dxy     :     0.012810

  1 C s       :     2.905753  s :     2.905753
      pz      :     1.079105  p :     3.221133
      px      :     1.053381
      py      :     1.088647
      dz2     :     0.021879  d :     0.093583
      dxz     :     0.014568
      dyz     :     0.021306
      dx2y2   :     0.013036
      dxy     :     0.022792

  2 C s       :     2.967052  s :     2.967052
      pz      :     1.126649  p :     3.377593
      px      :     1.153721
      py      :     1.097223
      dz2     :     0.017091  d :     0.062933
      dxz     :     0.005645
      dyz     :     0.012997
      dx2y2   :     0.010142
      dxy     :     0.017058

  3 C s       :     2.858973  s :     2.858973
      pz      :     1.062804  p :     2.976211
      px      :     0.935101
      py      :     0.978305
      dz2     :     0.023333  d :     0.120806
      dxz     :     0.018738
      dyz     :     0.021685
      dx2y2   :     0.026628
      dxy     :     0.030421

  4 O s       :     3.454561  s :     3.454561
      pz      :     1.682251  p :     4.662124
      px      :     1.331645
      py      :     1.648229
      dz2     :     0.075523  d :     0.490388
      dxz     :     0.104107
      dyz     :     0.051460
      dx2y2   :     0.134794
      dxy     :     0.124503

  5 C s       :     2.736292  s :     2.736292
      pz      :     0.835634  p :     2.637082
      px      :     0.907117
      py      :     0.894332
      dz2     :     0.039561  d :     0.272788
      dxz     :     0.062861
      dyz     :     0.035425
      dx2y2   :     0.067297
      dxy     :     0.067645

  6 O s       :     3.552712  s :     3.552712
      pz      :     1.453504  p :     4.665525
      px      :     1.721274
      py      :     1.490747
      dz2     :     0.033606  d :     0.213292
      dxz     :     0.035501
      dyz     :     0.059185
      dx2y2   :     0.045003
      dxy     :     0.039996

  7 C s       :     2.957593  s :     2.957593
      pz      :     1.123901  p :     3.321908
      px      :     1.103155
      py      :     1.094852
      dz2     :     0.015377  d :     0.056959
      dxz     :     0.008754
      dyz     :     0.006599
      dx2y2   :     0.014132
      dxy     :     0.012096

  8 H s       :     0.792420  s :     0.792420
      pz      :     0.011790  p :     0.044276
      px      :     0.017422
      py      :     0.015064

  9 H s       :     0.801388  s :     0.801388
      pz      :     0.013431  p :     0.043561
      px      :     0.008193
      py      :     0.021937

 10 H s       :     0.802763  s :     0.802763
      pz      :     0.008169  p :     0.043742
      px      :     0.023433
      py      :     0.012140

 11 H s       :     0.793560  s :     0.793560
      pz      :     0.011456  p :     0.043242
      px      :     0.016255
      py      :     0.015531

 12 H s       :     0.799752  s :     0.799752
      pz      :     0.025421  p :     0.043560
      px      :     0.009523
      py      :     0.008616

 13 H s       :     0.793967  s :     0.793967
      pz      :     0.011157  p :     0.044182
      px      :     0.016895
      py      :     0.016130

 14 H s       :     0.802147  s :     0.802147
      pz      :     0.008068  p :     0.043772
      px      :     0.023779
      py      :     0.011924

 15 H s       :     0.777987  s :     0.777987
      pz      :     0.012914  p :     0.040707
      px      :     0.006630
      py      :     0.021163

 16 H s       :     0.762864  s :     0.762864
      pz      :     0.025741  p :     0.042954
      px      :     0.009621
      py      :     0.007591

 17 H s       :     0.776247  s :     0.776247
      pz      :     0.027321  p :     0.044605
      px      :     0.007957
      py      :     0.009327

 18 H s       :     0.779313  s :     0.779313
      pz      :     0.008828  p :     0.044463
      px      :     0.010195
      py      :     0.025441

 19 H s       :     0.781455  s :     0.781455
      pz      :     0.010647  p :     0.043554
      px      :     0.025560
      py      :     0.007346


---------------------------------
LOEWDIN BOND ORDERS (THRESH 0.050000)
---------------------------------
B(  0-C ,  1-C ) :   1.1066 B(  0-C ,  2-C ) :   0.0710 B(  0-C ,  3-C ) :   0.0679 
B(  0-C ,  8-H ) :   0.9155 B(  0-C ,  9-H ) :   0.9236 B(  0-C , 10-H ) :   0.9231 
B(  1-C ,  2-C ) :   1.1070 B(  1-C ,  3-C ) :   1.0194 B(  1-C ,  4-O ) :   0.1514 
B(  1-C , 11-H ) :   0.8528 B(  2-C ,  3-C ) :   0.0660 B(  2-C , 12-H ) :   0.9228 
B(  2-C , 13-H ) :   0.9157 B(  2-C , 14-H ) :   0.9233 B(  3-C ,  4-O ) :   1.2884 
B(  3-C ,  5-C ) :   0.0871 B(  3-C ,  6-O ) :   0.0738 B(  3-C , 15-H ) :   0.8203 
B(  3-C , 16-H ) :   0.8055 B(  4-O ,  5-C ) :   1.4527 B(  4-O ,  6-O ) :   0.4612 
B(  4-O ,  7-C ) :   0.1845 B(  4-O , 15-H ) :   0.0951 B(  4-O , 16-H ) :   0.0918 
B(  5-C ,  6-O ) :   2.1760 B(  5-C ,  7-C ) :   0.9741 B(  6-O ,  7-C ) :   0.1831 
B(  7-C , 17-H ) :   0.8982 B(  7-C , 18-H ) :   0.9007 B(  7-C , 19-H ) :   0.9090 


------------------------------------------
LOEWDIN REDUCED ORBITAL POPULATIONS PER MO
-------------------------------------------
THRESHOLD FOR PRINTING IS 0.1%%
                      0         1         2         3         4         5   
                 -18.99764 -18.92795 -10.15586 -10.08642 -10.04622 -10.03962
                   2.00000   2.00000   2.00000   2.00000   2.00000   2.00000
                  --------  --------  --------  --------  --------  --------
 1 C  s               0.0       0.0       0.0       0.0      99.6       0.0
 3 C  s               0.0       0.0       0.0      99.4       0.0       0.0
 4 O  s              99.9       0.0       0.0       0.0       0.0       0.0
 4 O  px              0.0       0.0       0.1       0.1       0.0       0.0
 4 O  dx2y2           0.0       0.0       0.2       0.0       0.0       0.0
 4 O  dxy             0.0       0.0       0.0       0.1       0.0       0.0
 5 C  s               0.0       0.0      98.9       0.0       0.0       0.0
 6 O  s               0.0      99.9       0.0       0.0       0.0       0.0
 6 O  py              0.0       0.0       0.1       0.0       0.0       0.0
 6 O  dyz             0.0       0.0       0.2       0.0       0.0       0.0
 7 C  s               0.0       0.0       0.0       0.0       0.0      99.7

                      6         7         8         9        10        11   
                 -10.02086 -10.02035  -1.07364  -0.97535  -0.78505  -0.72717
                   2.00000   2.00000   2.00000   2.00000   2.00000   2.00000
                  --------  --------  --------  --------  --------  --------
 0 C  s               0.0      99.7       0.0       0.0      10.2       3.2
 0 C  pz              0.0       0.0       0.0       0.0       2.8       0.3
 0 C  px              0.0       0.0       0.1       0.1       0.4       0.0
 1 C  s               0.0       0.0       0.3       0.2      25.6       3.1
 1 C  pz              0.0       0.1       0.0       0.0       0.1       0.0
 1 C  px              0.0       0.0       0.7       0.3       0.4       0.9
 1 C  py              0.1       0.0       0.0       0.0       0.2       0.7
 2 C  s              99.7       0.0       0.0       0.0      10.0       3.4
 2 C  pz              0.0       0.0       0.0       0.0       1.0       0.1
 2 C  py              0.0       0.0       0.1       0.0       2.2       0.1
 3 C  s               0.0       0.0       4.5       1.7      10.7       1.7
 3 C  pz              0.0       0.0       0.6       0.4       0.0       0.1
 3 C  px              0.0       0.0       3.5       0.5       4.0       1.4
 3 C  py              0.0       0.0       1.6       0.8       0.6       0.2
 3 C  dxz             0.0       0.0       0.1       0.0       0.0       0.0
 3 C  dxy             0.0       0.0       0.2       0.1       0.1       0.1
 4 O  s               0.0       0.0      42.7      14.9       0.6       0.6
 4 O  pz              0.0       0.0       0.8       0.1       0.2       0.3
 4 O  px              0.0       0.0       1.2       0.9       6.1       5.8
 4 O  py              0.0       0.0       0.9       0.1       0.7       1.5
 4 O  dz2             0.0       0.0       0.2       0.0       0.1       0.3
 4 O  dxz             0.0       0.0       0.1       0.6       0.2       0.0
 4 O  dyz             0.0       0.0       0.1       0.1       0.1       0.1
 4 O  dx2y2           0.0       0.0       0.4       0.1       0.1       1.1
 4 O  dxy             0.0       0.0       0.0       0.6       0.2       0.1
 5 C  s               0.0       0.0      16.0       4.5       1.2       5.2
 5 C  pz              0.0       0.0       0.1       7.0       1.1       4.1
 5 C  px              0.0       0.0       4.5       8.5       0.6       2.7
 5 C  py              0.0       0.0       0.5       7.4       1.3       7.4
 5 C  dz2             0.0       0.0       0.1       0.1       0.0       0.0
 5 C  dxz             0.0       0.0       0.3       0.0       0.0       0.1
 5 C  dyz             0.0       0.0       0.3       0.9       0.0       0.0
 5 C  dx2y2           0.0       0.0       0.3       0.8       0.1       0.0
 5 C  dxy             0.0       0.0       0.1       0.1       0.0       0.1
 6 O  s               0.0       0.0      11.1      43.3       0.7       1.7
 6 O  pz              0.0       0.0       1.1       1.5       0.1       0.3
 6 O  px              0.0       0.0       0.6       0.2       0.0       0.1
 6 O  py              0.0       0.0       1.3       2.1       0.1       0.5
 6 O  dxz             0.0       0.0       0.4       0.1       0.0       0.0
 6 O  dyz             0.0       0.0       0.5       0.1       0.1       0.6
 6 O  dx2y2           0.0       0.0       0.0       0.1       0.1       0.4
 6 O  dxy             0.0       0.0       0.4       0.0       0.0       0.0
 7 C  s               0.0       0.0       1.1       0.3       1.5      28.5
 7 C  pz              0.0       0.0       0.3       0.2       0.0       0.1
 7 C  px              0.0       0.0       1.0       0.0       0.3       0.5
 7 C  py              0.0       0.0       0.7       0.3       0.0       0.2
 8 H  s               0.0       0.0       0.0       0.0       1.3       0.5
 9 H  s               0.0       0.0       0.0       0.0       1.3       0.5
10 H  s               0.0       0.0       0.0       0.0       1.3       0.6
11 H  s               0.0       0.0       0.0       0.0       3.4       0.6
11 H  px              0.0       0.0       0.0       0.0       0.1       0.0
11 H  py              0.0       0.0       0.0       0.0       0.1       0.0
12 H  s               0.0       0.0       0.0       0.0       1.2       0.5
13 H  s               0.0       0.0       0.0       0.0       1.3       0.5
14 H  s               0.0       0.0       0.0       0.0       1.3       0.6
15 H  s               0.0       0.0       0.3       0.1       1.4       0.3
16 H  s               0.0       0.0       0.3       0.1       1.3       0.3
16 H  pz              0.0       0.0       0.0       0.0       0.1       0.0
17 H  s               0.0       0.0       0.1       0.0       0.2       5.4
17 H  pz              0.0       0.0       0.0       0.0       0.0       0.5
18 H  s               0.0       0.0       0.1       0.0       0.3       5.5
18 H  py              0.0       0.0       0.0       0.0       0.0       0.4
19 H  s               0.0       0.0       0.1       0.0       0.2       4.8
19 H  px              0.0       0.0       0.0       0.0       0.0       0.4

                     12        13        14        15        16        17   
                  -0.66189  -0.65676  -0.56677  -0.51559  -0.46448  -0.46186
                   2.00000   2.00000   2.00000   2.00000   2.00000   2.00000
                  --------  --------  --------  --------  --------  --------
 0 C  s               2.8      25.7       2.5       2.3       0.1       0.2
 0 C  pz              0.0       0.8       2.7       5.0       0.1       1.1
 0 C  px              0.3       0.0       0.0       0.6       2.7       0.5
 0 C  py              0.3       0.1       1.1       0.1       0.1       0.8
 0 C  dz2             0.0       0.0       0.1       0.1       0.0       0.0
 1 C  s               0.1       0.0       7.9       6.3       0.2       0.1
 1 C  pz              0.0      13.5       1.6       0.0       1.4       0.0
 1 C  px              4.3       1.1       0.2       0.4       3.0       6.3
 1 C  py              5.9       1.6       6.7       0.0       0.0       0.8
 1 C  dz2             0.1       0.2       0.0       0.0       0.0       0.0
 1 C  dyz             0.0       0.2       0.0       0.0       0.0       0.0
 1 C  dx2y2           0.1       0.0       0.0       0.0       0.0       0.0
 2 C  s               9.3      18.9       3.0       2.0       0.2       0.2
 2 C  pz              0.0       0.7       0.1       1.7       0.0       0.2
 2 C  px              0.2       0.1       0.1       0.0       0.4       4.6
 2 C  py              0.3       0.1       3.9       3.6       1.3       0.1
 3 C  s              15.7       0.4       0.6       5.2       0.2       0.1
 3 C  pz              0.0       1.0       2.6       3.1       8.3       7.9
 3 C  px              0.1       0.0       7.1       1.8       1.7       0.3
 3 C  py              0.7       0.1       2.5      13.7       0.3       6.4
 3 C  dz2             0.0       0.0       0.0       0.1       0.0       0.0
 3 C  dyz             0.0       0.0       0.1       0.1       0.0       0.0
 3 C  dxy             0.0       0.0       0.3       0.0       0.0       0.0
 4 O  s               0.9       0.0       1.5       4.2       0.1       0.2
 4 O  pz              0.2       0.2       0.1       1.9      10.1      10.7
 4 O  px              9.6       0.2      19.2       7.1       0.9       0.6
 4 O  py              1.7       0.0       0.5       4.3       0.0       9.7
 4 O  dz2             0.2       0.0       0.1       0.0       0.9       0.1
 4 O  dxz             0.5       0.2       0.0       0.0       0.0       0.0
 4 O  dyz             0.3       0.0       0.0       0.3       0.4       0.0
 4 O  dx2y2           0.0       0.0       0.2       0.2       0.8       0.8
 4 O  dxy             1.7       0.0       0.1       0.3       0.0       0.0
 5 C  s               0.5       0.0       2.8       1.2       2.7       1.0
 5 C  pz              0.1       0.0       0.5       0.2       4.1       5.3
 5 C  px              4.9       0.1       2.4       1.0       8.8       0.9
 5 C  py              0.2       0.0       0.4       0.1       0.2       7.1
 5 C  dxz             0.2       0.0       0.0       0.0       0.0       0.1
 5 C  dxy             0.2       0.0       0.0       0.1       0.0       0.0
 6 O  s               0.0       0.0       0.8       1.6       1.6       1.0
 6 O  pz              0.0       0.0       0.3       0.5       5.6       0.3
 6 O  px              0.2       0.0       0.6       1.8       3.0       0.0
 6 O  py              0.0       0.0       0.3       0.2       2.3       6.6
 6 O  dz2             0.0       0.0       0.0       0.0       0.4       0.4
 6 O  dxz             0.1       0.0       0.1       0.1       0.0       0.2
 6 O  dyz             0.0       0.0       0.1       0.0       0.4       0.1
 6 O  dx2y2           0.0       0.0       0.0       0.1       0.4       0.3
 6 O  dxy             0.2       0.0       0.2       0.0       0.2       0.1
 7 C  s              10.9       0.2       2.5       0.1       1.6       0.3
 7 C  pz              0.0       0.0       0.3       0.0       2.2       8.5
 7 C  px              0.6       0.0       2.1       0.3       2.7       1.1
 7 C  py              0.1       0.0       0.6       0.2      13.8       0.1
 7 C  dyz             0.0       0.0       0.0       0.0       0.1       0.1
 7 C  dxy             0.0       0.0       0.1       0.0       0.2       0.0
 8 H  s               0.5       5.7       2.0       1.2       0.2       1.0
 8 H  px              0.0       0.2       0.1       0.1       0.0       0.0
 8 H  py              0.0       0.2       0.0       0.0       0.0       0.0
 9 H  s               0.5       6.6       0.8       1.9       0.0       0.0
 9 H  pz              0.0       0.1       0.0       0.0       0.0       0.0
 9 H  py              0.0       0.4       0.1       0.1       0.0       0.0
10 H  s               0.9       5.9       1.2       1.8       0.9       0.0
10 H  px              0.1       0.4       0.1       0.1       0.0       0.0
10 H  py              0.0       0.1       0.0       0.0       0.0       0.0
11 H  s               0.0       0.0       6.0       2.7       1.2       1.8
11 H  px              0.0       0.0       0.3       0.1       0.0       0.0
11 H  py              0.0       0.0       0.1       0.1       0.0       0.0
12 H  s               1.8       5.0       0.9       1.7       0.0       0.0
12 H  pz              0.1       0.4       0.0       0.1       0.0       0.0
13 H  s               2.0       4.2       2.2       1.1       0.7       0.3
13 H  px              0.1       0.1       0.1       0.0       0.0       0.0
13 H  py              0.1       0.1       0.0       0.0       0.0       0.0
14 H  s               2.5       4.2       1.4       1.5       0.0       1.7
14 H  px              0.2       0.3       0.1       0.1       0.0       0.0
15 H  s               4.3       0.0       0.4       6.4       2.1       3.2
15 H  pz              0.1       0.0       0.0       0.2       0.0       0.0
15 H  py              0.3       0.0       0.0       0.1       0.1       0.1
16 H  s               3.5       0.3       0.8       7.7       2.0       1.7
16 H  pz              0.3       0.0       0.0       0.4       0.0       0.0
17 H  s               2.7       0.1       1.0       0.0       1.4       4.0
17 H  pz              0.2       0.0       0.1       0.0       0.0       0.1
17 H  py              0.0       0.0       0.0       0.0       0.1       0.0
18 H  s               2.4       0.1       0.9       0.1       5.4       0.0
18 H  px              0.0       0.0       0.0       0.0       0.1       0.0
18 H  py              0.2       0.0       0.0       0.0       0.1       0.0
19 H  s               3.1       0.1       1.7       0.2       1.2       0.1
19 H  px              0.2       0.0       0.1       0.0       0.0       0.0

                     18        19        20        21        22        23   
                  -0.44025  -0.41961  -0.41128  -0.40206  -0.37744  -0.36958
                   2.00000   2.00000   2.00000   2.00000   2.00000   2.00000
                  --------  --------  --------  --------  --------  --------
 0 C  s               0.0       0.0       0.4       0.0       0.0       0.0
 0 C  pz              1.6       0.8       6.4       2.2       0.0       2.9
 0 C  px              2.8       5.0       2.7       4.9       1.0       2.2
 0 C  py              0.2       6.3       0.3      13.5       0.0      13.1
 0 C  dx2y2           0.0       0.0       0.0       0.1       0.0       0.0
 1 C  s               0.3       0.6       0.2       0.0       0.0       0.0
 1 C  pz              0.2       0.8       7.6       0.3       0.2       5.5
 1 C  px              5.5       5.7       0.0       2.2       0.2       0.4
 1 C  py              0.7       7.0       1.2       4.2       0.0       1.4
 2 C  s               0.1       0.2       0.0       0.2       0.0       0.0
 2 C  pz              0.4       8.4       8.5       6.4       0.5       3.7
 2 C  px              3.0       4.2       0.8       5.3       0.6       0.0
 2 C  py              0.8       0.4       4.4       0.1       0.3      13.7
 3 C  s               0.3       0.0       0.0       0.6       0.0       0.0
 3 C  pz              0.1       1.0       6.9       2.4       0.2       0.4
 3 C  px              5.2       0.2       0.0       2.5       0.3       0.0
 3 C  py              1.0       1.1       3.1       1.2       0.7       0.3
 3 C  dxy             0.1       0.2       0.0       0.0       0.0       0.0
 4 O  s               0.4       1.3       0.5       0.2       0.3       0.0
 4 O  pz              5.2       0.2       0.3       0.6       0.0       6.7
 4 O  px              1.7       1.9       0.7       0.5       3.7       0.2
 4 O  py             10.2       1.8       0.4       0.7       0.2       2.5
 4 O  dz2             0.0       0.0       0.3       0.0       0.1       0.1
 4 O  dxz             0.1       0.3       0.9       0.3       0.0       0.1
 4 O  dyz             0.0       0.1       0.0       0.1       0.0       0.0
 4 O  dx2y2           0.0       0.3       0.1       0.0       0.1       0.0
 4 O  dxy             0.3       0.9       0.3       0.3       0.2       0.0
 5 C  s               1.5       0.1       0.0       0.2       0.3       0.0
 5 C  pz              1.1       1.9       3.5       2.0       0.6       0.2
 5 C  px              1.3       1.4       1.2       2.2       1.6       0.0
 5 C  py              1.8       4.4       0.9       3.2       0.5       0.7
 5 C  dxz             0.1       0.0       0.0       0.0       0.0       0.2
 5 C  dx2y2           0.1       0.0       0.0       0.0       0.4       0.0
 5 C  dxy             0.2       0.0       0.0       0.0       0.0       0.0
 6 O  s              10.5       0.3       0.1       2.1       0.9       0.0
 6 O  pz             10.4       2.7       0.6       2.8       2.7       1.3
 6 O  px              1.6       2.5       1.5       4.8       1.1       0.0
 6 O  py             12.2       0.7       1.5       3.1       3.0       0.1
 6 O  dz2             0.0       0.2       0.2       0.0       0.0       0.0
 6 O  dxz             0.0       0.1       0.1       0.1       0.0       0.1
 6 O  dyz             0.3       0.0       0.0       0.1       0.1       0.0
 6 O  dx2y2           0.0       0.2       0.0       0.0       0.0       0.0
 6 O  dxy             0.0       0.0       0.0       0.1       0.1       0.0
 7 C  pz              1.6      12.0       5.0       0.6       7.0       6.5
 7 C  px              4.4       0.1       0.2       3.1      32.5       0.1
 7 C  py              2.6       0.8      11.4       3.0       5.2       6.1
 7 C  dz2             0.0       0.1       0.1       0.0       0.0       0.2
 7 C  dxz             0.0       0.0       0.0       0.0       0.2       0.0
 7 C  dx2y2           0.0       0.0       0.0       0.0       0.5       0.0
 8 H  s               0.8       2.0       0.1       0.0       0.2       7.7
 8 H  px              0.0       0.0       0.0       0.0       0.0       0.1
 9 H  s               0.4       3.0       2.0       6.0       0.0       2.4
 9 H  pz              0.0       0.0       0.0       0.1       0.0       0.1
10 H  s               0.7       0.5       1.3       5.3       0.4       0.1
10 H  px              0.0       0.0       0.0       0.1       0.0       0.0
11 H  s               0.9       3.5       0.8       0.0       0.0       0.0
12 H  s               0.5       2.2       4.3       4.2       0.1       2.9
12 H  pz              0.0       0.0       0.1       0.1       0.0       0.1
13 H  s               1.1       0.9       1.5       0.5       0.6       5.2
13 H  px              0.0       0.0       0.1       0.0       0.0       0.1
14 H  s               0.3       2.5       1.2       1.2       0.1       1.3
15 H  s               0.8       0.8       3.9       0.2       0.1       0.2
15 H  py              0.0       0.0       0.1       0.0       0.0       0.0
16 H  s               0.1       0.2       1.5       3.1       0.1       0.2
16 H  pz              0.0       0.0       0.0       0.1       0.0       0.0
17 H  s               0.3       5.8       3.2       0.2       2.1       4.9
17 H  pz              0.0       0.1       0.1       0.0       0.0       0.1
17 H  px              0.0       0.0       0.0       0.0       0.2       0.0
18 H  s               1.6       0.6       5.8       0.6       7.0       3.5
18 H  py              0.0       0.0       0.1       0.0       0.2       0.0
19 H  s               2.1       0.2       0.0       0.9      22.4       0.5
19 H  px              0.1       0.0       0.0       0.0       0.3       0.0

                     24        25        26        27        28        29   
                  -0.35455  -0.34284  -0.33267  -0.31089  -0.30847  -0.29821
                   2.00000   2.00000   2.00000   2.00000   2.00000   2.00000
                  --------  --------  --------  --------  --------  --------
 0 C  s               0.0       0.1       0.1       0.2       0.1       0.4
 0 C  pz              1.4       0.3       3.5       6.3       4.7      10.3
 0 C  px             20.0       3.5       0.1       4.5       3.9       2.0
 0 C  py              0.2       9.4       1.7       0.0       6.9       3.6
 0 C  dz2             0.0       0.1       0.0       0.0       0.0       0.2
 0 C  dxz             0.0       0.0       0.0       0.2       0.0       0.0
 0 C  dyz             0.0       0.1       0.0       0.0       0.6       0.0
 0 C  dxy             0.2       0.0       0.0       0.2       0.0       0.0
 1 C  s               0.0       0.3       0.1       0.1       0.1       0.0
 1 C  pz              0.0       0.9       1.5       8.0       5.2       6.6
 1 C  px              0.0       0.1       0.1      10.6       4.3       4.8
 1 C  py              0.1       3.2       1.0       0.2      12.4       6.1
 1 C  dz2             0.0       0.1       0.1       0.0       0.0       0.5
 1 C  dxz             0.2       0.0       0.0       0.2       0.0       0.1
 1 C  dyz             0.0       0.1       0.0       0.0       0.6       0.0
 1 C  dx2y2           0.0       0.0       0.0       0.2       0.1       0.0
 1 C  dxy             0.1       0.0       0.0       0.6       0.1       0.0
 2 C  s               0.0       0.1       0.0       0.1       0.8       0.0
 2 C  pz              0.8       0.1       7.0       7.1       7.6       1.6
 2 C  px             26.9       0.1       2.9       5.9       1.9       0.6
 2 C  py              0.0       2.1       4.4       0.1      12.2       2.7
 2 C  dz2             0.0       0.0       0.3       0.1       0.0       0.3
 2 C  dyz             0.0       0.0       0.0       0.0       0.2       0.0
 2 C  dxy             0.3       0.0       0.0       0.4       0.1       0.0
 3 C  s               0.0       0.2       0.0       0.7       0.1       0.5
 3 C  pz              0.2       0.1       7.9       0.0       1.1       5.2
 3 C  px              0.0       5.3       0.3       6.4       0.7       4.5
 3 C  py              0.0       2.2       0.7       3.3       0.4       4.8
 3 C  dz2             0.0       0.0       0.1       0.0       0.0       0.4
 3 C  dxz             0.0       0.0       0.0       0.1       0.0       0.1
 3 C  dyz             0.0       0.0       0.1       0.0       0.1       0.1
 3 C  dx2y2           0.0       0.1       0.0       0.0       0.1       0.3
 3 C  dxy             0.0       0.0       0.0       0.1       0.1       0.0
 4 O  s               0.0       2.1       0.6       0.1       0.0       1.2
 4 O  pz              1.1       3.7       4.4       0.4       1.7       7.5
 4 O  px              0.0       0.3       0.1       0.6       0.3       0.4
 4 O  py              1.4      16.5       1.0       0.8       0.4       8.2
 4 O  dz2             0.1       0.1       0.0       0.1       0.0       0.3
 4 O  dxz             0.3       0.2       0.4       0.2       0.0       0.0
 4 O  dyz             0.1       0.0       0.1       0.0       0.0       0.3
 4 O  dx2y2           0.1       0.3       0.0       0.7       0.0       0.7
 4 O  dxy             0.1       0.1       0.6       0.0       0.1       0.1
 5 C  s               0.0       0.2       0.0       0.0       0.0       0.2
 5 C  pz              0.8       4.7       2.6       0.6       0.8       0.3
 5 C  px              0.0       0.5       0.2       0.4       0.2       0.8
 5 C  py              0.5       1.7       4.4       0.7       0.1       0.5
 5 C  dz2             0.0       0.1       0.2       0.1       0.1       0.0
 5 C  dxz             0.0       0.2       0.1       0.0       0.1       0.1
 5 C  dx2y2           0.0       0.0       0.2       0.0       0.0       0.1
 5 C  dxy             0.0       0.5       0.1       0.0       0.0       0.2
 6 O  s               0.0       1.2       0.2       0.0       0.0       0.3
 6 O  pz              1.4       0.8      15.8       3.0       1.3       1.6
 6 O  px              0.1       1.3       0.0       0.1       0.2       0.1
 6 O  py              1.2      11.3       2.4       2.7       2.5       1.4
 6 O  dz2             0.0       0.0       0.2       0.1       0.0       0.0
 6 O  dxz             0.0       0.0       0.0       0.0       0.0       0.1
 6 O  dyz             0.0       0.1       0.0       0.0       0.0       0.0
 6 O  dxy             0.0       0.0       0.1       0.0       0.0       0.1
 7 C  s               0.0       0.2       0.0       0.0       0.0       0.1
 7 C  pz              2.3       4.5       2.1       0.2       0.3       0.1
 7 C  px              0.1       4.1       0.1       0.4       0.5       0.3
 7 C  py              1.6       0.2       3.8       0.3       0.0       0.2
 7 C  dz2             0.1       0.1       0.2       0.0       0.0       0.0
 8 H  s               7.0       0.4       0.0       4.2       3.9       0.7
 8 H  pz              0.0       0.0       0.0       0.0       0.1       0.1
 8 H  px              0.0       0.0       0.0       0.0       0.0       0.1
 8 H  py              0.1       0.1       0.0       0.0       0.0       0.0
 9 H  s               0.0       3.4       2.3       1.0       8.0       0.1
 9 H  pz              0.0       0.1       0.0       0.0       0.0       0.1
 9 H  px              0.2       0.0       0.0       0.0       0.0       0.0
10 H  s               7.2       5.1       0.5       3.7       0.2       2.5
10 H  pz              0.0       0.0       0.0       0.1       0.0       0.1
10 H  py              0.1       0.0       0.0       0.0       0.1       0.0
11 H  s               0.0       0.8       0.5       9.7       6.0       1.4
11 H  pz              0.0       0.0       0.0       0.0       0.2       0.0
11 H  px              0.0       0.0       0.0       0.0       0.0       0.2
11 H  py              0.0       0.0       0.0       0.1       0.0       0.0
12 H  s               0.2       0.1       7.0       2.0       2.6       2.6
12 H  pz              0.0       0.0       0.1       0.0       0.0       0.0
12 H  px              0.2       0.0       0.0       0.1       0.0       0.0
12 H  py              0.0       0.0       0.0       0.0       0.2       0.0
13 H  s               7.2       0.7       1.0       5.9       1.9       0.7
13 H  pz              0.1       0.0       0.0       0.0       0.1       0.0
13 H  py              0.2       0.0       0.0       0.1       0.0       0.0
14 H  s              11.3       0.1       3.5       3.8       0.1       1.4
14 H  py              0.1       0.0       0.0       0.0       0.1       0.0
15 H  s               0.1       1.8       3.0       0.6       1.9       0.2
16 H  s               0.2       0.1       3.3       0.1       0.4       8.0
17 H  s               1.8       2.1       2.7       0.3       0.2       0.0
18 H  s               1.3       0.4       2.5       0.1       0.1       0.0
19 H  s               0.0       0.6       0.2       0.3       0.1       0.1

                     30        31        32        33        34        35   
                  -0.27073  -0.23563  -0.01383   0.06319   0.08950   0.10481
                   2.00000   2.00000   0.00000   0.00000   0.00000   0.00000
                  --------  --------  --------  --------  --------  --------
 0 C  s               0.0       0.0       0.0       6.2       2.3       5.1
 0 C  pz              0.4       0.1       0.0       0.3       3.5       0.0
 0 C  px              0.1       0.1       0.0       0.3       0.7       1.8
 0 C  py              0.0       0.0       0.0       0.2       0.5       0.1
 0 C  dz2             0.0       0.0       0.0       0.1       0.4       0.1
 0 C  dyz             0.0       0.0       0.0       0.0       0.3       0.0
 0 C  dx2y2           0.0       0.0       0.0       0.1       0.1       0.0
 1 C  s               0.1       0.0       0.1       1.6       7.2       2.1
 1 C  pz              0.5       0.1       0.0       0.2       1.2       0.2
 1 C  px              1.1       0.1       0.1       1.7       1.8       3.1
 1 C  py              0.8       0.0       0.0       0.2       5.4       0.5
 1 C  dxz             0.0       0.0       0.0       0.1       0.0       0.1
 1 C  dx2y2           0.0       0.0       0.0       0.5       0.5       0.3
 1 C  dxy             0.0       0.0       0.0       0.1       0.0       0.2
 2 C  s               0.0       0.0       0.0       8.1       2.3       1.3
 2 C  pz              0.1       0.0       0.0       0.0       3.1       0.1
 2 C  px              0.1       0.0       0.0       0.5       0.4       4.5
 2 C  py              1.9       0.0       0.0       0.4       1.3       0.1
 2 C  dz2             0.0       0.0       0.0       0.1       0.2       0.0
[...]
 1 C  py              0.0       0.1       0.0       0.0       0.0       0.0
 1 C  dxz             0.1       0.1       0.0       0.0       0.0       0.0
 1 C  dxy             0.3       0.4       0.1       0.0       0.0       0.0
 2 C  s               0.0       0.0       0.0       0.0       0.0      24.0
 2 C  px              0.2       0.0       0.0       0.0       0.0       0.0
 2 C  dxz             0.1       0.0       0.0       0.0       0.0       0.0
 2 C  dxy             0.2       0.0       0.0       0.0       0.0       0.0
 3 C  s               0.2       1.2       0.6       0.2       8.9       1.0
 3 C  pz              0.1       0.8       0.6       0.1       0.0       0.0
 3 C  px              0.0       3.8       1.1       0.3       0.0       0.0
 3 C  py              0.0       3.1       0.8       0.2       0.0       0.0
 3 C  dz2             0.0       0.9       0.4       0.0       0.0       0.0
 3 C  dxz             0.2       2.6       1.0       0.2       0.0       0.0
 3 C  dyz             0.2       2.8       0.2       0.1       0.0       0.0
 3 C  dx2y2           1.2       0.5       0.0       0.0       0.0       0.0
 3 C  dxy             0.0       5.2       1.6       0.4       0.0       0.0
 4 O  s               3.6      27.2       4.3       0.9       0.0       0.0
 4 O  pz              3.3       4.6       0.1       0.1       0.0       0.0
 4 O  px              1.5       1.8      31.8       0.7       0.0       0.0
 4 O  py              3.3       7.7       0.4       0.3       0.0       0.0
 4 O  dz2             0.7       5.1       2.3       0.2       0.0       0.0
 4 O  dxz             2.2       1.3       8.2       0.5       0.0       0.0
 4 O  dyz             4.0       4.6       0.3       0.5       0.0       0.0
 4 O  dx2y2           1.6       6.3      13.2       0.1       0.0       0.0
 4 O  dxy             4.0       7.2       5.6       1.2       0.0       0.0
 5 C  s               1.3       0.3       3.4       4.9       0.0       0.0
 5 C  pz              0.1       0.2       0.3       3.2       0.0       0.0
 5 C  px              0.5       1.4       6.4       1.0       0.0       0.0
 5 C  py              0.1       0.2       0.1       3.9       0.0       0.0
 5 C  dz2             0.2       0.4       1.5       0.1       0.0       0.0
 5 C  dxz             6.9       0.4       2.6       0.6       0.0       0.0
 5 C  dyz             0.3       0.1       0.0       4.2       0.0       0.0
 5 C  dx2y2           0.1       1.5       6.5       1.1       0.0       0.0
 5 C  dxy            10.3       0.1       1.4       0.8       0.0       0.0
 6 O  s               1.6       1.1       0.7      18.1       0.0       0.0
 6 O  pz              0.1       0.3       0.3       8.5       0.0       0.0
 6 O  px              8.9       0.4       0.0       2.0       0.0       0.0
 6 O  py              0.1       0.2       0.4      11.1       0.0       0.0
 6 O  dz2             1.3       0.0       0.0       0.3       0.0       0.0
 6 O  dxz             6.9       0.6       0.3       3.7       0.0       0.0
 6 O  dyz             1.1       0.7       1.1      19.9       0.0       0.0
 6 O  dx2y2          10.7       0.2       0.2       4.6       0.0       0.0
 6 O  dxy             6.3       0.8       0.5       5.0       0.0       0.0
 7 C  s               0.0       0.1       0.0       0.0      88.5       0.4
 7 C  px              2.3       0.0       0.1       0.0       0.0       0.0
 7 C  py              0.3       0.0       0.0       0.0       0.0       0.0
 7 C  dz2             0.1       0.0       0.0       0.1       0.0       0.0
 7 C  dxz             2.8       0.0       0.2       0.0       0.0       0.0
 7 C  dyz             0.2       0.0       0.0       0.0       0.0       0.0
 7 C  dx2y2           1.1       0.0       0.1       0.2       0.0       0.0
 7 C  dxy             1.8       0.0       0.1       0.0       0.0       0.0
11 H  px              0.0       0.1       0.0       0.0       0.0       0.0
11 H  py              0.1       0.1       0.0       0.0       0.0       0.0
13 H  s               0.2       0.0       0.0       0.0       0.0       0.0
13 H  px              0.1       0.0       0.0       0.0       0.0       0.0
13 H  py              0.2       0.0       0.0       0.0       0.0       0.0
14 H  px              0.1       0.0       0.0       0.0       0.0       0.0
15 H  s               0.1       0.6       0.0       0.0       0.0       0.0
15 H  pz              0.1       0.8       0.1       0.0       0.0       0.0
15 H  px              0.0       0.2       0.0       0.0       0.0       0.0
15 H  py              0.0       0.4       0.0       0.0       0.0       0.0
16 H  s               0.0       0.2       0.2       0.0       0.0       0.0
16 H  pz              0.1       0.3       0.2       0.0       0.0       0.0
16 H  px              0.4       0.3       0.1       0.0       0.0       0.0
16 H  py              0.3       0.0       0.0       0.0       0.0       0.0
19 H  s               1.7       0.0       0.1       0.1       0.0       0.0
19 H  pz              0.6       0.0       0.0       0.0       0.0       0.0
19 H  px              2.3       0.0       0.1       0.0       0.0       0.0

                    216       217       218       219       220       221   
                  22.00569  22.08349  22.13195  22.25404  43.64750  43.76851
                   0.00000   0.00000   0.00000   0.00000   0.00000   0.00000
                  --------  --------  --------  --------  --------  --------
 0 C  s              30.9       0.2       7.3       3.8       0.0       0.0
 1 C  s               0.2       0.0      73.9       6.7       0.0       0.0
 2 C  s              63.4       3.0       8.8       0.4       0.0       0.0
 3 C  s               0.9      83.6       0.8       4.4       0.0       0.0
 4 O  s               0.0       0.1       0.0       0.1       4.7      95.2
 4 O  px              0.0       0.0       0.0       0.1       0.0       0.0
 5 C  s               4.0       4.5       6.6      83.9       0.0       0.0
 6 O  s               0.0       0.0       0.0       0.2      95.2       4.7
 7 C  s               0.3       8.2       2.2       0.0       0.0       0.0



                      *****************************
                      * MAYER POPULATION ANALYSIS *
                      *****************************

  NA   - Mulliken gross atomic population
  ZA   - Total nuclear charge
  QA   - Mulliken gross atomic charge
  VA   - Mayer's total valence
  BVA  - Mayer's bonded valence
  FA   - Mayer's free valence

  ATOM       NA         ZA         QA         VA         BVA        FA
  0 C      6.5052     6.0000    -0.5052     3.7954     3.7954     0.0000
  1 C      5.9816     6.0000     0.0184     3.5566     3.5566     0.0000
  2 C      6.5009     6.0000    -0.5009     3.7949     3.7949     0.0000
  3 C      6.2005     6.0000    -0.2005     3.6017     3.6017     0.0000
  4 O      8.1746     8.0000    -0.1746     1.9010     1.9010    -0.0000
  5 C      5.5783     6.0000     0.4217     3.7988     3.7988    -0.0000
  6 O      8.4298     8.0000    -0.4298     1.9396     1.9396    -0.0000
  7 C      6.5277     6.0000    -0.5277     3.8769     3.8769    -0.0000
  8 H      0.8355     1.0000     0.1645     0.9627     0.9627    -0.0000
  9 H      0.8559     1.0000     0.1441     0.9659     0.9659    -0.0000
 10 H      0.8544     1.0000     0.1456     0.9640     0.9640     0.0000
 11 H      0.8550     1.0000     0.1450     0.9585     0.9585    -0.0000
 12 H      0.8524     1.0000     0.1476     0.9655     0.9655     0.0000
 13 H      0.8403     1.0000     0.1597     0.9639     0.9639     0.0000
 14 H      0.8516     1.0000     0.1484     0.9640     0.9640     0.0000
 15 H      0.8489     1.0000     0.1511     0.9556     0.9556     0.0000
 16 H      0.8202     1.0000     0.1798     0.9537     0.9537    -0.0000
 17 H      0.8310     1.0000     0.1690     0.9579     0.9579     0.0000
 18 H      0.8344     1.0000     0.1656     0.9595     0.9595     0.0000
 19 H      0.8218     1.0000     0.1782     0.9583     0.9583    -0.0000

  Mayer bond orders larger than 0.100000
B(  0-C ,  1-C ) :   0.9099 B(  0-C ,  8-H ) :   0.9837 B(  0-C ,  9-H ) :   0.9706 
B(  0-C , 10-H ) :   0.9724 B(  1-C ,  2-C ) :   0.9167 B(  1-C ,  3-C ) :   0.9567 
B(  1-C , 11-H ) :   0.9383 B(  2-C , 12-H ) :   0.9710 B(  2-C , 13-H ) :   0.9815 
B(  2-C , 14-H ) :   0.9741 B(  3-C ,  4-O ) :   0.7954 B(  3-C , 15-H ) :   0.9466 
B(  3-C , 16-H ) :   0.9615 B(  4-O ,  5-C ) :   1.0619 B(  5-C ,  6-O ) :   1.8300 
B(  5-C ,  7-C ) :   0.9481 B(  7-C , 17-H ) :   0.9466 B(  7-C , 18-H ) :   0.9598 
B(  7-C , 19-H ) :   0.9889 

-------
TIMINGS
-------

Total SCF time: 0 days 0 hours 0 min 28 sec 

Total time                  ....      28.805 sec
Sum of individual times     ....      28.331 sec  ( 98.4%)

SCF preparation             ....       1.016 sec  (  3.5%)
Fock matrix formation       ....      26.061 sec  ( 90.5%)
  Startup                   ....       0.054 sec  (  0.2% of F)
  Split-RI-J                ....       4.746 sec  ( 18.2% of F)
  XC integration            ....      20.683 sec  ( 79.4% of F)
    XC Preparation          ....       0.000 sec  (  0.0% of XC)
    Basis function eval.    ....       3.409 sec  ( 16.5% of XC)
    Density eval.           ....       5.523 sec  ( 26.7% of XC)
    XC-Functional eval.     ....       2.312 sec  ( 11.2% of XC)
    XC-Potential eval.      ....       5.887 sec  ( 28.5% of XC)
Diagonalization             ....       0.000 sec  (  0.0%)
Density matrix formation    ....       0.297 sec  (  1.0%)
Total Energy calculation    ....       0.041 sec  (  0.1%)
Population analysis         ....       0.135 sec  (  0.5%)
Orbital Transformation      ....       0.077 sec  (  0.3%)
Orbital Orthonormalization  ....       0.000 sec  (  0.0%)
DIIS solution               ....       0.669 sec  (  2.3%)
  MO trafo                  ....       0.000 sec  (  0.0 % of DIIS)
  Orb grad                  ....       0.000 sec  (  0.0 % of DIIS)
  Energy W gradient         ....       0.000 sec  (  0.0 % of DIIS)
  DIIS error                ....       0.014 sec  (  2.1 % of DIIS)
  DIIS work                 ....       0.576 sec  ( 86.1 % of DIIS)
  Form Q                    ....       0.000 sec  (  0.0 % of DIIS)
  Form QpQm                 ....       0.000 sec  (  0.0 % of DIIS)
  Exp/Cayley                ....       0.000 sec  (  0.0 % of DIIS)
  Orb update                ....       0.000 sec  (  0.0 % of DIIS)
  Wake-sleep                ....       0.035 sec  (  5.3 % of DIIS)
SOSCF solution              ....       0.036 sec  (  0.1%)
  MO trafo                  ....       0.036 sec  ( 99.8 % of SOSCF)
  Orb grad                  ....       0.000 sec  (  0.0 % of SOSCF)
  Rot update                ....       0.000 sec  (  0.0 % of SOSCF)
  Step                      ....       0.000 sec  (  0.0 % of SOSCF)
Finished LeanSCF after  28.9 sec

Maximum memory used throughout the entire LEANSCF-calculation: 23.9 MB


-------------------------------------------------------------------------------
                          DFT DISPERSION CORRECTION                            
                                                                               
                                DFTD4 V3.4.0                                   
-------------------------------------------------------------------------------
The R2SCAN3C composite method is recognized
Using three-body term ABC
Active option DFTDOPT                   ...         5   

-------------------------   ----------------
Dispersion correction           -0.005233717
-------------------------   ----------------

------------------   -----------------
gCP correction             0.011932280
------------------   -----------------

-------------------------   --------------------
FINAL SINGLE POINT ENERGY      -386.237702766337
-------------------------   --------------------


------------------------------------------------------------------------------
                              ORCA PROPERTY CALCULATIONS
------------------------------------------------------------------------------

GBWName                                 ... sp_gas.gbw
Number of atoms                         ...     20
Number of basis functions               ...    222
Max core memory                         ...   1024 MB

Electric properties:
Dipole moment                           ... YES
Quadrupole moment                       ...  NO
Static polarizability (Dipole/Dipole)   ...  NO
Static polarizability (Dipole/Quad.)    ...  NO
Static polarizability (Quad./Quad.)     ...  NO
Static polarizability (Velocity)        ...  NO

Atomic electric properties:
Dipole moment                           ...  NO
Quadrupole moment                       ...  NO
Static polarizability                   ...  NO

Choice of electric origin               ... Center of mass
Position of electric origin             ...    -0.000029    -0.000014    -0.000006

General magnetic properties:
Magnetizability                         ...  NO

EPR properties:
g-Tensor (aka g-matrix)                 ...  NO
Zero-Field splitting spin-orbit         ...  NO
Zero-field splitting spin-spin          ...  NO
Hyperfine couplings                     ...  NO (   0 nuclei)
Quadrupole couplings                    ...  NO (   0 nuclei)
Contact density                         ...  NO (   0 nuclei)

NMR properties:
Chemical shifts                         ...  NO (   0 nuclei)
Spin-rotation constants                 ...  NO (   0 nuclei)
Spin-spin couplings                     ...  NO (   0 nuclei,    0 pairs)

Choice of magnetic origin               ... GIAO
Position of magnetic origin             ...     0.000000     0.000000     0.000000

Properties with geometric perturbations:
SCF Hessian                             ...  NO
IR spectrum                             ...  NO
VCD spectrum                            ...  NO
X-ray spectroscopy properties:
SCF XES/XAS/RIXS spectra                ...  NO


-------------
DIPOLE MOMENT
-------------

Method             : SCF
Type of density    : Electron Density
Multiplicity       :   1
Irrep              :   0
Energy             :  -386.2444013298647292 Eh
Relativity type    : 
Basis              : AO
                                X                 Y                 Z
Electronic contribution:      7.173205131       3.688009604       1.495467247
Nuclear contribution   :     -7.757190770      -4.193933242      -1.951094602
                        -----------------------------------------
Total Dipole Moment    :     -0.583985640      -0.505923639      -0.455627354
                        -----------------------------------------
Magnitude (a.u.)       :      0.896991774
Magnitude (Debye)      :      2.279971896



--------------------
Rotational spectrum 
--------------------
 
Rotational constants in cm-1:             0.126693             0.035959             0.034540 
Rotational constants in MHz :          3798.156378          1078.028134          1035.468344 

Dipole components along the rotational axes: 
x,y,z [a.u.] :    -0.633475    -0.632906     0.052276 
x,y,z [Debye]:    -1.610167    -1.608720     0.132874 

 

Dipole moment calculation done in   0.0 sec 

Maximum memory used throughout the entire PROP-calculation: 13.9 MB

--------------------------------
SUGGESTED CITATIONS FOR THIS RUN
--------------------------------

Below you find a list of papers that are relevant to this ORCA run
We neither can nor want to force you to cite these papers, but we appreciate if you do
You receive ORCA, which is the product of decades of hard work by many enthusiastic individuals, for free
The only thing we kindly ask in return is that you cite our papers,
We deeply appreciate it, if you show your appreciation for ORCA by not just citing the generic ORCA reference.

Please note that relegating all ORCA citations to the supporting information does *not* help us.
SI sections are not indexed - citations you put there will not count into any citation statistics
But we need these citations in order to attract the funding resources that allow us to do what we are doing

Therefore, if you are a happy ORCA user, please consider citing a few of the papers listed below in the main body of your paper

In addition to the list printed below, the program has created the file sp_gas.bibtex that contains the list in bibtex format
You can import this file easily into all common literature databanks and citation aid programs


List of essential papers. We consider these as the minimum necessary citations

  1. Neese,F.
     Software update: the ORCA program system, version 5.0
     WIRES Comput. Molec. Sci., 2022 12(1)e1606
     doi.org/10.1002/wcms.1606
  2. Grimme,S.; Hansen,A.; Ehlert,S.; Mewes,J.
     r2SCAN-3c: A 'Swiss army knife' composite electronic-structure method
     J. Chem. Phys., 2021 154 064103
     doi.org/10.1063/5.0040021

List of papers to cite with high priority. The work reported in these papers was absolutely
necessary for this run to complete.
Our perspective: the developers of density functionals and basis sets usually get cited in chemistry papers
Good! But without the algorithms to do something with them, the functionals or basis sets would not do anything.
Hence, in our opinion, the algorithm design and method developments papers are equally worthy of getting cited

  1. Neese,F.
     An improvement of the resolution of the identity approximation for the formation of the Coulomb matrix
     J. Comp. Chem., 2003 24(14)1740-1747
     doi.org/10.1002/jcc.10318
  2. Neese,F.
     The SHARK Integral Generation and Digestion System
     J. Comp. Chem., 2022  1-16
     doi.org/10.1002/jcc.26942
  3. Lehtola,S.; Steigemann,C.; Oliveira,M.; Marques,M.
     Recent developments in Libxc - A comprehensive library of functionals for density functional theory
     Software X, 2018 7 
     doi.org/10.1016/j.softx.2017.11.002
  4. Caldeweyher,E.; Bannwarth,C.; Grimme,S.
     Extension of the D3 dispersion coefficient model
     J. Chem. Phys., 2017 147 034112-XXXX
     doi.org/10.1063/1.4993215
  5. Caldeweyher,E.; Ehlert,S.; Hansen,A.; Neugebauer,H.; Spicher,S.; Bannwarth,C.; Grimme,S.
     A generally applicable atomic-charge dependent London dispersion correction
     J. Chem. Phys., 2019 150 154122-XXXX
     doi.org/10.1063/1.5090222
  6. Caldeweyher,E.; Mewes,J.; Ehlert,S.; Grimme,S.
     Extension and evaluation of the D4 London-dispersion model for periodic systems
     Phys. Chem. Chem. Phys., 2020 22(16)8499-8512
     doi.org/10.1039/D0CP00502A

List of suggested additional citations. These are papers that are important in the 'surrounding' of 
of this run, or papers that preceded the highly important papers. If you like your results we are grateful for a citation.

  1. Neese,F.
     The ORCA program system
     WIRES Comput. Molec. Sci., 2012 2(1)73-78
     doi.org/10.1002/wcms.81
  2. Neese,F.
     Software update: the ORCA program system, version 4.0
     WIRES Comput. Molec. Sci., 2018 8(1)1-6
     doi.org/10.1002/wcms.1327
  3. Neese,F.; Wennmohs,F.; Becker,U.; Riplinger,C.
     The ORCA quantum chemistry program package
     J. Chem. Phys., 2020 152 Art. No. L224108
     doi.org/10.1063/5.0004608

List of optional additional citations

  1. Neese,F.
     Approximate second-order SCF convergence for spin unrestricted wavefunctions
     Chem. Phys. Lett., 2000 325(1-3)93-98
     doi.org/10.1016/s0009-2614(00)00662-x

Timings for individual modules:

Sum of individual times          ...       30.776 sec (=   0.513 min)
Startup calculation              ...        1.415 sec (=   0.024 min)   4.6 %
SCF iterations                   ...       29.230 sec (=   0.487 min)  95.0 %
Property calculations            ...        0.131 sec (=   0.002 min)   0.4 %
                             ****ORCA TERMINATED NORMALLY****
TOTAL RUN TIME: 0 days 0 hours 0 minutes 32 seconds 131 msec
