      -----------------------------------------------------------      
     |                   =====================                   |     
     |                           x T B                           |     
     |                   =====================                   |     
     |                         S. Grimme                         |     
     |          Mulliken Center for Theoretical Chemistry        |     
     |                    University of Bonn                     |     
      -----------------------------------------------------------      

   * xtb version 6.7.1 (edcfbbe) compiled by 'albert@albert-system' on 2024-07-22

   xtb is free software: you can redistribute it and/or modify it under
   the terms of the GNU Lesser General Public License as published by
   the Free Software Foundation, either version 3 of the License, or
   (at your option) any later version.
   
   xtb is distributed in the hope that it will be useful,
   but WITHOUT ANY WARRANTY; without even the implied warranty of
   MERCHANTABILITY or FITNESS FOR A PARTICULAR PURPOSE.  See the
   GNU Lesser General Public License for more details.
   
   Cite this work as:
   * C. Bannwarth, E. Caldeweyher, S. Ehlert, A. Hansen, P. Pracht,
     J. Seibert, S. Spicher, S. Grimme, WIREs Comput. Mol. Sci., 2020, 11,
     e01493. DOI: 10.1002/wcms.1493
   
   for GFN2-xTB:
   * C. Bannwarth, S. Ehlert and S. Grimme., J. Chem. Theory Comput., 2019,
     15, 1652-1671. DOI: 10.1021/acs.jctc.8b01176
   for GFN1-xTB:
   * S. Grimme, C. Bannwarth, P. Shushkov, J. Chem. Theory Comput., 2017,
     13, 1989-2009. DOI: 10.1021/acs.jctc.7b00118
   for GFN0-xTB:
   * P. Pracht, E. Caldeweyher, S. Ehlert, S. Grimme, ChemRxiv, 2019, preprint.
     DOI: 10.26434/chemrxiv.8326202.v1
   for GFN-FF:
   * S. Spicher and S. Grimme, Angew. Chem. Int. Ed., 2020, 59, 15665-15673.
     DOI: 10.1002/anie.202004239
   
   for ALPB and GBSA implicit solvation:
   * S. Ehlert, M. Stahn, S. Spicher, S. Grimme, J. Chem. Theory Comput.,
     2021, 17, 4250-4261. DOI: 10.1021/acs.jctc.1c00471
   
   for ddCOSMO and CPCM-X implicit solvation:
   * M. Stahn, S. Ehlert, S. Grimme, J. Phys. Chem. A,
     2023, XX, XXXX-XXXX. DOI: 10.1021/acs.jpca.3c04382
   
   for DFT-D4:
   * E. Caldeweyher, C. Bannwarth and S. Grimme, J. Chem. Phys., 2017,
     147, 034112. DOI: 10.1063/1.4993215
   * E. Caldeweyher, S. Ehlert, A. Hansen, H. Neugebauer, S. Spicher,
     C. Bannwarth and S. Grimme, J. Chem. Phys., 2019, 150, 154122.
     DOI: 10.1063/1.5090222
   * E. Caldeweyher, J.-M. Mewes, S. Ehlert and S. Grimme, Phys. Chem. Chem. Phys.
     2020, 22, 8499-8512. DOI: 10.1039/D0CP00502A
   
   for sTDA-xTB:
   * S. Grimme and C. Bannwarth, J. Chem. Phys., 2016, 145, 054103.
     DOI: 10.1063/1.4959605
   
   in the mass-spec context:
   * V. Asgeirsson, C. Bauer and S. Grimme, Chem. Sci., 2017, 8, 4879.
     DOI: 10.1039/c7sc00601b
   * J. Koopman and S. Grimme, ACS Omega 2019, 4, 12, 15120-15133.
     DOI: 10.1021/acsomega.9b02011
   
   for metadynamics refer to:
   * S. Grimme, J. Chem. Theory Comput., 2019, 155, 2847-2862
     DOI: 10.1021/acs.jctc.9b00143
   
   for SPH calculations refer to:
   * S. Spicher and S. Grimme, J. Chem. Theory Comput., 2021, 17, 1701-1714
     DOI: 10.1021/acs.jctc.0c01306
   
   for ONIOM refer to:
   * C. Plett, A. Katbashev, S. Ehlert, S. Grimme, M. Bursch,
     Phys. Chem. Chem. Phys., 2023, 25, 17860-17868. DOI: 10.1039/D3CP02178E
   
   for DIPRO refer to:
   * J. Kohn, N. Gildemeister, S. Grimme, D. Fazzi, A. Hansen,
     J. Chem. Phys., 2023, just accepted.
   
   for PTB refer to:
   * S. Grimme, M. Mueller, A. Hansen, J. Chem. Phys., 2023, 158, 124111.
     DOI: 10.1063/5.0137838
   
   with help from (in alphabetical order)
   P. Atkinson, C. Bannwarth, F. Bohle, G. Brandenburg, E. Caldeweyher
   M. Checinski, S. Dohm, S. Ehlert, S. Ehrlich, I. Gerasimov, C. Hölzer
   A. Katbashev, J. Kohn, J. Koopman, C. Lavigne, S. Lehtola, F. März, M. Müller,
   F. Musil, H. Neugebauer, J. Pisarek, C. Plett, P. Pracht, F. Pultar,
   J. Seibert, P. Shushkov, S. Spicher, M. Stahn, M. Steiner, T. Strunk,
   J. Stückrath, T. Rose, and J. Unsleber
   
 * started run on 2025/04/11 at 12:52:41.568     
   ID    Z sym.   atoms
    1    6 C      1-3, 5-7
    2    1 H      4, 9-21
    3    8 O      8

           -------------------------------------------------
          |                Calculation Setup                |
           -------------------------------------------------

          program call               : /srv/scratch/z5358697/.xtb/bin/xtb xtb_rrho.coord --gfn2 --ohess vtight --chrg 0 --enso --norestart -I rrho-xcontrol-inp --parallel 1 --alpb water
          hostname                   : k121
          coordinate file            : xtb_rrho.coord
          omp threads                :                     1


           -------------------------------------------------
          |                 G F N 2 - x T B                 |
           -------------------------------------------------

        Reference                      10.1021/acs.jctc.8b01176
      * Hamiltonian:
        H0-scaling (s, p, d)           1.850000    2.230000    2.230000
        zeta-weighting                 0.500000
      * Dispersion:
        s8                             2.700000
        a1                             0.520000
        a2                             5.000000
        s9                             5.000000
      * Repulsion:
        kExp                           1.500000    1.000000
        rExp                           1.000000
      * Coulomb:
        alpha                          2.000000
        third order                    shell-resolved
        anisotropic                    true
        a3                             3.000000
        a5                             4.000000
        cn-shift                       1.200000
        cn-exp                         4.000000
        max-rad                        5.000000

      * Solvation model:               ALPB
        Solvent                        water
        Parameter file                 internal GFN2-xTB/ALPB
        Dielectric constant                8.0200E+01
        Reference state                gsolv [1 M gas/solution]
        Free energy shift                  1.0808E-03 Eh       6.7819E-01 kcal/mol
        Temperature                        2.9815E+02 K
        Density                            1.0000E+00 kg/L
        Solvent mass                       1.8000E+01 g/mol
        Interaction kernel             P16
        Born radius scaling (c1)           1.4744E+00
        Born radii integrator          GBOBC
        Born offset                        0.0000E+00 a0       0.0000E+00 AA
        H-bond correction              true
        Ion screening                  false
        Surface tension                    1.0000E-05 Eh       1.5569E+01 dyn/cm
        Grid points                               974 per atom

          ...................................................
          :                      SETUP                      :
          :.................................................:
          :  # basis functions                  42          :
          :  # atomic orbitals                  42          :
          :  # shells                           28          :
          :  # electrons                        44          :
          :  max. iterations                   250          :
          :  Hamiltonian                  GFN2-xTB          :
          :  restarted?                      false          :
          :  GBSA solvation                   true          :
          :  PC potential                    false          :
          :  electronic temp.          300.0000000     K    :
          :  accuracy                    1.0000000          :
          :  -> integral cutoff          0.2500000E+02      :
          :  -> integral neglect         0.1000000E-07      :
          :  -> SCF convergence          0.1000000E-05 Eh   :
          :  -> wf. convergence          0.1000000E-03 e    :
          :  Broyden damping             0.4000000          :
          :  net charge                          0          :
          :  unpaired electrons                  0          :
          ...................................................

 iter      E             dE          RMSdq      gap      omega  full diag
   1    -24.3221414 -0.243221E+02  0.290E+00   11.56       0.0  T
   2    -24.3550690 -0.329275E-01  0.153E+00   11.44       1.0  T
   3    -24.3560571 -0.988094E-03  0.588E-01   11.44       1.0  T
   4    -24.3562673 -0.210253E-03  0.119E-01   11.42       1.0  T
   5    -24.3563207 -0.533562E-04  0.613E-02   11.44       1.0  T
   6    -24.3563225 -0.184772E-05  0.111E-02   11.44       2.0  T
   7    -24.3563231 -0.570476E-06  0.484E-03   11.44       4.5  T
   8    -24.3563232 -0.705589E-07  0.196E-03   11.44      11.2  T
   9    -24.3563232 -0.516251E-08  0.864E-04   11.44      25.3  T
  10    -24.3563232 -0.169180E-08  0.134E-04   11.44     162.4  T

   *** convergence criteria satisfied after 10 iterations ***

         #    Occupation            Energy/Eh            Energy/eV
      -------------------------------------------------------------
         1        2.0000           -0.6775215             -18.4363
       ...           ...                  ...                  ...
        16        2.0000           -0.4559084             -12.4059
        17        2.0000           -0.4487546             -12.2112
        18        2.0000           -0.4427220             -12.0471
        19        2.0000           -0.4302073             -11.7065
        20        2.0000           -0.4276467             -11.6369
        21        2.0000           -0.4214630             -11.4686
        22        2.0000           -0.4007792             -10.9058 (HOMO)
        23                          0.0196260               0.5341 (LUMO)
        24                          0.0546716               1.4877
        25                          0.0875982               2.3837
        26                          0.0989266               2.6919
        27                          0.1226771               3.3382
       ...                                ...                  ...
        42                          0.2933070               7.9813
      -------------------------------------------------------------
                  HL-Gap            0.4204052 Eh           11.4398 eV
             Fermi-level           -0.1905766 Eh           -5.1859 eV

 SCC (total)                   0 d,  0 h,  0 min,  0.016 sec
 SCC setup                      ...        0 min,  0.001 sec (  8.652%)
 Dispersion                     ...        0 min,  0.000 sec (  0.772%)
 classical contributions        ...        0 min,  0.000 sec (  0.274%)
 integral evaluation            ...        0 min,  0.002 sec (  9.832%)
 iterations                     ...        0 min,  0.008 sec ( 49.577%)
 molecular gradient             ...        0 min,  0.005 sec ( 29.755%)
 printout                       ...        0 min,  0.000 sec (  1.046%)

         :::::::::::::::::::::::::::::::::::::::::::::::::::::
         ::                     SUMMARY                     ::
         :::::::::::::::::::::::::::::::::::::::::::::::::::::
         :: total energy             -24.058435617283 Eh    ::
         :: total w/o Gsasa/hb       -24.055475775663 Eh    ::
         :: gradient norm              0.033471103908 Eh/a0 ::
         :: HOMO-LUMO gap             11.439808586154 eV    ::
         ::.................................................::
         :: SCC energy               -24.356271689358 Eh    ::
         :: -> isotropic ES            0.036853102563 Eh    ::
         :: -> anisotropic ES          0.006420438575 Eh    ::
         :: -> anisotropic XC          0.010165337869 Eh    ::
         :: -> dispersion             -0.012805960818 Eh    ::
         :: -> Gsolv                  -0.007136302430 Eh    ::
         ::    -> Gelec               -0.004176460810 Eh    ::
         ::    -> Gsasa               -0.000063614083 Eh    ::
         ::    -> Ghb                 -0.003976987236 Eh    ::
         ::    -> Gshift               0.001080759698 Eh    ::
         :: repulsion energy           0.297836072075 Eh    ::
         :: add. restraining           0.000000000000 Eh    ::
         :: total charge               0.000000000000 e     ::
         :::::::::::::::::::::::::::::::::::::::::::::::::::::

      ----------------------------------------------------------- 
     |                   =====================                   |
     |                        A N C O P T                        |
     |                   =====================                   |
     |               Approximate Normal Coordinate               |
     |                Rational Function Optimizer                |
      ----------------------------------------------------------- 
      ----------------------------------------------------------- 
     |                   =====================                   |
     |                        A N C O P T                        |
     |                   =====================                   |
     |               Approximate Normal Coordinate               |
     |                Rational Function Optimizer                |
      ----------------------------------------------------------- 

          ...................................................
          :                      SETUP                      :
          :.................................................:
          :   optimization level         verytight          :
          :   max. optcycles                   420          :
          :   ANC micro-cycles                  20          :
          :   degrees of freedom                57          :
          :.................................................:
          :   RF solver                   davidson          :
          :   write xtbopt.log                true          :
          :   linear?                        false          :
          :   energy convergence         0.1000000E-06 Eh   :
          :   grad. convergence          0.2000000E-03 Eh/α :
          :   maxmium RF displ.          1.0000000          :
          :   Hlow (freq-cutoff)         0.1000000E-01      :
          :   Hmax (freq-cutoff)         5.0000000          :
          :   S6 in model hess.         20.0000000          :
          ...................................................

generating ANC from exact Hessian ...
Using Lindh-Hessian (1995)
 Shifting diagonal of input Hessian by   7.909140267220166E-003
 Lowest  eigenvalues of input Hessian
    0.000000    0.000000    0.000000    0.000000    0.000000    0.000000
    0.010000    0.010857    0.011864    0.015656    0.016658    0.016861
    0.017309    0.018833    0.021188    0.026661    0.035648    0.040141
 Highest eigenvalues
    1.176454    1.209461    1.211434    1.257428    1.311426    1.407108
 

........................................................................
.............................. CYCLE    1 ..............................
........................................................................

 iter      E             dE          RMSdq      gap      omega  full diag
   1    -24.3563232 -0.243563E+02  0.754E-05   11.44       0.0  T
   2    -24.3563232 -0.639133E-11  0.488E-05   11.44     447.1  T
   3    -24.3563232 -0.379430E-11  0.118E-05   11.44    1844.8  T
     SCC iter.                  ...        0 min,  0.001 sec
     gradient                   ...        0 min,  0.005 sec
 * total energy  :   -24.0584356 Eh     change       -0.5391598E-10 Eh
   gradient norm :     0.0334710 Eh/α   predicted     0.0000000E+00 (-100.00%)
   displ. norm   :     0.1457608 α      lambda       -0.1874038E-02
   maximum displ.:     0.0650287 α      in ANC's #10, #8, #4, ...

........................................................................
.............................. CYCLE    2 ..............................
........................................................................

 iter      E             dE          RMSdq      gap      omega  full diag
   1    -24.3658883 -0.243659E+02  0.121E-01   11.74       0.0  T
   2    -24.3659008 -0.125228E-04  0.689E-02   11.74       1.0  T
   3    -24.3659010 -0.195406E-06  0.140E-02   11.74       1.6  T
   4    -24.3659018 -0.754866E-06  0.313E-03   11.74       7.0  T
   5    -24.3659019 -0.608597E-07  0.144E-03   11.74      15.2  T
   6    -24.3659019 -0.371186E-08  0.526E-04   11.74      41.5  T
   7    -24.3659019 -0.583658E-09  0.104E-04   11.74     210.2  T
     SCC iter.                  ...        0 min,  0.003 sec
     gradient                   ...        0 min,  0.005 sec
 * total energy  :   -24.0596784 Eh     change       -0.1242792E-02 Eh
   gradient norm :     0.0156547 Eh/α   predicted    -0.9569423E-03 ( -23.00%)
   displ. norm   :     0.1188516 α      lambda       -0.5427002E-03
   maximum displ.:     0.0699470 α      in ANC's #4, #1, #8, ...

........................................................................
.............................. CYCLE    3 ..............................
........................................................................

 iter      E             dE          RMSdq      gap      omega  full diag
   1    -24.3705223 -0.243705E+02  0.562E-02   12.01       0.0  T
   2    -24.3705301 -0.774277E-05  0.330E-02   12.02       1.0  T
   3    -24.3705304 -0.316790E-06  0.124E-02   12.02       1.8  T
   4    -24.3705308 -0.430323E-06  0.271E-03   12.02       8.1  T
   5    -24.3705308 -0.316754E-07  0.108E-03   12.02      20.2  T
   6    -24.3705308 -0.262493E-08  0.469E-04   12.02      46.6  T
   7    -24.3705308 -0.454840E-09  0.886E-05   12.02     246.3  T
     SCC iter.                  ...        0 min,  0.003 sec
     gradient                   ...        0 min,  0.005 sec
 * total energy  :   -24.0599979 Eh     change       -0.3194876E-03 Eh
   gradient norm :     0.0037050 Eh/α   predicted    -0.2752893E-03 ( -13.83%)
   displ. norm   :     0.0788701 α      lambda       -0.8868560E-04
   maximum displ.:     0.0492705 α      in ANC's #4, #1, #6, ...

........................................................................
.............................. CYCLE    4 ..............................
........................................................................

 iter      E             dE          RMSdq      gap      omega  full diag
   1    -24.3702717 -0.243703E+02  0.213E-02   12.09       0.0  T
   2    -24.3702723 -0.679563E-06  0.129E-02   12.09       1.7  T
   3    -24.3702723 -0.436359E-08  0.420E-03   12.09       5.2  T
   4    -24.3702724 -0.848550E-07  0.811E-04   12.09      26.9  T
   5    -24.3702724 -0.273601E-08  0.239E-04   12.09      91.3  T
     SCC iter.                  ...        0 min,  0.002 sec
     gradient                   ...        0 min,  0.005 sec
 * total energy  :   -24.0600638 Eh     change       -0.6589521E-04 Eh
   gradient norm :     0.0020945 Eh/α   predicted    -0.4462295E-04 ( -32.28%)
   displ. norm   :     0.1196174 α      lambda       -0.7902026E-04
   maximum displ.:     0.0721945 α      in ANC's #4, #1, #6, ...

........................................................................
.............................. CYCLE    5 ..............................
........................................................................

 iter      E             dE          RMSdq      gap      omega  full diag
   1    -24.3692457 -0.243692E+02  0.303E-02   12.13       0.0  T
   2    -24.3692461 -0.345684E-06  0.182E-02   12.13       1.2  T
   3    -24.3692461  0.262549E-07  0.293E-03   12.13       7.4  T
   4    -24.3692461 -0.889862E-07  0.740E-04   12.13      29.5  T
   5    -24.3692461 -0.145269E-08  0.240E-04   12.13      91.1  T
     SCC iter.                  ...        0 min,  0.002 sec
     gradient                   ...        0 min,  0.005 sec
 * total energy  :   -24.0601178 Eh     change       -0.5400122E-04 Eh
   gradient norm :     0.0029564 Eh/α   predicted    -0.4007617E-04 ( -25.79%)
   displ. norm   :     0.0985012 α      lambda       -0.3968341E-04
   maximum displ.:     0.0553893 α      in ANC's #1, #4, #6, ...

........................................................................
.............................. CYCLE    6 ..............................
........................................................................

 iter      E             dE          RMSdq      gap      omega  full diag
   1    -24.3687726 -0.243688E+02  0.248E-02   12.12       0.0  T
   2    -24.3687726 -0.477929E-07  0.148E-02   12.12       1.5  T
   3    -24.3687726 -0.168705E-07  0.708E-04   12.12      30.8  T
   4    -24.3687726 -0.849944E-09  0.399E-04   12.12      54.7  T
     SCC iter.                  ...        0 min,  0.002 sec
     gradient                   ...        0 min,  0.005 sec
 * total energy  :   -24.0601466 Eh     change       -0.2882219E-04 Eh
   gradient norm :     0.0027980 Eh/α   predicted    -0.2003737E-04 ( -30.48%)
   displ. norm   :     0.0845239 α      lambda       -0.2843374E-04
   maximum displ.:     0.0498028 α      in ANC's #1, #4, #6, ...

........................................................................
.............................. CYCLE    7 ..............................
........................................................................

 iter      E             dE          RMSdq      gap      omega  full diag
   1    -24.3689462 -0.243689E+02  0.220E-02   12.10       0.0  T
   2    -24.3689463 -0.868300E-07  0.131E-02   12.10       1.7  T
   3    -24.3689463  0.200694E-08  0.146E-03   12.10      14.9  T
   4    -24.3689463 -0.236617E-07  0.465E-04   12.10      46.9  T
   5    -24.3689463 -0.476728E-09  0.202E-04   12.10     107.8  T
     SCC iter.                  ...        0 min,  0.002 sec
     gradient                   ...        0 min,  0.005 sec
 * total energy  :   -24.0601659 Eh     change       -0.1930436E-04 Eh
   gradient norm :     0.0016655 Eh/α   predicted    -0.1431945E-04 ( -25.82%)
   displ. norm   :     0.0619904 α      lambda       -0.9840166E-05
   maximum displ.:     0.0404488 α      in ANC's #1, #4, #6, ...

........................................................................
.............................. CYCLE    8 ..............................
........................................................................

 iter      E             dE          RMSdq      gap      omega  full diag
   1    -24.3696206 -0.243696E+02  0.176E-02   12.07       0.0  T
   2    -24.3696208 -0.136106E-06  0.104E-02   12.07       2.1  T
   3    -24.3696208  0.102951E-07  0.191E-03   12.07      11.5  T
   4    -24.3696208 -0.326959E-07  0.409E-04   12.07      53.4  T
   5    -24.3696208 -0.403148E-09  0.192E-04   12.07     113.4  T
     SCC iter.                  ...        0 min,  0.002 sec
     gradient                   ...        0 min,  0.005 sec
 * total energy  :   -24.0601725 Eh     change       -0.6565324E-05 Eh
   gradient norm :     0.0006327 Eh/α   predicted    -0.4936206E-05 ( -24.81%)
   displ. norm   :     0.0109329 α      lambda       -0.1030686E-05
   maximum displ.:     0.0055835 α      in ANC's #9, #4, #6, ...

........................................................................
.............................. CYCLE    9 ..............................
........................................................................

 iter      E             dE          RMSdq      gap      omega  full diag
   1    -24.3696239 -0.243696E+02  0.366E-03   12.08       0.0  T
   2    -24.3696239 -0.824868E-08  0.217E-03   12.08      10.0  T
   3    -24.3696239 -0.505516E-09  0.368E-04   12.08      59.4  T
   4    -24.3696239 -0.673829E-09  0.114E-04   12.08     191.0  T
     SCC iter.                  ...        0 min,  0.002 sec
     gradient                   ...        0 min,  0.005 sec
 * total energy  :   -24.0601736 Eh     change       -0.1074841E-05 Eh
   gradient norm :     0.0001718 Eh/α   predicted    -0.5217316E-06 ( -51.46%)
   displ. norm   :     0.0105926 α      lambda       -0.5752602E-06
   maximum displ.:     0.0053785 α      in ANC's #8, #9, #1, ...

........................................................................
.............................. CYCLE   10 ..............................
........................................................................

 iter      E             dE          RMSdq      gap      omega  full diag
   1    -24.3695550 -0.243696E+02  0.349E-03   12.08       0.0  T
   2    -24.3695550 -0.272187E-08  0.213E-03   12.08      10.2  T
   3    -24.3695550 -0.811593E-09  0.182E-04   12.08     120.0  T
   4    -24.3695550 -0.125702E-09  0.890E-05   12.08     245.2  T
     SCC iter.                  ...        0 min,  0.002 sec
     gradient                   ...        0 min,  0.005 sec
 * total energy  :   -24.0601741 Eh     change       -0.5880341E-06 Eh
   gradient norm :     0.0002181 Eh/α   predicted    -0.2897082E-06 ( -50.73%)
   displ. norm   :     0.0095158 α      lambda       -0.2914280E-06
   maximum displ.:     0.0049082 α      in ANC's #8, #1, #12, ...

........................................................................
.............................. CYCLE   11 ..............................
........................................................................

 iter      E             dE          RMSdq      gap      omega  full diag
   1    -24.3695433 -0.243695E+02  0.330E-03   12.08       0.0  T
   2    -24.3695433 -0.198700E-08  0.202E-03   12.08      10.8  T
   3    -24.3695433 -0.663860E-09  0.155E-04   12.08     140.4  T
   4    -24.3695433 -0.790656E-10  0.787E-05   12.08     277.3  T
     SCC iter.                  ...        0 min,  0.002 sec
     gradient                   ...        0 min,  0.005 sec
 * total energy  :   -24.0601745 Eh     change       -0.3082827E-06 Eh
   gradient norm :     0.0001848 Eh/α   predicted    -0.1505922E-06 ( -51.15%)
   displ. norm   :     0.0084949 α      lambda       -0.1746872E-06
   maximum displ.:     0.0054783 α      in ANC's #1, #8, #12, ...

........................................................................
.............................. CYCLE   12 ..............................
........................................................................

 iter      E             dE          RMSdq      gap      omega  full diag
   1    -24.3695321 -0.243695E+02  0.288E-03   12.08       0.0  T
   2    -24.3695321 -0.116551E-08  0.175E-03   12.08      12.5  T
   3    -24.3695321 -0.406292E-09  0.112E-04   12.08     194.6  T
   4    -24.3695321 -0.292566E-10  0.625E-05   12.08     349.2  T
     SCC iter.                  ...        0 min,  0.002 sec
     gradient                   ...        0 min,  0.005 sec
 * total energy  :   -24.0601746 Eh     change       -0.1641342E-06 Eh
   gradient norm :     0.0001137 Eh/α   predicted    -0.9132815E-07 ( -44.36%)
   displ. norm   :     0.0093516 α      lambda        0.8895734E-07
   maximum displ.:     0.0061168 α      in ANC's #1, #8, #12, ...

........................................................................
.............................. CYCLE   13 ..............................
........................................................................

 iter      E             dE          RMSdq      gap      omega  full diag
   1    -24.3695191 -0.243695E+02  0.311E-03   12.08       0.0  T
   2    -24.3695192 -0.137464E-08  0.189E-03   12.08      11.5  T
   3    -24.3695192 -0.485223E-09  0.122E-04   12.08     179.2  T
   4    -24.3695192 -0.338574E-10  0.678E-05   12.08     322.1  T
     SCC iter.                  ...        0 min,  0.002 sec
     gradient                   ...        0 min,  0.005 sec
 * total energy  :   -24.0601746 Eh     change        0.5391665E-07 Eh
   gradient norm :     0.0001500 Eh/α   predicted     0.4373165E-07 ( -18.89%)
   displ. norm   :     0.0053972 α      lambda       -0.1582516E-06
   maximum displ.:     0.0030440 α      in ANC's #8, #12, #6, ...

........................................................................
.............................. CYCLE   14 ..............................
........................................................................

 iter      E             dE          RMSdq      gap      omega  full diag
   1    -24.3695385 -0.243695E+02  0.218E-03   12.08       0.0  T
   2    -24.3695385 -0.554351E-09  0.132E-03   12.08      16.5  T
   3    -24.3695385 -0.191800E-09  0.770E-05   12.08     283.5  T
   4    -24.3695385 -0.157740E-10  0.433E-05   12.08     503.9  T
     SCC iter.                  ...        0 min,  0.002 sec
     gradient                   ...        0 min,  0.005 sec
 * total energy  :   -24.0601747 Eh     change       -0.1299487E-06 Eh
   gradient norm :     0.0000478 Eh/α   predicted    -0.8170809E-07 ( -37.12%)
   displ. norm   :     0.0018428 α      lambda       -0.2078049E-07
   maximum displ.:     0.0010346 α      in ANC's #8, #9, #1, ...

........................................................................
.............................. CYCLE   15 ..............................
........................................................................

 iter      E             dE          RMSdq      gap      omega  full diag
   1    -24.3695551 -0.243696E+02  0.780E-04   12.08       0.0  T
   2    -24.3695551 -0.826219E-10  0.472E-04   12.08      46.2  T
   3    -24.3695551 -0.322835E-10  0.312E-05   12.08     700.4  T
     SCC iter.                  ...        0 min,  0.001 sec
     gradient                   ...        0 min,  0.005 sec
 * total energy  :   -24.0601747 Eh     change       -0.2353910E-07 Eh
   gradient norm :     0.0000210 Eh/α   predicted    -0.1125256E-07 ( -52.20%)
   displ. norm   :     0.0018428 α      lambda        0.0000000E+00
   maximum displ.:     0.0010346 α      in ANC's #8, #9, #1, ...

   *** GEOMETRY OPTIMIZATION CONVERGED AFTER 15 ITERATIONS ***

------------------------------------------------------------------------
 total energy gain   :        -0.0017391 Eh       -1.0913 kcal/mol
 total RMSD          :         0.1334637 a0        0.0706 Å
 total power (kW/mol):        -0.3044008 (step)  -28.5429 (real)
------------------------------------------------------------------------

 ANCopt (total)                0 d,  0 h,  0 min,  0.160 sec
 optimizer setup                ...        0 min,  0.000 sec (  0.251%)
 model hessian                  ...        0 min,  0.010 sec (  6.266%)
 ANC generation                 ...        0 min,  0.001 sec (  0.351%)
 coordinate transformation      ...        0 min,  0.000 sec (  0.055%)
 single point calculation       ...        0 min,  0.141 sec ( 88.104%)
 optimization log               ...        0 min,  0.006 sec (  3.993%)
 hessian update                 ...        0 min,  0.000 sec (  0.065%)
 rational function              ...        0 min,  0.001 sec (  0.450%)

================
 final structure:
================
$coord
        5.24172979982658       -0.15416206940095       -0.49806939440005      C
        2.55592247525027       -0.10859993767502       -1.53795215906362      C
        0.59286462429949       -0.40782963095399        0.56848967374581      C
        1.18499453663672       -1.99573258683286        1.78382879343838      H
       -2.06646108841887       -1.02748217589977       -0.46827394452375      C
       -3.91149716057212       -1.56234940465178        1.69245004264018      C
       -3.07646722172316        1.10134740595388       -2.13491952410146      C
        0.62413577300196        1.85353211995893        2.00253516133586      O
        6.59845637662473        0.16821918435489       -2.00567542109551      H
        5.64879717704292       -1.97031463937406        0.37502380285152      H
        5.46387870831282        1.31878381440299        0.91656156799032      H
        2.22387640886969        1.69622522019350       -2.47352505051483      H
        2.30652095441399       -1.62578361292264       -2.91048630520800      H
       -1.87851181883644       -2.74911552298934       -1.60113570339092      H
       -3.14404297821045       -2.97212486322600        2.97791252683240      H
       -4.31810723877815        0.15573513429896        2.74501309698189      H
       -5.68534035593138       -2.27487116975166        0.94015037772090      H
       -2.92724795161018        2.89556713016849       -1.14277444876209      H
       -5.04898933955116        0.76436535200525       -2.59909883364982      H
       -2.01179179540867        1.23412372292719       -3.88486883331326      H
       -0.41337346838308        1.62732963556792        3.48631021338020      H
$end
 
 Bond Distances (Angstroems)
 ---------------------------
C1-C2=1.5243         C1-H9=1.0867         C1-H10=1.0879        C1-H11=1.0871        C2-C1=1.5243         C2-C3=1.5319         
C2-H12=1.0900        C2-H13=1.0907        C3-C2=1.5319         C3-H4=1.1036         C3-C5=1.5456         C3-O8=1.4171         
H4-C3=1.1036         C5-C3=1.5456         C5-C6=1.5300         C5-C7=1.5273         C5-H14=1.0951        C6-C5=1.5300         
C6-H15=1.0882        C6-H16=1.0877        C6-H17=1.0871        C7-C5=1.5273         C7-H18=1.0878        C7-H19=1.0871        
C7-H20=1.0862        O8-C3=1.4171         O8-H21=0.9655        H9-C1=1.0867         H10-C1=1.0879        H11-C1=1.0871        
H12-C2=1.0900        H13-C2=1.0907        H14-C5=1.0951        H15-C6=1.0882        H16-C6=1.0877        H17-C6=1.0871        
H18-C7=1.0878        H19-C7=1.0871        H20-C7=1.0862        H21-O8=0.9655        
 C  H  Rav=1.0896 sigma=0.0046  Rmin=1.0862  Rmax=1.1036    13
 C  C  Rav=1.5318 sigma=0.0074  Rmin=1.5243  Rmax=1.5456     5
 O  H  Rav=0.9655 sigma=0.0000  Rmin=0.9655  Rmax=0.9655     1
 O  C  Rav=1.4171 sigma=0.0000  Rmin=1.4171  Rmax=1.4171     1
 
 selected bond angles (degree)
 --------------------
H9-C1-C2=110.40                H10-C1-C2=110.60               H10-C1-H9=108.64               H11-C1-C2=109.76               
H11-C1-H9=108.76               H11-C1-H10=108.64              C3-C2-C1=111.59                H12-C2-C1=109.16               
H12-C2-C3=108.16               H13-C2-C1=109.97               H13-C2-C3=109.05               H13-C2-H12=108.85              
H4-C3-C2=108.07                C5-C3-C2=112.40                C5-C3-H4=107.69                O8-C3-C2=107.12                
O8-C3-H4=109.12                O8-C3-C5=112.33                C6-C5-C3=110.79                C7-C5-C3=111.54                
C7-C5-C6=110.16                H14-C5-C3=106.75               H14-C5-C6=108.25               H14-C5-C7=109.23               
H15-C6-C5=110.84               H16-C6-C5=110.75               H16-C6-H15=109.07              H17-C6-C5=109.97               
H17-C6-H15=108.26              H17-C6-H16=107.86              H18-C7-C5=109.86               H19-C7-C5=110.21               
H19-C7-H18=108.78              H20-C7-C5=111.01               H20-C7-H18=108.50              H20-C7-H19=108.42              
H21-O8-C3=108.91               
 
 selected dihedral angles (degree)
 ---------------------------------
C3-C2-C1-H9=183.24            C3-C2-C1-H10= 62.97           C3-C2-C1-H11=303.11           H12-C2-C1-H9=302.74           
H12-C2-C1-H10=182.47          H12-C2-C1-H11= 62.61          H13-C2-C1-H9= 62.08           H13-C2-C1-H10=301.81          
H13-C2-C1-H11=181.96          H4-C3-C2-C1=312.86            H4-C3-C2-H12=192.78           H4-C3-C2-H13= 74.55           
C5-C3-C2-C1=194.17            C5-C3-C2-H12= 74.08           C5-C3-C2-H13=315.86           O8-C3-C2-C1= 70.32            
O8-C3-C2-H12=310.24           O8-C3-C2-H13=192.01           C6-C5-C3-C2=174.53            C6-C5-C3-H4= 55.61            
C6-C5-C3-O8=295.43            C7-C5-C3-C2=297.64            C7-C5-C3-H4=178.72            C7-C5-C3-O8= 58.55            
H14-C5-C3-C2= 56.88           H14-C5-C3-H4=297.96           H14-C5-C3-O8=177.78           H15-C6-C5-C3=308.39           
H15-C6-C5-C7=184.49           H15-C6-C5-H14= 65.12          H16-C6-C5-C3= 69.60           H16-C6-C5-C7=305.69           
H16-C6-C5-H14=186.32          H17-C6-C5-C3=188.71           H17-C6-C5-C7= 64.81           H17-C6-C5-H14=305.44          
H18-C7-C5-C3=308.72           H18-C7-C5-C6= 72.19           H18-C7-C5-H14=190.97          H19-C7-C5-C3=188.87           
H19-C7-C5-C6=312.34           H19-C7-C5-H14= 71.12          H20-C7-C5-C3= 68.73           H20-C7-C5-C6=192.20           
H20-C7-C5-H14=310.98          H21-O8-C3-C2=188.26           H21-O8-C3-H4=305.03           H21-O8-C3-C5= 64.37           
           -------------------------------------------------
          |                Final Singlepoint                |
           -------------------------------------------------

          ...................................................
          :                      SETUP                      :
          :.................................................:
          :  # basis functions                  42          :
          :  # atomic orbitals                  42          :
          :  # shells                           28          :
          :  # electrons                        44          :
          :  max. iterations                   250          :
          :  Hamiltonian                  GFN2-xTB          :
          :  restarted?                      false          :
          :  GBSA solvation                   true          :
          :  PC potential                    false          :
          :  electronic temp.          300.0000000     K    :
          :  accuracy                    1.0000000          :
          :  -> integral cutoff          0.2500000E+02      :
          :  -> integral neglect         0.1000000E-07      :
          :  -> SCF convergence          0.1000000E-05 Eh   :
          :  -> wf. convergence          0.1000000E-03 e    :
          :  Broyden damping             0.4000000          :
          :  net charge                          0          :
          :  unpaired electrons                  0          :
          ...................................................

 iter      E             dE          RMSdq      gap      omega  full diag
   1    -24.3695551 -0.243696E+02  0.157E-05   12.08       0.0  T
   2    -24.3695551 -0.127898E-12  0.967E-06   12.08    2257.3  T
   3    -24.3695551 -0.248690E-13  0.161E-06   12.08   13515.7  T

   *** convergence criteria satisfied after 3 iterations ***

         #    Occupation            Energy/Eh            Energy/eV
      -------------------------------------------------------------
         1        2.0000           -0.6815100             -18.5448
       ...           ...                  ...                  ...
        16        2.0000           -0.4555955             -12.3974
        17        2.0000           -0.4481347             -12.1944
        18        2.0000           -0.4408902             -11.9972
        19        2.0000           -0.4313373             -11.7373
        20        2.0000           -0.4276895             -11.6380
        21        2.0000           -0.4194724             -11.4144
        22        2.0000           -0.3990627             -10.8590 (HOMO)
        23                          0.0450044               1.2246 (LUMO)
        24                          0.0581403               1.5821
        25                          0.0906790               2.4675
        26                          0.1076231               2.9286
        27                          0.1257374               3.4215
       ...                                ...                  ...
        42                          0.3093904               8.4189
      -------------------------------------------------------------
                  HL-Gap            0.4440671 Eh           12.0837 eV
             Fermi-level           -0.1770291 Eh           -4.8172 eV

 SCC (total)                   0 d,  0 h,  0 min,  0.009 sec
 SCC setup                      ...        0 min,  0.001 sec ( 13.681%)
 Dispersion                     ...        0 min,  0.000 sec (  0.766%)
 classical contributions        ...        0 min,  0.000 sec (  0.240%)
 integral evaluation            ...        0 min,  0.001 sec ( 16.038%)
 iterations                     ...        0 min,  0.001 sec ( 15.765%)
 molecular gradient             ...        0 min,  0.005 sec ( 51.928%)
 printout                       ...        0 min,  0.000 sec (  1.409%)

         :::::::::::::::::::::::::::::::::::::::::::::::::::::
         ::                     SUMMARY                     ::
         :::::::::::::::::::::::::::::::::::::::::::::::::::::
         :: total energy             -24.060174719592 Eh    ::
         :: total w/o Gsasa/hb       -24.057025149807 Eh    ::
         :: gradient norm              0.000021006607 Eh/a0 ::
         :: HOMO-LUMO gap             12.083680256520 eV    ::
         ::.................................................::
         :: SCC energy               -24.369503600708 Eh    ::
         :: -> isotropic ES            0.035724904110 Eh    ::
         :: -> anisotropic ES          0.005800350534 Eh    ::
         :: -> anisotropic XC          0.009632171727 Eh    ::
         :: -> dispersion             -0.012877086595 Eh    ::
         :: -> Gsolv                  -0.007024692439 Eh    ::
         ::    -> Gelec               -0.003875122654 Eh    ::
         ::    -> Gsasa               -0.000131578993 Eh    ::
         ::    -> Ghb                 -0.004098750490 Eh    ::
         ::    -> Gshift               0.001080759698 Eh    ::
         :: repulsion energy           0.309328881117 Eh    ::
         :: add. restraining           0.000000000000 Eh    ::
         :: total charge              -0.000000000000 e     ::
         :::::::::::::::::::::::::::::::::::::::::::::::::::::

           ------------------------------------------------- 
          |                Numerical Hessian                |
           ------------------------------------------------- 
step length          :   0.00500
SCC accuracy         :   0.30000
Hessian scale factor :   1.00000
frozen atoms in %    :   0.00000    0
RMS gradient         :   0.00002
estimated CPU  time      0.02 min
estimated wall time      0.02 min

writing file <hessian>.

 projected vibrational frequencies (cm⁻¹)
eigval :       -0.00    -0.00    -0.00     0.00     0.00     0.00
eigval :       79.18    84.32   184.14   196.01   219.83   229.89
eigval :      272.14   300.34   312.74   339.76   433.33   471.71
eigval :      619.38   804.82   845.96   930.07   947.79   986.38
eigval :      987.92   999.49  1067.72  1077.27  1088.94  1149.57
eigval :     1165.03  1188.63  1220.88  1265.78  1276.66  1302.60
eigval :     1327.63  1341.41  1364.04  1402.06  1404.66  1415.28
eigval :     1466.37  1490.99  1495.03  1495.60  1501.74  1503.83
eigval :     1509.18  2813.98  2928.86  2982.02  3001.55  3020.06
eigval :     3024.56  3024.81  3031.19  3034.43  3035.85  3040.34
eigval :     3043.89  3048.89  3517.60
           -------------------------------------------------
          |                Property Printout                |
           -------------------------------------------------

    * Orbital Energies and Occupations

         #    Occupation            Energy/Eh            Energy/eV
      -------------------------------------------------------------
         1        2.0000           -0.6815100             -18.5448
       ...           ...                  ...                  ...
        10        2.0000           -0.5051427             -13.7456
        11        2.0000           -0.4964034             -13.5078
        12        2.0000           -0.4866489             -13.2424
        13        2.0000           -0.4815485             -13.1036
        14        2.0000           -0.4645560             -12.6412
        15        2.0000           -0.4634781             -12.6119
        16        2.0000           -0.4555955             -12.3974
        17        2.0000           -0.4481347             -12.1944
        18        2.0000           -0.4408902             -11.9972
        19        2.0000           -0.4313373             -11.7373
        20        2.0000           -0.4276895             -11.6380
        21        2.0000           -0.4194724             -11.4144
        22        2.0000           -0.3990626             -10.8590 (HOMO)
        23                          0.0450044               1.2246 (LUMO)
        24                          0.0581403               1.5821
        25                          0.0906790               2.4675
        26                          0.1076231               2.9286
        27                          0.1257374               3.4215
        28                          0.1392861               3.7902
        29                          0.1480738               4.0293
        30                          0.1674583               4.5568
        31                          0.1746095               4.7514
        32                          0.1829951               4.9795
        33                          0.1925458               5.2394
       ...                                ...                  ...
        42                          0.3093904               8.4189
      -------------------------------------------------------------
                  HL-Gap            0.4440671 Eh           12.0837 eV
             Fermi-level           -0.1770291 Eh           -4.8172 eV

     #   Z          covCN         q      C6AA      α(0)
     1   6 C        3.752    -0.111    22.685     6.792
     2   6 C        3.801    -0.065    21.750     6.640
     3   6 C        3.726     0.111    18.850     6.199
     4   1 H        0.923     0.007     2.941     2.682
     5   6 C        3.848    -0.028    21.047     6.526
     6   6 C        3.755    -0.115    22.764     6.803
     7   6 C        3.755    -0.113    22.725     6.797
     8   8 O        1.655    -0.504    22.974     6.470
     9   1 H        0.925     0.041     2.437     2.441
    10   1 H        0.925     0.037     2.496     2.471
    11   1 H        0.925     0.046     2.368     2.406
    12   1 H        0.925     0.049     2.337     2.391
    13   1 H        0.924     0.035     2.521     2.483
    14   1 H        0.924     0.028     2.612     2.528
    15   1 H        0.925     0.036     2.503     2.474
    16   1 H        0.925     0.043     2.407     2.426
    17   1 H        0.925     0.043     2.407     2.426
    18   1 H        0.925     0.046     2.365     2.405
    19   1 H        0.925     0.042     2.428     2.437
    20   1 H        0.925     0.036     2.497     2.471
    21   1 H        0.805     0.337     0.619     1.236

 Mol. C6AA /au·bohr⁶  :       2899.972206
 Mol. C8AA /au·bohr⁸  :      60059.836781
 Mol. α(0) /au        :         79.503581


Wiberg/Mayer (AO) data.
largest (>0.10) Wiberg bond orders for each atom

 ---------------------------------------------------------------------------
     #   Z sym  total        # sym  WBO       # sym  WBO       # sym  WBO
 ---------------------------------------------------------------------------
     1   6 C    3.996 --     2 C    1.019    10 H    0.988    11 H    0.987
                             9 H    0.987
     2   6 C    3.997 --     1 C    1.019     3 C    0.993    13 H    0.977
                            12 H    0.975
     3   6 C    3.952 --     2 C    0.993     8 O    0.985     5 C    0.971
                             4 H    0.961
     4   1 H    1.000 --     3 C    0.961
     5   6 C    3.996 --     7 C    1.010     6 C    1.008     3 C    0.971
                            14 H    0.968
     6   6 C    3.996 --     5 C    1.008    15 H    0.986    17 H    0.986
                            16 H    0.984
     7   6 C    3.996 --     5 C    1.010    20 H    0.986    19 H    0.986
                            18 H    0.985
     8   8 O    1.925 --     3 C    0.985    21 H    0.868
     9   1 H    0.998 --     1 C    0.987
    10   1 H    0.999 --     1 C    0.988
    11   1 H    0.998 --     1 C    0.987
    12   1 H    0.998 --     2 C    0.975
    13   1 H    0.999 --     2 C    0.977
    14   1 H    0.999 --     5 C    0.968
    15   1 H    0.999 --     6 C    0.986
    16   1 H    0.998 --     6 C    0.984
    17   1 H    0.998 --     6 C    0.986
    18   1 H    0.998 --     7 C    0.985
    19   1 H    0.998 --     7 C    0.986
    20   1 H    0.999 --     7 C    0.986
    21   1 H    0.886 --     8 O    0.868
 ---------------------------------------------------------------------------

Topologies differ in total number of bonds
Writing topology from bond orders to xtbtopo.mol

molecular dipole:
                 x           y           z       tot (Debye)
 q only:       -0.371      -0.379       0.129
   full:       -0.475      -0.530       0.230       1.901
molecular quadrupole (traceless):
                xx          xy          yy          xz          yz          zz
 q only:        0.492      -1.101      -2.579      -1.902      -0.261       2.086
  q+dip:       -0.464      -1.556      -2.484      -2.118      -0.529       2.948
   full:       -0.245      -1.469      -2.771      -2.316      -0.451       3.016

           -------------------------------------------------
          |                Geometry Summary                 |
           -------------------------------------------------

      molecular mass/u    :      102.1749908
   center of mass at/Å    :       -0.0000259      -0.0001754       0.0002840
  moments of inertia/u·Å² :        0.1185908E+03   0.3243475E+03   0.3540387E+03
rotational constants/cm⁻¹ :        0.1421496E+00   0.5197398E-01   0.4761522E-01

 * 19 selected distances

     #   Z          #   Z                                           value/Å
     1   6 C        2   6 C                                       1.5242687
     2   6 C        3   6 C                                       1.5318957 (max)
     3   6 C        4   1 H                                       1.1035729
     5   6 C        6   6 C                                       1.5299510
     5   6 C        7   6 C                                       1.5272733
     3   6 C        8   8 O                                       1.4170910
     1   6 C        9   1 H                                       1.0867493
     1   6 C       10   1 H                                       1.0878945
     1   6 C       11   1 H                                       1.0870827
     2   6 C       12   1 H                                       1.0900210
     2   6 C       13   1 H                                       1.0906570
     5   6 C       14   1 H                                       1.0951185
     6   6 C       15   1 H                                       1.0882111
     6   6 C       16   1 H                                       1.0877181
     6   6 C       17   1 H                                       1.0870906
     7   6 C       18   1 H                                       1.0878220
     7   6 C       19   1 H                                       1.0870521
     7   6 C       20   1 H                                       1.0862304
     8   8 O       21   1 H                                       0.9655392 (min)

 * 4 distinct bonds (by element types)

   Z      Z             #   av. dist./Å        max./Å        min./Å
   1 H    6 C          13     1.0896323     1.1035729     1.0862304
   6 C    6 C           4     1.5283472     1.5318957     1.5242687
   1 H    8 O           1     0.9655392     0.9655392     0.9655392
   6 C    8 O           1     1.4170910     1.4170910     1.4170910

           -------------------------------------------------
          |               Frequency Printout                |
           -------------------------------------------------
 projected vibrational frequencies (cm⁻¹)
eigval :       -0.00    -0.00    -0.00     0.00     0.00     0.00
eigval :       79.18    84.32   184.14   196.01   219.83   229.89
eigval :      272.14   300.34   312.74   339.76   433.33   471.71
eigval :      619.38   804.82   845.96   930.07   947.79   986.38
eigval :      987.92   999.49  1067.72  1077.27  1088.94  1149.57
eigval :     1165.03  1188.63  1220.88  1265.78  1276.66  1302.60
eigval :     1327.63  1341.41  1364.04  1402.06  1404.66  1415.28
eigval :     1466.37  1490.99  1495.03  1495.60  1501.74  1503.83
eigval :     1509.18  2813.98  2928.86  2982.02  3001.55  3020.06
eigval :     3024.56  3024.81  3031.19  3034.43  3035.85  3040.34
eigval :     3043.89  3048.89  3517.60
 reduced masses (amu)
   1: 10.33   2: 11.25   3: 10.92   4: 10.05   5: 10.65   6:  9.24   7:  9.68   8:  7.46
   9:  7.69  10:  2.86  11:  2.34  12:  2.74  13: 10.81  14:  2.41  15:  8.21  16:  8.71
  17:  8.33  18:  8.75  19:  9.09  20:  5.29  21:  7.17  22:  6.93  23:  2.65  24:  4.26
  25:  7.93  26:  6.33  27:  4.13  28:  5.27  29:  8.29  30:  7.42  31:  8.03  32:  6.84
  33:  4.85  34:  3.54  35:  2.75  36:  4.76  37:  4.18  38:  3.96  39:  5.25  40:  3.29
  41:  3.21  42:  3.12  43:  1.93  44:  1.60  45:  1.54  46:  1.56  47:  1.58  48:  1.57
  49:  1.54  50:  1.71  51:  1.75  52:  1.82  53:  1.64  54:  1.85  55:  1.85  56:  1.89
  57:  1.94  58:  1.70  59:  1.83  60:  1.43  61:  1.47  62:  1.45  63:  1.87
 IR intensities (km·mol⁻¹)
   1:  0.23   2:  0.10   3:  0.07   4:  0.55   5:  0.19   6:  0.19   7:  0.39   8:  0.70
   9:  0.41  10:  0.27  11:  9.12  12: 13.58  13:  6.45  14:174.25  15: 25.17  16:  1.17
  17:  2.38  18: 13.80  19:  5.27  20:  0.36  21:  4.11  22:  0.77  23:  3.23  24:  0.97
  25:120.84  26: 25.63  27:  1.08  28: 41.36  29: 15.98  30:  8.40  31: 25.53  32:  4.84
  33: 79.03  34: 43.29  35:  7.11  36:  4.52  37:  1.60  38: 21.78  39:  6.74  40:  2.25
  41:  0.33  42:  1.48  43:  0.57  44:  0.09  45:  0.79  46:  1.01  47:  1.59  48:  1.76
  49:  2.25  50:156.51  51: 87.24  52: 72.93  53: 27.77  54: 64.94  55:110.09  56: 43.17
  57: 58.89  58: 46.82  59: 79.93  60: 68.44  61: 41.59  62: 48.66  63: 59.84
 Raman intensities (Ä⁴*amu⁻¹)
   1:  0.00   2:  0.00   3:  0.00   4:  0.00   5:  0.00   6:  0.00   7:  0.00   8:  0.00
   9:  0.00  10:  0.00  11:  0.00  12:  0.00  13:  0.00  14:  0.00  15:  0.00  16:  0.00
  17:  0.00  18:  0.00  19:  0.00  20:  0.00  21:  0.00  22:  0.00  23:  0.00  24:  0.00
  25:  0.00  26:  0.00  27:  0.00  28:  0.00  29:  0.00  30:  0.00  31:  0.00  32:  0.00
  33:  0.00  34:  0.00  35:  0.00  36:  0.00  37:  0.00  38:  0.00  39:  0.00  40:  0.00
  41:  0.00  42:  0.00  43:  0.00  44:  0.00  45:  0.00  46:  0.00  47:  0.00  48:  0.00
  49:  0.00  50:  0.00  51:  0.00  52:  0.00  53:  0.00  54:  0.00  55:  0.00  56:  0.00
  57:  0.00  58:  0.00  59:  0.00  60:  0.00  61:  0.00  62:  0.00  63:  0.00
 output can be read by thermo (or use thermo option).
 writing <g98.out> molden fake output.
 recommended (thermochemical) frequency scaling factor: 1.0
           -------------------------------------------------
          |             Thermodynamic Functions             |
           -------------------------------------------------

Molecule has no symmetry elements
It seems to be the C1 point group
c1  symmetry found (for desy threshold:  0.10E+00) used in thermo

          ...................................................
          :                      SETUP                      :
          :.................................................:
          :  # frequencies                          57      :
          :  # imaginary freq.                       0      :
          :  linear?                             false      :
          :  only rotor calc.                    false      :
          :  symmetry                               c1      :
          :  rotational number                       1      :
          :  scaling factor                  1.0000000      :
          :  rotor cutoff                    0.0000000 cm⁻¹ :
          :  imag. cutoff                 -100.0000000 cm⁻¹ :
          :.................................................:

    mode    ω/cm⁻¹     T·S(HO)/kcal·mol⁻¹    T·S(FR)/kcal·mol⁻¹   T·S(vib)
   ------------------------------------------------------------------------
       1     79.18    -1.16610 (100.00%)    -0.92013 (  0.00%)    -1.16610
       2     84.32    -1.12930 (100.00%)    -0.90151 (  0.00%)    -1.12930
       3    184.14    -0.68159 (100.00%)    -0.67025 (  0.00%)    -0.68159
       4    196.01    -0.64706 (100.00%)    -0.65175 (  0.00%)    -0.64706
       5    219.83    -0.58452 (100.00%)    -0.61778 (  0.00%)    -0.58452
       6    229.89    -0.56046 (100.00%)    -0.60453 (  0.00%)    -0.56046
       7    272.14    -0.47184 (100.00%)    -0.55456 (  0.00%)    -0.47184
   ------------------------------------------------------------------------

   temp. (K)  partition function   enthalpy   heat capacity  entropy
                                   cal/mol     cal/K/mol   cal/K/mol   J/K/mol
 298.15  VIB   260.                 4199.563     28.336     25.138
         ROT  0.282E+06              888.752      2.981     27.920
         INT  0.734E+08             5088.315     31.317     53.057
         TR   0.999E+27             1481.254      4.968     39.764
         TOT                        6569.5694    36.2850    92.8213   388.3643

       T/K    H(0)-H(T)+PV         H(T)/Eh          T*S/Eh         G(T)/Eh
   ------------------------------------------------------------------------
    298.15    0.104693E-01    0.200273E+00    0.441024E-01    0.156170E+00
   ------------------------------------------------------------------------

         :::::::::::::::::::::::::::::::::::::::::::::::::::::
         ::                  THERMODYNAMIC                  ::
         :::::::::::::::::::::::::::::::::::::::::::::::::::::
         :: total free energy         -23.904004289743 Eh   ::
         ::.................................................::
         :: total energy              -24.060174719514 Eh   ::
         :: zero point energy           0.189803551322 Eh   ::
         :: G(RRHO) w/o ZPVE           -0.033633121552 Eh   ::
         :: G(RRHO) contrib.            0.156170429771 Eh   ::
         :::::::::::::::::::::::::::::::::::::::::::::::::::::

optimized geometry written to: xtbopt.coord


           -------------------------------------------------
          | TOTAL ENERGY              -24.060174719514 Eh   |
          | TOTAL ENTHALPY            -23.859901892984 Eh   |
          | TOTAL FREE ENERGY         -23.904004289743 Eh   |
          | GRADIENT NORM               0.000021003089 Eh/α |
          | HOMO-LUMO GAP              12.083680108146 eV   |
           -------------------------------------------------

------------------------------------------------------------------------
 * finished run on 2025/04/11 at 12:52:43.057     
------------------------------------------------------------------------
 total:
 * wall-time:     0 d,  0 h,  0 min,  1.488 sec
 *  cpu-time:     0 d,  0 h,  0 min,  1.399 sec
 * ratio c/w:     0.940 speedup
 SCF:
 * wall-time:     0 d,  0 h,  0 min,  0.016 sec
 *  cpu-time:     0 d,  0 h,  0 min,  0.014 sec
 * ratio c/w:     0.893 speedup
 ANC optimizer:
 * wall-time:     0 d,  0 h,  0 min,  0.181 sec
 *  cpu-time:     0 d,  0 h,  0 min,  0.165 sec
 * ratio c/w:     0.912 speedup
 analytical hessian:
 * wall-time:     0 d,  0 h,  0 min,  1.219 sec
 *  cpu-time:     0 d,  0 h,  0 min,  1.207 sec
 * ratio c/w:     0.990 speedup

