 Entering Gaussian System
 *********************************************
 Gaussian 98:
 frequency output generated by the xtb code
 *********************************************
                         Standard orientation:
 --------------------------------------------------------------------
  Center     Atomic     Atomic              Coordinates (Angstroms)
  Number     Number      Type              X           Y           Z
 --------------------------------------------------------------------
    1          6             0       -2.246557    0.685909   -0.910704
    2          6             0       -2.113767   -0.624335   -0.143551
    3          6             0       -1.210868   -0.571180    1.093222
    4          6             0        0.292635   -0.318210    0.901320
    5          6             0        0.966094   -1.151563   -0.198972
    6          6             0        2.179538   -0.318018   -0.597937
    7          6             0        1.610219    1.097685   -0.624938
    8          6             0        0.685420    1.147512    0.596835
    9          1             0       -3.008293    0.587462   -1.681712
   10          1             0       -2.543049    1.492231   -0.242924
   11          1             0       -1.312793    0.955619   -1.394448
   12          1             0       -3.107549   -0.921259    0.202752
   13          1             0       -1.769373   -1.407081   -0.821349
   14          1             0       -1.593999    0.194728    1.772493
   15          1             0       -1.316151   -1.533979    1.601612
   16          1             0        0.760713   -0.591396    1.854021
   17          1             0        1.232647   -2.148529    0.149948
   18          1             0        0.309137   -1.254096   -1.061492
   19          1             0        2.955943   -0.393971    0.165343
   20          1             0        2.603032   -0.621171   -1.554665
   21          1             0        2.383775    1.863482   -0.590196
   22          1             0        1.036483    1.238643   -1.542858
   23          1             0        1.219374    1.568593    1.449699
   24          1             0       -0.184250    1.774042    0.418147
 --------------------------------------------------------------------
     1 basis functions        1 primitive gaussians
     1 alpha electrons        1 beta electrons
 
 Harmonic frequencies (cm**-1), IR intensities (km*mol⁻¹),
 Raman scattering activities (A**4/amu), Raman depolarization ratios,
 reduced masses (AMU), force constants (mDyne/A) and normal coordinates:
                      1                      2                      3
                        a                      a                      a 
 Frequencies --    45.6230                85.9885               169.4607
 Red. masses --     7.8010                 8.3503                 6.9596
 Frc consts  --     0.0000                 0.0000                 0.0000
 IR Inten    --     0.0049                 0.0219                 0.0789
 Raman Activ --     0.0000                 0.0000                 0.0000
 Depolar     --     0.0000                 0.0000                 0.0000
 Atom AN      X      Y      Z        X      Y      Z        X      Y      Z
   1   6    -0.16   0.31   0.19    -0.50   0.03   0.21     0.37   0.13   0.11
   2   6     0.11   0.09  -0.23    -0.06  -0.06  -0.01    -0.11   0.09   0.14
   3   6     0.01  -0.11  -0.15     0.02   0.00  -0.07     0.03  -0.28   0.05
   4   6     0.02  -0.01   0.09    -0.01   0.07  -0.15    -0.05  -0.01  -0.09
   5   6     0.26  -0.15   0.33     0.02   0.04  -0.10     0.03  -0.00  -0.04
   6   6     0.05   0.02   0.05     0.23  -0.10   0.24     0.07   0.04   0.18
   7   6    -0.26  -0.12  -0.23     0.37  -0.04   0.08    -0.04  -0.01  -0.07
   8   6    -0.02  -0.03  -0.06    -0.04   0.06  -0.23    -0.33   0.02  -0.29
   9   1    -0.06   0.12   0.06    -0.18  -0.00   0.10    -0.01   0.16   0.13
  10   1    -0.07   0.01   0.13    -0.16  -0.04   0.11     0.33   0.11   0.05
  11   1    -0.07   0.18   0.06    -0.19   0.09   0.02     0.09  -0.14  -0.10
  12   1     0.05  -0.07  -0.11     0.01  -0.11   0.01    -0.06   0.14   0.07
  13   1     0.09   0.11  -0.14     0.03   0.04  -0.05    -0.14  -0.01   0.03
  14   1    -0.03  -0.08  -0.01     0.00  -0.01  -0.01     0.01  -0.16   0.11
  15   1     0.00  -0.06  -0.10     0.03  -0.00  -0.02     0.06  -0.14  -0.08
  16   1    -0.04   0.04   0.06     0.01   0.04  -0.04     0.02   0.05  -0.03
  17   1     0.15   0.00   0.18    -0.06  -0.01  -0.04    -0.00  -0.00  -0.01
  18   1     0.08  -0.17   0.11     0.05   0.07  -0.07     0.03   0.01  -0.03
  19   1     0.04   0.11   0.00     0.00  -0.06   0.13    -0.03   0.05   0.11
  20   1     0.01  -0.03   0.03     0.13  -0.04   0.10     0.10  -0.00   0.09
  21   1    -0.12   0.02  -0.17     0.13  -0.04   0.09    -0.03   0.02   0.01
  22   1    -0.14  -0.14  -0.04     0.20   0.00  -0.03     0.05  -0.04  -0.07
  23   1     0.06  -0.01  -0.06    -0.11   0.07  -0.03    -0.18   0.09  -0.07
  24   1    -0.01  -0.00   0.03    -0.01  -0.02  -0.18    -0.12  -0.06  -0.17
                      4                      5                      6
                        a                      a                      a 
 Frequencies --   243.1060               250.4878               288.9431
 Red. masses --     7.1454                 5.8792                 3.7734
 Frc consts  --     0.0000                 0.0000                 0.0000
 IR Inten    --     0.2260                 0.2613                 0.0753
 Raman Activ --     0.0000                 0.0000                 0.0000
 Depolar     --     0.0000                 0.0000                 0.0000
 Atom AN      X      Y      Z        X      Y      Z        X      Y      Z
   1   6    -0.17  -0.03  -0.16     0.23   0.01   0.21     0.00  -0.09   0.06
   2   6    -0.26   0.14   0.17     0.21  -0.14  -0.06     0.07  -0.21  -0.16
   3   6     0.00   0.12  -0.02    -0.03  -0.00   0.08    -0.04   0.03  -0.10
   4   6     0.05  -0.18  -0.12    -0.07   0.07  -0.05    -0.04   0.13   0.03
   5   6     0.19  -0.01  -0.18    -0.26   0.13  -0.20    -0.15   0.12  -0.01
   6   6     0.24   0.15   0.26    -0.02  -0.04   0.25    -0.04  -0.03   0.08
   7   6    -0.18  -0.05  -0.11    -0.14  -0.10  -0.18    -0.03  -0.03  -0.05
   8   6     0.15  -0.15   0.12     0.03   0.06  -0.05     0.23   0.09   0.14
   9   1    -0.06  -0.05  -0.03     0.25  -0.02  -0.11    -0.32   0.17   0.31
  10   1    -0.02   0.05  -0.11    -0.17  -0.09   0.07     0.44   0.02   0.16
  11   1    -0.04  -0.07  -0.07     0.14   0.15   0.28    -0.12  -0.21  -0.32
  12   1    -0.07   0.13   0.13     0.05  -0.11  -0.10     0.03  -0.10  -0.05
  13   1    -0.16  -0.02   0.08     0.15   0.01  -0.03     0.05  -0.04  -0.06
  14   1     0.08   0.08  -0.01    -0.04   0.01  -0.01    -0.07   0.02  -0.07
  15   1    -0.05   0.06   0.03     0.01   0.01   0.05     0.01   0.02   0.00
  16   1     0.00  -0.10  -0.04     0.02  -0.00  -0.04    -0.03   0.00   0.01
  17   1     0.04  -0.02  -0.10    -0.19  -0.02  -0.14    -0.10   0.01  -0.03
  18   1     0.10   0.05  -0.09    -0.04   0.19  -0.10    -0.04   0.10  -0.01
  19   1    -0.03   0.13   0.19    -0.12   0.03   0.19    -0.04  -0.00   0.05
  20   1     0.22   0.04   0.14     0.13  -0.05   0.14     0.01  -0.03   0.04
  21   1    -0.14   0.08  -0.15    -0.07   0.01  -0.15    -0.01  -0.00  -0.10
  22   1    -0.14  -0.17   0.00    -0.08  -0.14  -0.05    -0.07  -0.06   0.02
  23   1     0.13  -0.12   0.01     0.08  -0.02  -0.04     0.16  -0.04   0.02
  24   1     0.05  -0.00   0.14     0.03   0.06   0.05     0.10   0.10   0.10
                      7                      8                      9
                        a                      a                      a 
 Frequencies --   311.1655               355.6016               534.0375
 Red. masses --     7.4282                 6.9243                 7.1741
 Frc consts  --     0.0000                 0.0000                 0.0000
 IR Inten    --     0.9184                 1.3514                 5.7200
 Raman Activ --     0.0000                 0.0000                 0.0000
 Depolar     --     0.0000                 0.0000                 0.0000
 Atom AN      X      Y      Z        X      Y      Z        X      Y      Z
   1   6     0.05  -0.07   0.10    -0.19   0.03  -0.31    -0.01  -0.02  -0.02
   2   6    -0.43  -0.13   0.03     0.15   0.22   0.03     0.14   0.06   0.08
   3   6    -0.11  -0.25  -0.18     0.25  -0.30   0.04     0.14   0.01  -0.00
   4   6    -0.12   0.22  -0.07     0.16   0.10   0.20    -0.05   0.05  -0.37
   5   6     0.04   0.09   0.14    -0.20   0.12   0.02    -0.10  -0.38  -0.07
   6   6     0.05  -0.01  -0.04    -0.09  -0.10   0.07    -0.34   0.03   0.17
   7   6     0.16   0.03  -0.08    -0.05  -0.08  -0.02    -0.01   0.19   0.04
   8   6     0.29   0.18   0.04     0.06   0.09   0.08     0.08   0.15   0.01
   9   1     0.15   0.03  -0.11    -0.07  -0.15  -0.05    -0.03  -0.06   0.02
  10   1    -0.07  -0.04   0.01    -0.11   0.05  -0.17    -0.00   0.01  -0.03
  11   1     0.11  -0.03   0.21    -0.10   0.05  -0.15    -0.02  -0.00  -0.04
  12   1    -0.13   0.07   0.08     0.05   0.08   0.05     0.05  -0.02   0.02
  13   1    -0.23  -0.08  -0.00    -0.02   0.05  -0.01     0.06   0.03   0.02
  14   1    -0.08  -0.19   0.05     0.01  -0.28   0.20     0.06  -0.04   0.06
  15   1     0.09  -0.14  -0.15     0.15  -0.22  -0.23     0.10  -0.03  -0.05
  16   1    -0.09   0.07   0.01     0.08   0.02   0.04     0.03   0.01  -0.12
  17   1     0.02   0.05   0.11    -0.15  -0.01  -0.07     0.12   0.00   0.19
  18   1     0.01  -0.05   0.05    -0.10   0.17   0.02     0.02  -0.38  -0.03
  19   1     0.04  -0.00  -0.04    -0.04  -0.04   0.04    -0.21   0.04   0.18
  20   1    -0.02  -0.03  -0.02    -0.01  -0.05   0.03     0.08   0.02   0.12
  21   1     0.07  -0.01  -0.06    -0.01  -0.02  -0.06     0.09  -0.04   0.06
  22   1     0.02   0.01  -0.01    -0.05  -0.06   0.01     0.04   0.15   0.00
  23   1     0.18  -0.05   0.00     0.03   0.06  -0.01     0.08  -0.10   0.03
  24   1     0.15   0.16   0.09    -0.00   0.00   0.01     0.06   0.12   0.11
                     10                     11                     12
                        a                      a                      a 
 Frequencies --   551.1981               589.7732               778.0983
 Red. masses --     8.4075                 8.0153                 5.9060
 Frc consts  --     0.0000                 0.0000                 0.0000
 IR Inten    --     0.9234                 1.1064                 1.3071
 Raman Activ --     0.0000                 0.0000                 0.0000
 Depolar     --     0.0000                 0.0000                 0.0000
 Atom AN      X      Y      Z        X      Y      Z        X      Y      Z
   1   6    -0.03   0.03  -0.10    -0.01   0.01   0.01    -0.06   0.06  -0.05
   2   6     0.12   0.11   0.09    -0.08  -0.06  -0.09    -0.27  -0.06  -0.07
   3   6    -0.37  -0.15   0.42     0.06  -0.02  -0.10    -0.16  -0.03   0.19
   4   6    -0.31  -0.09   0.01     0.19  -0.22   0.32     0.25  -0.04   0.18
   5   6     0.05   0.09   0.01    -0.13   0.01   0.15     0.03  -0.18  -0.18
   6   6     0.10   0.13  -0.07    -0.25   0.17   0.09    -0.07   0.01  -0.07
   7   6     0.17   0.10  -0.19     0.12   0.27  -0.28     0.08   0.04  -0.00
   8   6     0.14  -0.16  -0.13     0.14  -0.24  -0.18     0.17   0.25   0.12
   9   1    -0.05  -0.08   0.02     0.01   0.05  -0.01     0.05   0.12  -0.09
  10   1     0.01   0.06  -0.08    -0.01  -0.03   0.04     0.06   0.08  -0.06
  11   1    -0.04  -0.01  -0.10     0.01   0.02   0.03     0.07  -0.15   0.06
  12   1     0.00  -0.11  -0.18    -0.02   0.06   0.05    -0.06  -0.23  -0.17
  13   1     0.24   0.11   0.05    -0.13  -0.05  -0.04     0.14   0.11  -0.06
  14   1    -0.10  -0.11   0.20     0.01   0.05  -0.10    -0.05  -0.03   0.07
  15   1    -0.08  -0.10   0.02    -0.06   0.03   0.03    -0.03  -0.02   0.02
  16   1    -0.07  -0.02  -0.00     0.01  -0.04   0.12     0.11  -0.05   0.01
  17   1     0.06   0.04   0.00     0.02  -0.03  -0.09     0.11  -0.02  -0.05
  18   1     0.07  -0.02  -0.03    -0.13   0.09   0.10    -0.04  -0.12  -0.00
  19   1     0.03   0.06  -0.02    -0.18   0.14   0.15    -0.13  -0.00   0.09
  20   1     0.02  -0.03  -0.00     0.06  -0.08   0.13     0.13   0.05   0.03
  21   1     0.04   0.03   0.03     0.11  -0.01   0.11     0.05  -0.01  -0.20
  22   1     0.09   0.08  -0.07     0.15   0.25  -0.12    -0.12  -0.07   0.07
  23   1     0.13  -0.15  -0.04     0.07  -0.02  -0.10    -0.17   0.31   0.05
  24   1     0.10   0.06   0.05    -0.02  -0.13   0.01    -0.05  -0.14  -0.20
                     13                     14                     15
                        a                      a                      a 
 Frequencies --   811.6146               851.3646               867.4628
 Red. masses --     4.0218                 5.9651                 5.6500
 Frc consts  --     0.0000                 0.0000                 0.0000
 IR Inten    --    11.4830                 4.1951                 1.8693
 Raman Activ --     0.0000                 0.0000                 0.0000
 Depolar     --     0.0000                 0.0000                 0.0000
 Atom AN      X      Y      Z        X      Y      Z        X      Y      Z
   1   6     0.06   0.08  -0.09    -0.07   0.15  -0.12    -0.02   0.07   0.01
   2   6     0.18  -0.08  -0.12    -0.12  -0.10  -0.06    -0.03   0.00   0.06
   3   6    -0.13  -0.26   0.20     0.03  -0.24   0.20     0.09  -0.18  -0.03
   4   6    -0.06  -0.06   0.05     0.15  -0.00   0.02    -0.00  -0.19  -0.17
   5   6    -0.02  -0.04  -0.09     0.18  -0.17  -0.01    -0.12  -0.10   0.18
   6   6     0.00   0.04  -0.03     0.05  -0.15   0.02    -0.12   0.11   0.31
   7   6     0.12   0.03   0.00    -0.18  -0.03  -0.03     0.15   0.25   0.05
   8   6     0.08   0.18   0.03    -0.18   0.33  -0.03     0.12   0.04  -0.16
   9   1    -0.09  -0.04   0.09    -0.00   0.08  -0.05     0.03  -0.05  -0.02
  10   1    -0.11  -0.16   0.14     0.02   0.07  -0.05     0.01   0.12  -0.12
  11   1    -0.13   0.34  -0.12     0.01  -0.01  -0.01     0.02  -0.09  -0.01
  12   1    -0.04   0.38   0.08    -0.04  -0.05  -0.06     0.01  -0.10  -0.02
  13   1    -0.29  -0.23   0.04    -0.02   0.03  -0.07     0.03   0.10  -0.08
  14   1    -0.06   0.09  -0.13     0.06   0.11  -0.11     0.12   0.10  -0.12
  15   1    -0.15   0.03   0.22    -0.08   0.06   0.25    -0.05   0.04   0.15
  16   1     0.05  -0.01  -0.02     0.11   0.10  -0.00     0.02   0.01  -0.04
  17   1     0.09   0.03   0.03    -0.11  -0.13  -0.12    -0.10  -0.08  -0.06
  18   1    -0.02  -0.12   0.00     0.04   0.17  -0.03     0.02   0.11  -0.01
  19   1    -0.03  -0.04   0.02     0.06   0.03  -0.03     0.21  -0.13  -0.18
  20   1     0.04   0.04  -0.00     0.00   0.00  -0.02    -0.37   0.06  -0.08
  21   1     0.01   0.03  -0.16     0.07  -0.13   0.20    -0.06   0.17  -0.25
  22   1    -0.07  -0.11   0.05     0.16   0.17  -0.10    -0.09  -0.23   0.04
  23   1    -0.06   0.09   0.04     0.22  -0.08  -0.08    -0.03  -0.05   0.02
  24   1     0.03   0.03  -0.10     0.01   0.25   0.25     0.04   0.02  -0.07
                     16                     17                     18
                        a                      a                      a 
 Frequencies --   896.2023               917.3108               961.0106
 Red. masses --     5.1897                 6.7433                 4.8615
 Frc consts  --     0.0000                 0.0000                 0.0000
 IR Inten    --     0.1753                 2.5606                 0.1351
 Raman Activ --     0.0000                 0.0000                 0.0000
 Depolar     --     0.0000                 0.0000                 0.0000
 Atom AN      X      Y      Z        X      Y      Z        X      Y      Z
   1   6     0.04  -0.14  -0.05     0.11  -0.15   0.27     0.00  -0.07   0.11
   2   6     0.00   0.02  -0.08     0.16   0.22   0.15     0.05   0.08  -0.01
   3   6    -0.15   0.30   0.05    -0.19  -0.07  -0.31    -0.06   0.04  -0.09
   4   6     0.06  -0.04   0.03    -0.12  -0.11   0.06     0.04   0.02   0.31
   5   6     0.09  -0.39  -0.01     0.16  -0.16   0.00    -0.07  -0.11  -0.20
   6   6    -0.00   0.02   0.15    -0.02  -0.06  -0.07     0.00   0.16   0.02
   7   6    -0.05   0.16   0.00    -0.00   0.03  -0.10     0.02  -0.13   0.20
   8   6     0.05   0.10  -0.09     0.02   0.27   0.13    -0.04   0.03  -0.27
   9   1    -0.05   0.13   0.02     0.01  -0.37   0.13     0.02  -0.11   0.03
  10   1     0.01  -0.22   0.22    -0.06   0.10  -0.14     0.00   0.06  -0.07
  11   1    -0.03   0.14   0.02    -0.04  -0.07  -0.07     0.01  -0.09   0.01
  12   1    -0.04   0.11  -0.03     0.04   0.05   0.03     0.03  -0.00   0.04
  13   1     0.03  -0.15   0.18     0.00   0.12  -0.05    -0.05   0.06  -0.08
  14   1    -0.08  -0.16   0.26    -0.05   0.03  -0.13    -0.12  -0.02  -0.05
  15   1     0.06  -0.09  -0.27    -0.15   0.01  -0.06    -0.05  -0.01  -0.06
  16   1    -0.02   0.01   0.03    -0.17  -0.02   0.08    -0.01   0.09   0.11
  17   1    -0.12  -0.22  -0.21    -0.04  -0.12  -0.18     0.22   0.02  -0.10
  18   1     0.05   0.18  -0.06     0.02   0.16  -0.02    -0.16  -0.14   0.08
  19   1     0.15   0.00  -0.11    -0.02   0.12   0.02    -0.05  -0.26   0.03
  20   1    -0.15   0.10  -0.06     0.06  -0.06   0.02     0.06   0.38  -0.08
  21   1     0.00   0.03  -0.02     0.12  -0.11  -0.06    -0.12   0.10   0.08
  22   1     0.02   0.01  -0.02    -0.03   0.12   0.01     0.13  -0.24  -0.06
  23   1     0.04   0.04  -0.04    -0.07   0.13   0.05     0.22  -0.08  -0.17
  24   1    -0.03  -0.01   0.03    -0.01   0.03  -0.06     0.08   0.17   0.07
                     19                     20                     21
                        a                      a                      a 
 Frequencies --   979.0230               999.7739              1027.5071
 Red. masses --     7.9471                 6.3874                 4.2110
 Frc consts  --     0.0000                 0.0000                 0.0000
 IR Inten    --     0.3637                 3.1281                 1.6735
 Raman Activ --     0.0000                 0.0000                 0.0000
 Depolar     --     0.0000                 0.0000                 0.0000
 Atom AN      X      Y      Z        X      Y      Z        X      Y      Z
   1   6     0.01   0.02  -0.04     0.03   0.14   0.01     0.11  -0.02   0.15
   2   6    -0.02  -0.02   0.02    -0.00  -0.13   0.01    -0.08   0.00  -0.09
   3   6     0.00  -0.02   0.02    -0.01  -0.05   0.06    -0.15   0.01   0.03
   4   6    -0.03  -0.01  -0.09    -0.03   0.28  -0.06     0.22   0.13  -0.01
   5   6     0.24   0.19  -0.01    -0.07  -0.30   0.10    -0.06   0.08  -0.14
   6   6    -0.40   0.23   0.15     0.13   0.10  -0.15     0.02  -0.02   0.24
   7   6    -0.11  -0.44   0.16    -0.16   0.01   0.19    -0.17  -0.01  -0.08
   8   6     0.20  -0.03  -0.12     0.26  -0.25  -0.14     0.15  -0.07   0.04
   9   1    -0.01   0.03  -0.01     0.01  -0.10   0.01    -0.01  -0.26   0.11
  10   1    -0.01  -0.03   0.03    -0.04   0.10  -0.10    -0.07   0.06  -0.09
  11   1    -0.01   0.05  -0.01    -0.03   0.03  -0.07    -0.06   0.03  -0.10
  12   1    -0.02   0.00  -0.03    -0.01  -0.00   0.00    -0.07   0.07  -0.09
  13   1     0.03  -0.02   0.04    -0.07   0.01  -0.08    -0.08   0.05  -0.11
  14   1     0.05   0.01   0.02    -0.12   0.00  -0.07    -0.18  -0.03  -0.04
  15   1     0.02  -0.00   0.02     0.15   0.02   0.11     0.02   0.00   0.01
  16   1    -0.03   0.03  -0.01    -0.04   0.17   0.03     0.18  -0.15  -0.12
  17   1     0.18   0.03  -0.15    -0.29  -0.15   0.01    -0.08   0.09   0.21
  18   1     0.09   0.13  -0.03    -0.05   0.12   0.03     0.17  -0.16  -0.15
  19   1    -0.03   0.15  -0.03    -0.01   0.18   0.03     0.17  -0.04  -0.11
  20   1    -0.17   0.13  -0.01     0.20   0.19  -0.02    -0.21   0.03  -0.04
  21   1     0.17  -0.32   0.05    -0.10   0.06   0.12    -0.02  -0.04   0.17
  22   1    -0.00   0.04   0.05    -0.13   0.13   0.13     0.14   0.06  -0.12
  23   1    -0.01   0.05  -0.03    -0.06   0.01   0.00     0.09   0.20  -0.13
  24   1     0.12   0.02  -0.20     0.10  -0.08  -0.21    -0.15  -0.26   0.09
                     22                     23                     24
                        a                      a                      a 
 Frequencies --  1055.3040              1070.2154              1095.0704
 Red. masses --     5.2350                 5.9089                 5.5734
 Frc consts  --     0.0000                 0.0000                 0.0000
 IR Inten    --     1.2864                 1.7323                 0.1131
 Raman Activ --     0.0000                 0.0000                 0.0000
 Depolar     --     0.0000                 0.0000                 0.0000
 Atom AN      X      Y      Z        X      Y      Z        X      Y      Z
   1   6     0.21  -0.12   0.05    -0.07  -0.27   0.01    -0.12  -0.19   0.10
   2   6    -0.27   0.11  -0.01     0.02   0.30  -0.07     0.11   0.19  -0.21
   3   6    -0.08  -0.05  -0.03     0.01  -0.13  -0.03    -0.07  -0.00   0.15
   4   6     0.27  -0.01  -0.18     0.03  -0.20  -0.01     0.06   0.04   0.00
   5   6     0.07   0.14   0.13    -0.26   0.02   0.11     0.17   0.08  -0.07
   6   6    -0.06  -0.13  -0.08     0.18   0.14  -0.06    -0.09  -0.23   0.02
   7   6    -0.05   0.08   0.16    -0.12  -0.12   0.05    -0.14   0.15   0.18
   8   6     0.01  -0.02  -0.13     0.13   0.14  -0.08     0.12  -0.05  -0.18
   9   1    -0.07  -0.21   0.16     0.00   0.13  -0.04     0.04   0.05  -0.06
  10   1    -0.09  -0.13   0.07     0.06  -0.16   0.15     0.06  -0.01   0.02
  11   1    -0.11   0.22  -0.15     0.05  -0.10   0.13     0.07  -0.20   0.12
  12   1    -0.19   0.01  -0.36     0.01   0.04  -0.03     0.06   0.11   0.09
  13   1     0.16   0.05   0.09     0.06   0.05   0.04    -0.15   0.05  -0.14
  14   1     0.23   0.04   0.07     0.22   0.06   0.01    -0.13  -0.01  -0.01
  15   1    -0.05   0.00   0.01    -0.29  -0.02  -0.04    -0.10  -0.02  -0.02
  16   1     0.01   0.11   0.01     0.09  -0.09  -0.05     0.16   0.08  -0.05
  17   1     0.03   0.02  -0.02    -0.27   0.03   0.26     0.13   0.02  -0.09
  18   1    -0.16   0.09   0.17     0.01  -0.08  -0.02     0.09   0.02  -0.05
  19   1    -0.14  -0.13   0.10     0.07   0.16  -0.03    -0.04  -0.02   0.03
  20   1     0.09  -0.06   0.03     0.09   0.19  -0.04    -0.09  -0.38   0.08
  21   1    -0.10   0.10   0.03     0.00  -0.07   0.10    -0.17   0.17   0.11
  22   1    -0.06  -0.04   0.06     0.02   0.08  -0.00    -0.16   0.10   0.13
  23   1     0.03  -0.08  -0.01     0.02   0.09  -0.04    -0.02  -0.06   0.01
  24   1     0.00   0.01   0.04     0.08   0.07  -0.13     0.13   0.10  -0.14
                     25                     26                     27
                        a                      a                      a 
 Frequencies --  1105.1449              1139.6088              1159.5479
 Red. masses --     6.1093                 5.4284                 7.3019
 Frc consts  --     0.0000                 0.0000                 0.0000
 IR Inten    --     0.5775                 1.8940                 2.8514
 Raman Activ --     0.0000                 0.0000                 0.0000
 Depolar     --     0.0000                 0.0000                 0.0000
 Atom AN      X      Y      Z        X      Y      Z        X      Y      Z
   1   6     0.02  -0.17   0.16     0.13   0.12   0.04    -0.03   0.22   0.03
   2   6    -0.09   0.12  -0.30    -0.17  -0.19  -0.04     0.13  -0.26   0.07
   3   6     0.04   0.12   0.20     0.16   0.18  -0.01    -0.23   0.15  -0.06
   4   6     0.13   0.07  -0.02    -0.06  -0.25   0.16     0.21  -0.30  -0.07
   5   6    -0.02  -0.06   0.07    -0.25  -0.06  -0.01     0.02   0.19   0.12
   6   6    -0.05   0.18  -0.04     0.14   0.15  -0.03     0.01  -0.12  -0.06
   7   6     0.25  -0.11  -0.07    -0.00  -0.13   0.03    -0.08   0.08   0.20
   8   6    -0.28  -0.12   0.07    -0.03   0.18  -0.02    -0.00   0.13  -0.27
   9   1     0.01  -0.14   0.05    -0.02  -0.17   0.08     0.03  -0.05  -0.02
  10   1    -0.01   0.01  -0.03    -0.07   0.06  -0.08    -0.01   0.16  -0.13
  11   1    -0.01  -0.08  -0.00    -0.06   0.11  -0.13    -0.00  -0.03  -0.03
  12   1    -0.04   0.10  -0.07    -0.06  -0.06  -0.06     0.06  -0.03   0.15
  13   1    -0.15   0.09  -0.21    -0.00  -0.01  -0.03    -0.03  -0.16   0.09
  14   1    -0.10  -0.03   0.05     0.05  -0.04   0.09    -0.16  -0.09   0.06
  15   1     0.05  -0.01  -0.01     0.11  -0.01  -0.08    -0.09  -0.05  -0.17
  16   1     0.23   0.05  -0.09     0.10  -0.12  -0.03     0.14  -0.12  -0.07
  17   1    -0.11  -0.04   0.03     0.13   0.01  -0.06    -0.14   0.06   0.18
  18   1    -0.01   0.05   0.02     0.04  -0.10  -0.07    -0.00   0.02   0.04
  19   1     0.01   0.19  -0.02     0.11   0.24  -0.06    -0.04  -0.00   0.04
  20   1     0.03   0.10  -0.01    -0.08  -0.32   0.05     0.10   0.09  -0.01
  21   1     0.21  -0.17  -0.25    -0.14   0.11   0.16     0.14  -0.14  -0.15
  22   1    -0.06  -0.06   0.06    -0.00   0.04   0.02    -0.13   0.05   0.12
  23   1    -0.08  -0.27   0.14    -0.01  -0.02   0.03     0.04  -0.11  -0.02
  24   1     0.02   0.12   0.10     0.20   0.29  -0.20    -0.02   0.05   0.09
                     28                     29                     30
                        a                      a                      a 
 Frequencies --  1172.1628              1187.4736              1218.7803
 Red. masses --     6.4761                 7.3270                 4.0517
 Frc consts  --     0.0000                 0.0000                 0.0000
 IR Inten    --     0.8297                 0.8707                 0.4091
 Raman Activ --     0.0000                 0.0000                 0.0000
 Depolar     --     0.0000                 0.0000                 0.0000
 Atom AN      X      Y      Z        X      Y      Z        X      Y      Z
   1   6    -0.07  -0.00   0.09    -0.05   0.04  -0.08    -0.02   0.08   0.06
   2   6     0.12  -0.05  -0.20     0.12   0.04   0.25     0.02  -0.10  -0.08
   3   6    -0.05   0.10   0.20    -0.30  -0.13  -0.18    -0.02   0.05   0.02
   4   6    -0.03  -0.17  -0.40     0.35   0.17  -0.15     0.04  -0.01   0.02
   5   6    -0.08   0.02   0.27    -0.08  -0.11   0.06     0.28   0.03   0.02
   6   6     0.09   0.11  -0.06    -0.06   0.23  -0.05    -0.24  -0.04  -0.01
   7   6    -0.06  -0.13  -0.04     0.17  -0.20  -0.00     0.03   0.01  -0.23
   8   6     0.12   0.17   0.12    -0.09  -0.04   0.11    -0.03  -0.06   0.22
   9   1     0.03  -0.03  -0.03    -0.00   0.09  -0.03     0.02  -0.07  -0.00
  10   1     0.01   0.09  -0.07     0.03  -0.01   0.03    -0.01   0.08  -0.07
  11   1     0.03  -0.12   0.03     0.02   0.01   0.04    -0.00  -0.05  -0.01
  12   1     0.04   0.07   0.05     0.03  -0.03   0.04    -0.00   0.04   0.01
  13   1    -0.17  -0.03  -0.14     0.11  -0.06   0.18    -0.01  -0.10   0.06
  14   1     0.02  -0.03   0.13    -0.23  -0.01  -0.16     0.09  -0.00   0.07
  15   1     0.07  -0.02  -0.02    -0.14  -0.01  -0.03    -0.10  -0.03  -0.08
  16   1    -0.05  -0.05  -0.08     0.21   0.05  -0.10     0.06  -0.09  -0.04
  17   1     0.17  -0.03  -0.19     0.01  -0.04  -0.05    -0.28  -0.02   0.17
  18   1    -0.27   0.11   0.25    -0.08   0.02   0.05     0.09   0.09  -0.02
  19   1    -0.03  -0.08   0.03     0.01   0.20  -0.02    -0.15  -0.21   0.06
  20   1     0.04   0.00   0.00    -0.08  -0.22   0.05     0.02   0.21  -0.03
  21   1    -0.10   0.04   0.16    -0.15   0.14   0.12    -0.19   0.19   0.16
  22   1     0.17  -0.09  -0.13     0.08  -0.14  -0.04     0.18  -0.09  -0.19
  23   1     0.00   0.15  -0.01    -0.01  -0.04   0.04    -0.12  -0.03   0.13
  24   1    -0.12  -0.16   0.06     0.01   0.03   0.04     0.24   0.23  -0.30
                     31                     32                     33
                        a                      a                      a 
 Frequencies --  1224.5556              1245.2086              1279.4656
 Red. masses --     4.5728                 3.6288                 2.7979
 Frc consts  --     0.0000                 0.0000                 0.0000
 IR Inten    --     0.8367                 0.5590                 0.6624
 Raman Activ --     0.0000                 0.0000                 0.0000
 Depolar     --     0.0000                 0.0000                 0.0000
 Atom AN      X      Y      Z        X      Y      Z        X      Y      Z
   1   6     0.01   0.00  -0.04    -0.14   0.12   0.19     0.15   0.02  -0.08
   2   6     0.01   0.02   0.09     0.11  -0.12  -0.22    -0.04  -0.10   0.02
   3   6    -0.08  -0.01  -0.05    -0.04  -0.05  -0.01    -0.08   0.06   0.09
   4   6     0.13   0.02  -0.03     0.06   0.17   0.03     0.05   0.02  -0.06
   5   6    -0.13   0.03  -0.04    -0.10  -0.06  -0.14     0.12  -0.03  -0.24
   6   6     0.25  -0.08   0.24     0.07   0.04   0.08     0.01   0.11   0.08
   7   6    -0.25   0.06  -0.25     0.03  -0.02  -0.02     0.01  -0.01   0.01
   8   6     0.04  -0.06   0.08    -0.03  -0.09   0.03    -0.01  -0.06   0.06
   9   1    -0.01   0.02  -0.00     0.06  -0.09  -0.04    -0.03  -0.02   0.04
  10   1     0.01  -0.03   0.03     0.01   0.21  -0.16    -0.04  -0.07   0.04
  11   1    -0.00   0.03   0.00     0.03  -0.21   0.03    -0.03   0.15  -0.07
  12   1     0.01  -0.04  -0.01    -0.08   0.20  -0.15     0.18  -0.28   0.33
  13   1     0.02   0.01   0.03     0.07  -0.31   0.30    -0.16   0.14  -0.27
  14   1    -0.11  -0.01  -0.06     0.39   0.05   0.15     0.19   0.00   0.16
  15   1    -0.00  -0.01  -0.01    -0.22  -0.03  -0.07    -0.33  -0.04  -0.14
  16   1     0.09   0.10  -0.01    -0.10   0.24   0.12    -0.11   0.25   0.11
  17   1     0.23   0.05  -0.10     0.07   0.02  -0.01    -0.17   0.01   0.15
  18   1    -0.25  -0.06   0.17    -0.04  -0.07  -0.01    -0.22  -0.04   0.14
  19   1     0.14  -0.21  -0.04     0.08   0.07  -0.04     0.04   0.03  -0.02
  20   1    -0.06   0.16  -0.05    -0.07  -0.08   0.01    -0.12  -0.17   0.03
  21   1     0.12  -0.17   0.02     0.04  -0.04  -0.03     0.03  -0.04  -0.01
  22   1    -0.05   0.25  -0.03    -0.07   0.07   0.06    -0.00  -0.01   0.01
  23   1    -0.26  -0.20   0.28     0.03   0.01  -0.03     0.05   0.06  -0.05
  24   1     0.16   0.13  -0.19    -0.03  -0.05   0.04     0.01  -0.01  -0.01
                     34                     35                     36
                        a                      a                      a 
 Frequencies --  1288.1021              1302.8793              1312.7942
 Red. masses --     3.2785                 4.1381                 3.6729
 Frc consts  --     0.0000                 0.0000                 0.0000
 IR Inten    --     0.8745                 2.4098                 3.8998
 Raman Activ --     0.0000                 0.0000                 0.0000
 Depolar     --     0.0000                 0.0000                 0.0000
 Atom AN      X      Y      Z        X      Y      Z        X      Y      Z
   1   6    -0.11  -0.04   0.01    -0.01  -0.02  -0.02     0.03   0.01   0.01
   2   6     0.10   0.05   0.05     0.04  -0.02   0.02    -0.06   0.01  -0.06
   3   6    -0.03   0.01   0.01    -0.04   0.01   0.04     0.07  -0.02   0.02
   4   6     0.14  -0.18  -0.02     0.14  -0.04   0.02     0.01   0.03   0.09
   5   6     0.13   0.00  -0.23     0.01   0.08  -0.14    -0.05  -0.04   0.02
   6   6     0.04   0.19   0.02    -0.13  -0.21   0.11     0.04   0.22  -0.15
   7   6    -0.08   0.03   0.08     0.18  -0.18  -0.12    -0.20   0.01   0.09
   8   6    -0.05   0.02  -0.01     0.09   0.21  -0.16     0.23   0.14  -0.15
   9   1     0.01   0.05  -0.04    -0.00   0.03  -0.01    -0.01  -0.02   0.02
  10   1     0.05   0.01   0.00     0.01  -0.00   0.00    -0.02   0.00  -0.01
  11   1     0.03  -0.08   0.07     0.00   0.01   0.01    -0.00   0.00  -0.01
  12   1    -0.11   0.17  -0.25    -0.01   0.02  -0.02     0.02  -0.03   0.07
  13   1    -0.02  -0.01   0.01    -0.06   0.04  -0.09     0.04  -0.02   0.04
  14   1    -0.16  -0.02  -0.05     0.01  -0.01   0.05    -0.02  -0.01  -0.00
  15   1     0.36   0.03   0.14     0.05   0.01   0.04    -0.11  -0.00  -0.02
  16   1    -0.33  -0.03   0.18    -0.31  -0.06   0.16    -0.05   0.14   0.09
  17   1    -0.27   0.02   0.24    -0.00   0.06   0.08    -0.06  -0.02   0.00
  18   1    -0.22  -0.06   0.15    -0.04  -0.04   0.01     0.22  -0.02  -0.17
  19   1    -0.00  -0.05   0.01     0.08   0.34  -0.06    -0.09  -0.19   0.05
  20   1    -0.13  -0.27   0.04    -0.02   0.21  -0.05    -0.00  -0.22   0.04
  21   1     0.08  -0.10  -0.05    -0.23   0.22   0.18     0.07  -0.13   0.03
  22   1     0.07  -0.07  -0.05    -0.09   0.08   0.07     0.23  -0.24  -0.19
  23   1     0.03   0.01  -0.03    -0.22  -0.24   0.25    -0.29  -0.31   0.35
  24   1     0.08   0.10  -0.09    -0.13  -0.10   0.18    -0.12  -0.16   0.13
                     37                     38                     39
                        a                      a                      a 
 Frequencies --  1320.6944              1330.2996              1341.5987
 Red. masses --     4.1355                 3.6556                 5.2095
 Frc consts  --     0.0000                 0.0000                 0.0000
 IR Inten    --     2.5951                 9.0732                 2.5355
 Raman Activ --     0.0000                 0.0000                 0.0000
 Depolar     --     0.0000                 0.0000                 0.0000
 Atom AN      X      Y      Z        X      Y      Z        X      Y      Z
   1   6    -0.01   0.00  -0.00     0.01   0.02   0.01    -0.02  -0.02  -0.05
   2   6     0.02  -0.00   0.01    -0.00   0.00  -0.04     0.13  -0.11   0.11
   3   6    -0.04   0.00  -0.01     0.02  -0.07   0.01    -0.27  -0.01   0.01
   4   6     0.01  -0.00  -0.01    -0.06   0.39   0.11     0.37   0.14  -0.06
   5   6    -0.05   0.07  -0.05     0.13  -0.10  -0.04    -0.23  -0.02   0.16
   6   6    -0.06  -0.34  -0.02     0.03   0.04   0.02     0.03   0.03  -0.06
   7   6    -0.15   0.28   0.19    -0.06   0.05   0.08    -0.04   0.04   0.01
   8   6     0.03  -0.10   0.08     0.00   0.01  -0.16    -0.13  -0.07   0.03
   9   1    -0.00  -0.00   0.00     0.01  -0.02   0.00     0.00   0.06  -0.03
  10   1     0.01   0.00  -0.00    -0.01  -0.00   0.00     0.03  -0.02   0.01
  11   1     0.01  -0.00   0.01     0.00  -0.02  -0.01    -0.00   0.03   0.01
  12   1     0.00  -0.01  -0.01     0.02  -0.05   0.02    -0.00   0.07   0.02
  13   1    -0.01  -0.00  -0.00    -0.01  -0.04   0.03    -0.15   0.15  -0.26
  14   1     0.03   0.01   0.01     0.15   0.03   0.04     0.24   0.03   0.13
  15   1     0.02  -0.00  -0.00    -0.12   0.00   0.01     0.06  -0.00   0.02
  16   1     0.01   0.08   0.02    -0.06  -0.73  -0.19    -0.33  -0.18   0.13
  17   1     0.12   0.05  -0.04    -0.01  -0.05  -0.05     0.13  -0.00  -0.11
  18   1    -0.07  -0.02   0.04    -0.24   0.00   0.20     0.31  -0.01  -0.25
  19   1     0.14   0.51  -0.10     0.03   0.03  -0.01    -0.03  -0.11   0.02
  20   1     0.09   0.09  -0.01    -0.03  -0.10   0.02     0.05   0.01  -0.00
  21   1     0.09  -0.05  -0.12     0.05  -0.06  -0.03     0.05  -0.04  -0.05
  22   1     0.35  -0.36  -0.27     0.02  -0.05  -0.01     0.01   0.01  -0.01
  23   1    -0.01   0.01   0.01    -0.03  -0.14   0.04     0.05  -0.02  -0.04
  24   1     0.09   0.05  -0.12    -0.01  -0.01  -0.01     0.09   0.12  -0.12
                     40                     41                     42
                        a                      a                      a 
 Frequencies --  1359.5613              1371.8626              1409.6994
 Red. masses --     4.2368                 4.4258                 3.3008
 Frc consts  --     0.0000                 0.0000                 0.0000
 IR Inten    --     8.1690                 8.8780                 1.9566
 Raman Activ --     0.0000                 0.0000                 0.0000
 Depolar     --     0.0000                 0.0000                 0.0000
 Atom AN      X      Y      Z        X      Y      Z        X      Y      Z
   1   6    -0.08  -0.09  -0.01     0.03   0.01   0.04    -0.05   0.36  -0.23
   2   6     0.15  -0.25   0.35    -0.13   0.03  -0.08     0.04  -0.07   0.11
   3   6     0.18   0.10  -0.03     0.37   0.00   0.24     0.06   0.04  -0.01
   4   6    -0.13   0.04   0.03     0.16   0.03  -0.20    -0.02   0.01  -0.01
   5   6     0.05  -0.01  -0.01    -0.09   0.01   0.05     0.01   0.01   0.01
   6   6    -0.00   0.01  -0.01     0.01  -0.03  -0.00    -0.00  -0.00  -0.00
   7   6    -0.01   0.00   0.00     0.00   0.02   0.01     0.00  -0.01   0.01
   8   6     0.05   0.00  -0.01    -0.08  -0.03   0.05     0.01  -0.01  -0.00
   9   1     0.02   0.21  -0.08    -0.00  -0.01   0.01    -0.09  -0.46   0.13
  10   1     0.05   0.09  -0.09    -0.04   0.02  -0.03     0.01  -0.30   0.39
  11   1    -0.04   0.11   0.00    -0.02   0.01  -0.04     0.23  -0.39   0.19
  12   1    -0.24   0.25  -0.43    -0.01  -0.05  -0.01    -0.07   0.02  -0.15
  13   1    -0.14   0.17  -0.27     0.08  -0.07   0.13    -0.09   0.03  -0.08
  14   1    -0.03  -0.01  -0.01    -0.44  -0.05  -0.18    -0.03  -0.03   0.02
  15   1    -0.33  -0.04  -0.22    -0.41  -0.05  -0.15    -0.11   0.00  -0.03
  16   1     0.13   0.04  -0.07    -0.40  -0.11   0.14     0.01   0.02  -0.00
  17   1    -0.01  -0.01  -0.01     0.07   0.02  -0.01    -0.01  -0.01  -0.03
  18   1    -0.03   0.01   0.03     0.05   0.02  -0.05     0.01  -0.03  -0.00
  19   1    -0.00  -0.00  -0.00     0.00   0.01   0.00    -0.00   0.00   0.00
  20   1     0.00  -0.02   0.01     0.01   0.03  -0.01    -0.00   0.00  -0.00
  21   1     0.01  -0.01   0.01     0.01  -0.00  -0.03    -0.01   0.01  -0.02
  22   1     0.01  -0.02  -0.01    -0.00   0.02   0.00     0.01   0.02  -0.00
  23   1    -0.02  -0.01   0.02     0.08   0.03  -0.07    -0.01   0.01  -0.00
  24   1    -0.03  -0.05   0.04     0.05   0.05  -0.09    -0.01  -0.01   0.02
                     43                     44                     45
                        a                      a                      a 
 Frequencies --  1481.9975              1483.5586              1484.1190
 Red. masses --     1.8972                 1.8632                 1.8854
 Frc consts  --     0.0000                 0.0000                 0.0000
 IR Inten    --     0.6642                 0.0152                 2.0010
 Raman Activ --     0.0000                 0.0000                 0.0000
 Depolar     --     0.0000                 0.0000                 0.0000
 Atom AN      X      Y      Z        X      Y      Z        X      Y      Z
   1   6     0.04   0.01   0.01    -0.01  -0.01   0.04     0.04   0.04   0.04
   2   6     0.00  -0.01   0.01    -0.01  -0.04  -0.02     0.02   0.00   0.03
   3   6    -0.04  -0.02   0.10     0.08   0.03  -0.23    -0.04  -0.01   0.04
   4   6     0.01   0.00   0.01     0.01   0.01  -0.02    -0.03  -0.00   0.03
   5   6     0.06   0.16   0.07     0.01   0.05   0.03    -0.02  -0.10  -0.06
   6   6     0.15  -0.05  -0.02     0.06  -0.02  -0.00    -0.04   0.02   0.01
   7   6     0.00  -0.03   0.03    -0.01  -0.04   0.04    -0.02  -0.12   0.11
   8   6    -0.02   0.04   0.02    -0.02   0.04   0.05    -0.03   0.14   0.08
   9   1    -0.03   0.08   0.02     0.07   0.04  -0.07     0.04   0.09  -0.05
  10   1    -0.14  -0.03  -0.02    -0.02  -0.02   0.02    -0.18  -0.10   0.04
  11   1    -0.00  -0.08  -0.06    -0.04  -0.03  -0.09    -0.03  -0.16  -0.16
  12   1    -0.00   0.01   0.01    -0.01   0.12   0.07    -0.00  -0.00  -0.01
  13   1     0.01   0.00   0.01     0.11   0.07  -0.02    -0.01   0.01  -0.01
  14   1     0.05   0.19  -0.18    -0.13  -0.42   0.39     0.04   0.11  -0.10
  15   1     0.10  -0.13  -0.21    -0.22   0.27   0.46     0.07  -0.07  -0.12
  16   1     0.00   0.02   0.01     0.02   0.03  -0.01     0.04   0.02  -0.01
  17   1    -0.24  -0.18  -0.34    -0.06  -0.05  -0.10     0.13   0.10   0.20
  18   1     0.02  -0.44   0.04    -0.00  -0.12   0.02    -0.02   0.25  -0.02
  19   1    -0.24   0.13   0.26    -0.10   0.05   0.11     0.05  -0.04  -0.06
  20   1    -0.33   0.07  -0.17    -0.14   0.03  -0.07     0.07  -0.03   0.05
  21   1    -0.03   0.04  -0.09    -0.04   0.05  -0.14    -0.13   0.14  -0.33
  22   1     0.07   0.08  -0.03     0.09   0.12  -0.04     0.21   0.30  -0.08
  23   1     0.07  -0.09   0.00     0.11  -0.12  -0.01     0.26  -0.32  -0.00
  24   1    -0.03  -0.06  -0.08    -0.03  -0.08  -0.14    -0.11  -0.24  -0.30
                     46                     47                     48
                        a                      a                      a 
 Frequencies --  1488.2763              1501.9301              1502.4480
 Red. masses --     1.9822                 1.8802                 1.8888
 Frc consts  --     0.0000                 0.0000                 0.0000
 IR Inten    --     2.0021                 0.5339                 1.2245
 Raman Activ --     0.0000                 0.0000                 0.0000
 Depolar     --     0.0000                 0.0000                 0.0000
 Atom AN      X      Y      Z        X      Y      Z        X      Y      Z
   1   6     0.02   0.04   0.05     0.08  -0.04  -0.09     0.04  -0.05  -0.02
   2   6     0.00  -0.00   0.02    -0.05  -0.13  -0.05     0.11   0.20   0.04
   3   6    -0.01   0.00  -0.00    -0.01  -0.01   0.01     0.02   0.02  -0.04
   4   6     0.02  -0.01  -0.00     0.01   0.01  -0.01     0.01  -0.00   0.00
   5   6     0.04   0.13   0.04     0.03   0.06   0.01     0.02   0.07   0.04
   6   6    -0.17   0.04   0.04    -0.11   0.04   0.04    -0.07   0.02   0.01
   7   6     0.03   0.08  -0.10    -0.02  -0.09   0.08    -0.01  -0.07   0.05
   8   6    -0.04   0.09   0.06     0.03  -0.06  -0.04     0.01  -0.01  -0.00
   9   1     0.09   0.07  -0.09    -0.29   0.11   0.27    -0.13   0.07   0.13
  10   1    -0.14  -0.09   0.06    -0.18   0.06  -0.17    -0.04   0.08  -0.13
  11   1    -0.06  -0.14  -0.19     0.13  -0.03   0.24     0.05   0.08   0.13
  12   1    -0.00   0.03   0.01    -0.02   0.30   0.18     0.03  -0.46  -0.30
  13   1     0.02   0.02  -0.01     0.30   0.16  -0.04    -0.48  -0.29   0.09
  14   1    -0.02  -0.01  -0.00     0.00   0.00  -0.00    -0.02  -0.08   0.08
  15   1     0.00   0.00   0.01    -0.01  -0.01  -0.01    -0.03   0.06   0.09
  16   1    -0.01   0.03   0.01    -0.02  -0.01   0.01    -0.00   0.01   0.00
  17   1    -0.18  -0.11  -0.22    -0.09  -0.05  -0.10    -0.09  -0.07  -0.12
  18   1    -0.00  -0.30   0.04    -0.04  -0.15   0.05     0.05  -0.16  -0.02
  19   1     0.26  -0.10  -0.28     0.17  -0.08  -0.18     0.09  -0.06  -0.10
  20   1     0.35  -0.04   0.18     0.22  -0.05   0.12     0.13  -0.02   0.07
  21   1     0.08  -0.09   0.27    -0.09   0.09  -0.23    -0.07   0.07  -0.17
  22   1    -0.18  -0.21   0.08     0.15   0.21  -0.06     0.11   0.16  -0.04
  23   1     0.18  -0.18  -0.02    -0.12   0.12   0.02    -0.02   0.02   0.01
  24   1    -0.06  -0.13  -0.20     0.05   0.10   0.13     0.01   0.01   0.01
                     49                     50                     51
                        a                      a                      a 
 Frequencies --  1507.7546              1522.0440              2906.5783
 Red. masses --     1.7124                 1.6931                 1.7559
 Frc consts  --     0.0000                 0.0000                 0.0000
 IR Inten    --     0.9910                 0.2009                70.3395
 Raman Activ --     0.0000                 0.0000                 0.0000
 Depolar     --     0.0000                 0.0000                 0.0000
 Atom AN      X      Y      Z        X      Y      Z        X      Y      Z
   1   6     0.18   0.01  -0.03    -0.05  -0.08  -0.13    -0.00  -0.00  -0.00
   2   6     0.05   0.02   0.02    -0.03  -0.02  -0.04     0.00   0.00  -0.00
   3   6    -0.00   0.01  -0.04    -0.00   0.00   0.01     0.01   0.02  -0.01
   4   6    -0.00  -0.00   0.00    -0.01   0.00   0.01     0.11  -0.06   0.22
   5   6    -0.03  -0.07  -0.02    -0.00  -0.01  -0.00    -0.01   0.01  -0.01
   6   6     0.07  -0.03  -0.02     0.02  -0.01  -0.00    -0.00   0.00  -0.00
   7   6     0.02   0.09  -0.07     0.01   0.05  -0.04     0.00  -0.00  -0.00
   8   6    -0.01   0.01   0.01    -0.05   0.13   0.09    -0.02  -0.01  -0.02
   9   1    -0.30   0.31   0.26    -0.22  -0.15   0.23     0.00   0.00   0.00
  10   1    -0.54  -0.06  -0.17     0.28   0.19  -0.12    -0.00  -0.00  -0.00
  11   1     0.11  -0.28   0.03     0.15   0.29   0.46    -0.00   0.00  -0.00
  12   1    -0.00  -0.02  -0.06     0.00   0.03   0.04    -0.01  -0.00   0.00
  13   1    -0.06  -0.03  -0.00     0.05   0.00   0.01    -0.00  -0.00  -0.00
  14   1    -0.01  -0.06   0.06     0.01   0.01  -0.00    -0.01   0.02   0.01
  15   1    -0.02   0.04   0.07     0.00  -0.00  -0.01    -0.01  -0.10   0.05
  16   1     0.02  -0.00  -0.01     0.02   0.02  -0.00    -0.41   0.23  -0.82
  17   1     0.10   0.07   0.12     0.01   0.01   0.01     0.01  -0.05   0.02
  18   1     0.00   0.18  -0.02    -0.01   0.01   0.00     0.02   0.01   0.03
  19   1    -0.10   0.05   0.11    -0.03   0.02   0.03     0.00  -0.00   0.00
  20   1    -0.13   0.03  -0.07    -0.04   0.01  -0.02    -0.00  -0.00  -0.00
  21   1     0.09  -0.09   0.22     0.04  -0.04   0.12    -0.00  -0.00   0.00
  22   1    -0.15  -0.21   0.06    -0.09  -0.09   0.05     0.00  -0.00  -0.00
  23   1     0.03  -0.01  -0.01     0.27  -0.29  -0.03     0.06   0.05   0.09
  24   1     0.00  -0.00  -0.04    -0.10  -0.24  -0.33     0.02  -0.02   0.00
                     52                     53                     54
                        a                      a                      a 
 Frequencies --  2945.6565              2949.8419              2962.6096
 Red. masses --     1.9241                 1.8623                 1.8560
 Frc consts  --     0.0000                 0.0000                 0.0000
 IR Inten    --    88.5538                61.7321                 3.5938
 Raman Activ --     0.0000                 0.0000                 0.0000
 Depolar     --     0.0000                 0.0000                 0.0000
 Atom AN      X      Y      Z        X      Y      Z        X      Y      Z
   1   6    -0.00  -0.00  -0.00    -0.01   0.00  -0.00     0.00   0.00  -0.00
   2   6    -0.05  -0.01   0.01     0.23  -0.01  -0.13     0.01   0.00  -0.00
   3   6    -0.03   0.28  -0.02    -0.02   0.06   0.05     0.01  -0.00  -0.01
   4   6    -0.01   0.01  -0.02    -0.00   0.00   0.00     0.00  -0.00   0.01
   5   6     0.00  -0.01   0.00     0.00  -0.00   0.00    -0.01   0.01  -0.01
   6   6     0.00  -0.00  -0.00    -0.00  -0.00  -0.00     0.05   0.01   0.11
   7   6    -0.00  -0.00  -0.00     0.00   0.00   0.00    -0.16  -0.03  -0.17
   8   6     0.01  -0.00   0.01     0.00  -0.00   0.00     0.05   0.01   0.05
   9   1     0.00   0.00   0.00     0.02   0.00   0.03     0.00   0.00   0.00
  10   1    -0.00   0.01   0.01     0.01  -0.03  -0.02    -0.00   0.00   0.00
  11   1    -0.00  -0.00   0.00     0.04   0.02  -0.02    -0.01  -0.00   0.01
  12   1     0.19   0.05  -0.07    -0.76  -0.23   0.27    -0.03  -0.01   0.01
  13   1    -0.02   0.02   0.02    -0.08   0.25   0.20    -0.00   0.00   0.00
  14   1     0.17  -0.30  -0.30     0.11  -0.23  -0.20    -0.02   0.04   0.04
  15   1    -0.08  -0.71   0.38    -0.01  -0.01   0.02    -0.00  -0.03   0.01
  16   1     0.03  -0.02   0.07     0.00  -0.00   0.00    -0.01   0.01  -0.02
  17   1    -0.00   0.02  -0.01    -0.00   0.00  -0.00     0.01  -0.04   0.01
  18   1    -0.00  -0.00  -0.00    -0.01  -0.00  -0.01     0.03   0.01   0.03
  19   1    -0.00   0.00  -0.00     0.00  -0.00   0.00    -0.28   0.03  -0.27
  20   1    -0.00   0.00   0.00    -0.00   0.00   0.00     0.08  -0.05  -0.15
  21   1     0.00   0.00  -0.00    -0.00  -0.00   0.00     0.18   0.20  -0.01
  22   1     0.00  -0.00   0.01    -0.01   0.00  -0.01     0.41  -0.10   0.64
  23   1    -0.02  -0.01  -0.03    -0.00  -0.00  -0.00    -0.12  -0.09  -0.19
  24   1    -0.01   0.01  -0.00    -0.01   0.00  -0.00    -0.06   0.05  -0.00
                     55                     56                     57
                        a                      a                      a 
 Frequencies --  2967.7867              2972.9026              2978.7873
 Red. masses --     1.5570                 1.8914                 1.8157
 Frc consts  --     0.0000                 0.0000                 0.0000
 IR Inten    --   123.8443                30.8305               180.9876
 Raman Activ --     0.0000                 0.0000                 0.0000
 Depolar     --     0.0000                 0.0000                 0.0000
 Atom AN      X      Y      Z        X      Y      Z        X      Y      Z
   1   6     0.01  -0.00  -0.00    -0.00  -0.00  -0.00     0.00   0.00   0.00
   2   6    -0.07   0.01   0.04     0.00   0.01   0.00    -0.01   0.01   0.01
   3   6    -0.08   0.03   0.18     0.00   0.00  -0.01    -0.01  -0.00   0.02
   4   6     0.00  -0.00   0.02    -0.01   0.00  -0.02     0.01  -0.00   0.02
   5   6    -0.00   0.01  -0.00    -0.03   0.03  -0.04    -0.03   0.04  -0.04
   6   6     0.00   0.00   0.01     0.12   0.01   0.20     0.04  -0.00   0.04
   7   6    -0.02  -0.00  -0.02     0.06   0.01   0.07     0.05  -0.03   0.09
   8   6    -0.01  -0.01  -0.02    -0.07  -0.02  -0.08     0.13   0.06   0.18
   9   1    -0.01  -0.00  -0.01     0.01   0.00   0.01    -0.00  -0.00  -0.00
  10   1    -0.01   0.02   0.02    -0.00   0.00   0.00     0.00  -0.00  -0.00
  11   1    -0.01  -0.01   0.01     0.01   0.00  -0.01     0.00   0.00  -0.00
  12   1     0.21   0.06  -0.07    -0.02  -0.00   0.01     0.01   0.00  -0.00
  13   1     0.03  -0.08  -0.06     0.01  -0.02  -0.01     0.02  -0.04  -0.04
  14   1     0.27  -0.57  -0.46    -0.01   0.02   0.01     0.02  -0.05  -0.04
  15   1     0.03   0.46  -0.20    -0.00  -0.04   0.02     0.00   0.05  -0.02
  16   1    -0.03   0.02  -0.05     0.03  -0.01   0.05    -0.04   0.02  -0.08
  17   1     0.01  -0.03   0.01     0.03  -0.13   0.04     0.04  -0.16   0.06
  18   1     0.00   0.00   0.00     0.09   0.02   0.11     0.07   0.02   0.09
  19   1    -0.03   0.00  -0.02    -0.54   0.05  -0.53    -0.14   0.01  -0.15
  20   1     0.01  -0.01  -0.03     0.11  -0.07  -0.20     0.01  -0.00   0.00
  21   1     0.02   0.02  -0.00    -0.07  -0.07   0.01     0.06   0.05   0.02
  22   1     0.04  -0.01   0.07    -0.16   0.04  -0.25    -0.22   0.04  -0.33
  23   1     0.04   0.03   0.07     0.18   0.14   0.29    -0.40  -0.30  -0.63
  24   1    -0.01  -0.00  -0.00     0.06  -0.06   0.00    -0.08   0.08   0.01
                     58                     59                     60
                        a                      a                      a 
 Frequencies --  2984.6901              2992.4276              2995.6422
 Red. masses --     1.5848                 1.9048                 1.6163
 Frc consts  --     0.0000                 0.0000                 0.0000
 IR Inten    --    72.8756               163.6565                65.5361
 Raman Activ --     0.0000                 0.0000                 0.0000
 Depolar     --     0.0000                 0.0000                 0.0000
 Atom AN      X      Y      Z        X      Y      Z        X      Y      Z
   1   6     0.01   0.02   0.03     0.00   0.00   0.00     0.00  -0.00   0.00
   2   6    -0.00  -0.19  -0.11     0.00  -0.02  -0.01     0.00   0.01   0.01
   3   6     0.00  -0.03   0.00     0.00   0.00  -0.01     0.00   0.00   0.00
   4   6     0.00  -0.00   0.01    -0.01   0.01  -0.02     0.00   0.00   0.00
   5   6     0.02  -0.01   0.03    -0.10   0.19  -0.14     0.05  -0.02   0.06
   6   6     0.01  -0.00   0.02     0.00  -0.02  -0.10     0.12  -0.06  -0.12
   7   6     0.00  -0.01   0.01    -0.01   0.02  -0.03    -0.08  -0.10   0.01
   8   6     0.01   0.00   0.01    -0.01  -0.01  -0.02    -0.02  -0.01  -0.02
   9   1    -0.07  -0.01  -0.07    -0.00  -0.00  -0.00    -0.00  -0.00  -0.00
  10   1     0.03  -0.07  -0.06     0.00  -0.01  -0.01    -0.00   0.00   0.00
  11   1    -0.00   0.00   0.01    -0.00  -0.00   0.00     0.00  -0.00  -0.00
  12   1     0.32   0.06  -0.13     0.03   0.00  -0.01    -0.02  -0.00   0.01
  13   1    -0.31   0.61   0.55    -0.04   0.08   0.07     0.02  -0.04  -0.03
  14   1    -0.01   0.02   0.02    -0.01   0.01   0.01     0.00  -0.00  -0.00
  15   1     0.01   0.08  -0.04    -0.00  -0.02   0.01    -0.00  -0.00   0.00
  16   1    -0.01   0.01  -0.02     0.03  -0.02   0.06    -0.00   0.00  -0.00
  17   1    -0.01   0.05  -0.02     0.20  -0.75   0.27    -0.02   0.09  -0.03
  18   1    -0.07  -0.01  -0.09     0.18   0.05   0.23    -0.14  -0.02  -0.18
  19   1    -0.05   0.00  -0.05     0.09  -0.01   0.07    -0.18   0.01  -0.22
  20   1     0.01  -0.00  -0.01    -0.12   0.09   0.27    -0.26   0.20   0.65
  21   1     0.02   0.01   0.00    -0.05  -0.04  -0.01     0.36   0.35   0.03
  22   1    -0.02   0.00  -0.03     0.07  -0.01   0.11    -0.07  -0.00  -0.09
  23   1    -0.02  -0.02  -0.03     0.05   0.04   0.08     0.05   0.04   0.08
  24   1    -0.00   0.00   0.00    -0.00  -0.00  -0.00     0.03  -0.02   0.00
                     61                     62                     63
                        a                      a                      a 
 Frequencies --  3003.6591              3011.0473              3017.3173
 Red. masses --     1.6351                 1.5406                 1.9364
 Frc consts  --     0.0000                 0.0000                 0.0000
 IR Inten    --   144.6754                96.2817                94.5507
 Raman Activ --     0.0000                 0.0000                 0.0000
 Depolar     --     0.0000                 0.0000                 0.0000
 Atom AN      X      Y      Z        X      Y      Z        X      Y      Z
   1   6     0.01   0.00   0.00     0.00   0.00   0.01     0.11   0.14   0.23
   2   6    -0.00   0.01   0.01     0.00   0.01   0.01     0.00   0.03   0.02
   3   6    -0.00  -0.00   0.00     0.00   0.00  -0.00    -0.00   0.01  -0.00
   4   6     0.01  -0.00   0.01     0.00   0.00   0.00    -0.00   0.00  -0.00
   5   6     0.05  -0.01   0.07     0.10   0.12   0.13    -0.00  -0.00  -0.01
   6   6     0.09  -0.03  -0.04    -0.03   0.02   0.06    -0.00   0.00  -0.00
   7   6     0.12   0.15  -0.03    -0.01  -0.02   0.01    -0.00  -0.00  -0.00
   8   6     0.04   0.00   0.03    -0.01   0.00  -0.00     0.00  -0.00  -0.00
   9   1    -0.01  -0.00  -0.01    -0.01  -0.00  -0.01    -0.52  -0.06  -0.50
  10   1    -0.00   0.00   0.00     0.00  -0.01  -0.01     0.19  -0.44  -0.36
  11   1    -0.01  -0.00   0.01     0.01   0.00  -0.00    -0.04   0.01   0.07
  12   1    -0.00   0.00   0.00    -0.02  -0.00   0.01    -0.05  -0.01   0.02
  13   1     0.01  -0.03  -0.02     0.03  -0.05  -0.05     0.04  -0.08  -0.08
  14   1     0.00  -0.01  -0.01    -0.00   0.00   0.00     0.00  -0.01  -0.01
  15   1     0.00   0.01  -0.01    -0.00  -0.02   0.01    -0.00  -0.02   0.01
  16   1    -0.01   0.01  -0.03     0.00   0.00   0.00     0.00  -0.00   0.00
  17   1    -0.01   0.06  -0.01     0.13  -0.38   0.17    -0.00   0.01  -0.00
  18   1    -0.18  -0.02  -0.23    -0.50  -0.05  -0.64     0.02   0.00   0.03
  19   1    -0.17   0.01  -0.19     0.02   0.00   0.03     0.00  -0.00   0.00
  20   1    -0.13   0.10   0.34     0.10  -0.08  -0.25     0.00  -0.00  -0.00
  21   1    -0.54  -0.52  -0.05     0.08   0.07   0.01     0.00   0.00  -0.00
  22   1     0.13  -0.00   0.17    -0.04   0.01  -0.05     0.00  -0.00   0.01
  23   1    -0.07  -0.05  -0.11     0.00   0.00   0.00     0.01   0.00   0.01
  24   1    -0.06   0.05  -0.01     0.02  -0.01   0.01    -0.01   0.00  -0.00
                     64                     65                     66
                        a                      a                      a 
 Frequencies --  3025.5999              3037.1662              3056.2420
 Red. masses --     1.5788                 1.6579                 1.6184
 Frc consts  --     0.0000                 0.0000                 0.0000
 IR Inten    --    83.1780                42.8993                41.0531
 Raman Activ --     0.0000                 0.0000                 0.0000
 Depolar     --     0.0000                 0.0000                 0.0000
 Atom AN      X      Y      Z        X      Y      Z        X      Y      Z
   1   6    -0.19   0.12   0.03     0.03  -0.01  -0.00    -0.19  -0.07   0.13
   2   6    -0.02   0.01   0.01     0.00  -0.00  -0.00    -0.01  -0.00   0.01
   3   6    -0.00   0.00   0.00    -0.00   0.00   0.00    -0.00  -0.00   0.00
   4   6    -0.00   0.00   0.00    -0.00   0.00  -0.00     0.00  -0.00   0.00
   5   6     0.00  -0.00   0.00    -0.00  -0.00  -0.00    -0.00  -0.00  -0.00
   6   6     0.00  -0.00  -0.00     0.00  -0.00  -0.00     0.00  -0.00  -0.00
   7   6    -0.00   0.00  -0.00    -0.00   0.01  -0.01    -0.00   0.00  -0.01
   8   6    -0.02   0.02  -0.00    -0.18   0.16  -0.01    -0.00   0.00   0.00
   9   1     0.41   0.08   0.44    -0.05  -0.01  -0.05    -0.13  -0.02  -0.08
  10   1     0.18  -0.54  -0.47    -0.02   0.05   0.05    -0.04   0.04   0.05
  11   1     0.09   0.04  -0.05    -0.03  -0.01   0.02     0.83   0.22  -0.41
  12   1     0.05   0.01  -0.02    -0.01  -0.00   0.00     0.03   0.01  -0.01
  13   1     0.01  -0.02  -0.02    -0.00   0.00   0.00     0.00  -0.01  -0.01
  14   1     0.00  -0.01  -0.01     0.01  -0.01  -0.01    -0.00  -0.00   0.00
  15   1     0.00   0.01  -0.01    -0.00  -0.00   0.00    -0.00   0.00  -0.00
  16   1    -0.00   0.00  -0.00     0.00   0.00   0.00    -0.00   0.00  -0.00
  17   1    -0.00   0.00  -0.00    -0.00   0.00  -0.00    -0.00   0.00  -0.00
  18   1    -0.00  -0.00  -0.01     0.01   0.00   0.01     0.00   0.00   0.00
  19   1    -0.00   0.00  -0.00     0.00  -0.00   0.00     0.00  -0.00   0.00
  20   1    -0.00   0.00   0.01    -0.01   0.01   0.02    -0.00   0.00   0.01
  21   1    -0.01  -0.01  -0.00    -0.04  -0.03  -0.00    -0.00  -0.00  -0.00
  22   1     0.01  -0.00   0.01     0.03  -0.01   0.05     0.01  -0.00   0.02
  23   1    -0.01  -0.00  -0.01    -0.12  -0.04  -0.14    -0.01  -0.00  -0.01
  24   1     0.08  -0.06   0.02     0.76  -0.52   0.18     0.02  -0.01   0.00
