      -----------------------------------------------------------      
     |                   =====================                   |     
     |                           x T B                           |     
     |                   =====================                   |     
     |                         S. Grimme                         |     
     |          Mulliken Center for Theoretical Chemistry        |     
     |                    University of Bonn                     |     
      -----------------------------------------------------------      

   * xtb version 6.7.1 (edcfbbe) compiled by 'albert@albert-system' on 2024-07-22

   xtb is free software: you can redistribute it and/or modify it under
   the terms of the GNU Lesser General Public License as published by
   the Free Software Foundation, either version 3 of the License, or
   (at your option) any later version.
   
   xtb is distributed in the hope that it will be useful,
   but WITHOUT ANY WARRANTY; without even the implied warranty of
   MERCHANTABILITY or FITNESS FOR A PARTICULAR PURPOSE.  See the
   GNU Lesser General Public License for more details.
   
   Cite this work as:
   * C. Bannwarth, E. Caldeweyher, S. Ehlert, A. Hansen, P. Pracht,
     J. Seibert, S. Spicher, S. Grimme, WIREs Comput. Mol. Sci., 2020, 11,
     e01493. DOI: 10.1002/wcms.1493
   
   for GFN2-xTB:
   * C. Bannwarth, S. Ehlert and S. Grimme., J. Chem. Theory Comput., 2019,
     15, 1652-1671. DOI: 10.1021/acs.jctc.8b01176
   for GFN1-xTB:
   * S. Grimme, C. Bannwarth, P. Shushkov, J. Chem. Theory Comput., 2017,
     13, 1989-2009. DOI: 10.1021/acs.jctc.7b00118
   for GFN0-xTB:
   * P. Pracht, E. Caldeweyher, S. Ehlert, S. Grimme, ChemRxiv, 2019, preprint.
     DOI: 10.26434/chemrxiv.8326202.v1
   for GFN-FF:
   * S. Spicher and S. Grimme, Angew. Chem. Int. Ed., 2020, 59, 15665-15673.
     DOI: 10.1002/anie.202004239
   
   for ALPB and GBSA implicit solvation:
   * S. Ehlert, M. Stahn, S. Spicher, S. Grimme, J. Chem. Theory Comput.,
     2021, 17, 4250-4261. DOI: 10.1021/acs.jctc.1c00471
   
   for ddCOSMO and CPCM-X implicit solvation:
   * M. Stahn, S. Ehlert, S. Grimme, J. Phys. Chem. A,
     2023, XX, XXXX-XXXX. DOI: 10.1021/acs.jpca.3c04382
   
   for DFT-D4:
   * E. Caldeweyher, C. Bannwarth and S. Grimme, J. Chem. Phys., 2017,
     147, 034112. DOI: 10.1063/1.4993215
   * E. Caldeweyher, S. Ehlert, A. Hansen, H. Neugebauer, S. Spicher,
     C. Bannwarth and S. Grimme, J. Chem. Phys., 2019, 150, 154122.
     DOI: 10.1063/1.5090222
   * E. Caldeweyher, J.-M. Mewes, S. Ehlert and S. Grimme, Phys. Chem. Chem. Phys.
     2020, 22, 8499-8512. DOI: 10.1039/D0CP00502A
   
   for sTDA-xTB:
   * S. Grimme and C. Bannwarth, J. Chem. Phys., 2016, 145, 054103.
     DOI: 10.1063/1.4959605
   
   in the mass-spec context:
   * V. Asgeirsson, C. Bauer and S. Grimme, Chem. Sci., 2017, 8, 4879.
     DOI: 10.1039/c7sc00601b
   * J. Koopman and S. Grimme, ACS Omega 2019, 4, 12, 15120-15133.
     DOI: 10.1021/acsomega.9b02011
   
   for metadynamics refer to:
   * S. Grimme, J. Chem. Theory Comput., 2019, 155, 2847-2862
     DOI: 10.1021/acs.jctc.9b00143
   
   for SPH calculations refer to:
   * S. Spicher and S. Grimme, J. Chem. Theory Comput., 2021, 17, 1701-1714
     DOI: 10.1021/acs.jctc.0c01306
   
   for ONIOM refer to:
   * C. Plett, A. Katbashev, S. Ehlert, S. Grimme, M. Bursch,
     Phys. Chem. Chem. Phys., 2023, 25, 17860-17868. DOI: 10.1039/D3CP02178E
   
   for DIPRO refer to:
   * J. Kohn, N. Gildemeister, S. Grimme, D. Fazzi, A. Hansen,
     J. Chem. Phys., 2023, just accepted.
   
   for PTB refer to:
   * S. Grimme, M. Mueller, A. Hansen, J. Chem. Phys., 2023, 158, 124111.
     DOI: 10.1063/5.0137838
   
   with help from (in alphabetical order)
   P. Atkinson, C. Bannwarth, F. Bohle, G. Brandenburg, E. Caldeweyher
   M. Checinski, S. Dohm, S. Ehlert, S. Ehrlich, I. Gerasimov, C. Hölzer
   A. Katbashev, J. Kohn, J. Koopman, C. Lavigne, S. Lehtola, F. März, M. Müller,
   F. Musil, H. Neugebauer, J. Pisarek, C. Plett, P. Pracht, F. Pultar,
   J. Seibert, P. Shushkov, S. Spicher, M. Stahn, M. Steiner, T. Strunk,
   J. Stückrath, T. Rose, and J. Unsleber
   
 * started run on 2025/04/11 at 12:58:22.926     
   ID    Z sym.   atoms
    1    6 C      1-3, 6, 7
    2    8 O      4, 5
    3    1 H      8-17

           -------------------------------------------------
          |                Calculation Setup                |
           -------------------------------------------------

          program call               : /srv/scratch/z5358697/.xtb/bin/xtb xtb_opt.coord --opt normal --orca -I xtb_opt-xcontrol-inp
          hostname                   : k071
          coordinate file            : xtb_opt.coord
          omp threads                :                    16

           -------------------------------------------------
          |                   Orca driver                   |
           -------------------------------------------------
orca executable           : /apps/z_install_tree/linux-rocky8-ivybridge/gcc-12.2.0/orca-6.0.0-srtngmq3qlimg2qxbl6avaaiffipurdx/bin/orca
orca input file           : xtb_opt.inp
orca input line           : 
orca parallel             : true
orca number of threads    : 16
                         * ORCA takes the control...
  ------------------------------------------------------------------------

                                 *****************
                                 * O   R   C   A *
                                 *****************

                                            #,                                       
                                            ###                                      
                                            ####                                     
                                            #####                                    
                                            ######                                   
                                           ########,                                 
                                     ,,################,,,,,                         
                               ,,#################################,,                 
                          ,,##########################################,,             
                       ,#########################################, ''#####,          
                    ,#############################################,,   '####,        
                  ,##################################################,,,,####,       
                ,###########''''           ''''###############################       
              ,#####''   ,,,,##########,,,,          '''####'''          '####       
            ,##' ,,,,###########################,,,                        '##       
           ' ,,###''''                  '''############,,,                           
         ,,##''                                '''############,,,,        ,,,,,,###''
      ,#''                                            '''#######################'''  
     '                                                          ''''####''''         
             ,#######,   #######,   ,#######,      ##                                
            ,#'     '#,  ##    ##  ,#'     '#,    #''#        ,####,   ,####,        
            ##       ##  ##   ,#'  ##            #'  '#       #'       #'  '#        
            ##       ##  #######   ##           ,######,      #####,   #    #        
            '#,     ,#'  ##    ##  '#,     ,#' ,#      #,     #,   #   #,  ,#        
             '#######'   ##     ##  '#######'  #'      '#     '####' # '####'        



                #########################################################
                #                        -***-                          #
                #          Department of theory and spectroscopy        #
                #                                                       #
                #                      Frank Neese                      #
                #                                                       #
                #     Directorship, Architecture, Infrastructure        #
                #                    SHARK, DRIVERS                     #
                #        Core code/Algorithms in most modules           #
                #                                                       #
                #        Max Planck Institute fuer Kohlenforschung      #
                #                Kaiser Wilhelm Platz 1                 #
                #                 D-45470 Muelheim/Ruhr                 #
                #                      Germany                          #
                #                                                       #
                #                  All rights reserved                  #
                #                        -***-                          #
                #########################################################


                         Program Version 6.0.0  -   RELEASE  -


 With contributions from (in alphabetic order):
   Daniel Aravena         : Magnetic Suceptibility
   Michael Atanasov       : Ab Initio Ligand Field Theory (pilot matlab implementation)
   Alexander A. Auer      : GIAO ZORA, VPT2 properties, NMR spectrum
   Ute Becker             : All parallelization in ORCA, NUMFREQ, NUMCALC
   Giovanni Bistoni       : ED, misc. LED, open-shell LED, HFLD
   Martin Brehm           : Molecular dynamics
   Dmytro Bykov           : pre 5.0 version of the SCF Hessian
   Marcos Casanova-Páez   : Triplet and SCS-CIS(D). UHF-(DLPNO)-IP/EA/STEOM-CCSD. UHF-CVS-IP/STEOM-CCSD
   Vijay G. Chilkuri      : MRCI spin determinant printing, contributions to CSF-ICE
   Pauline Colinet        : FMM embedding
   Dipayan Datta          : RHF DLPNO-CCSD density
   Achintya Kumar Dutta   : EOM-CC, STEOM-CC
   Nicolas Foglia         : Exact transition moments, OPA infrastructure, MCD improvements
   Dmitry Ganyushin       : Spin-Orbit,Spin-Spin,Magnetic field MRCI
   Miquel Garcia          : C-PCM and meta-GGA Hessian, CCSD/C-PCM, Gaussian charge scheme
   Tiago L. C. Gouveia    : GS-ROHF, GS-ROCIS
   Yang Guo               : DLPNO-NEVPT2, F12-NEVPT2, CIM, IAO-localization
   Andreas Hansen         : Spin unrestricted coupled pair/coupled cluster methods
   Ingolf Harden          : AUTO-CI MPn and infrastructure 
   Benjamin Helmich-Paris : MC-RPA, TRAH-(SCF,CASSCF), AVAS, COSX integrals, SCF dyn. polar.
   Lee Huntington         : MR-EOM, pCC
   Robert Izsak           : Overlap fitted RIJCOSX, COSX-SCS-MP3, EOM
   Riya Kayal             : Wick's Theorem for AUTO-CI, AUTO-CI UHF-CCSDT
   Emily Kempfer          : AUTO-CI, RHF CISDT and CCSDT
   Christian Kollmar      : KDIIS, OOCD, Brueckner-CCSD(T), CCSD density, CASPT2, CASPT2-K, improved NEVPT2
   Axel Koslowski         : Symmetry handling
   Simone Kossmann        : Meta GGA functionals, TD-DFT gradient, OOMP2, (MP2 Hessian; deprecated post 5.0)
   Lucas Lang             : DCDCAS
   Marvin Lechner         : AUTO-CI (C++ implementation), FIC-MRCC
   Spencer Leger          : CASSCF response
   Dagmar Lenk            : GEPOL surface, SMD, ORCA-2-JSON
   Dimitrios Liakos       : Extrapolation schemes; Compound Job, initial MDCI parallelization
   Dimitrios Manganas     : Further ROCIS development; embedding schemes. LFT, Crystal Embedding
   Dimitrios Pantazis     : SARC Basis sets
   Anastasios Papadopoulos: AUTO-CI, single reference methods and gradients
   Taras Petrenko         : pre 6.0 DFT Hessian and TD-DFT gradient, (ASA, deprecated), ECA, 1-Electron XAS/XES, NRVS
   Peter Pinski           : DLPNO-MP2, DLPNO-MP2 Gradient
   Christoph Reimann      : Effective Core Potentials
   Marius Retegan         : Local ZFS, SOC
   Christoph Riplinger    : Optimizer, TS searches, QM/MM, DLPNO-CCSD(T), (RO)-DLPNO pert. Triples
   Michael Roemelt        : Original ROCIS implementation
   Masaaki Saitow         : Open-shell DLPNO-CCSD energy and density
   Barbara Sandhoefer     : DKH picture change effects
   Kantharuban Sivalingam : CASSCF convergence/infrastructure, NEVPT2 and variants, FIC-MRCI
   Bernardo de Souza      : ESD, SOC TD-DFT
   Georgi Stoychev        : AutoAux, RI-MP2 NMR, DLPNO-MP2 response, X2C
   Van Anh Tran           : RI-MP2 g-tensors
   Willem Van den Heuvel  : Paramagnetic NMR
   Zikuan Wang            : NOTCH, Electric field optimization 
   Frank Wennmohs         : Technical directorship and infrastructure
   Hang Xu                : AUTO-CI-Response properties 


 We gratefully acknowledge several colleagues who have allowed us to
 interface, adapt or use parts of their codes:
   Stefan Grimme, W. Hujo, H. Kruse, P. Pracht,  : VdW corrections, initial TS optimization,
                  C. Bannwarth, S. Ehlert,         DFT functionals, gCP, sTDA/sTD-DF
                  L. Wittmann, M. Mueller
   Ed Valeev, F. Pavosevic, A. Kumar             : LibInt (2-el integral package), F12 methods
   Garnet Chan, S. Sharma, J. Yang, R. Olivares  : DMRG
   Ulf Ekstrom                                   : XCFun DFT Library
   Mihaly Kallay                                 : mrcc  (arbitrary order and MRCC methods)
   Frank Weinhold                                : gennbo (NPA and NBO analysis)
   Simon Mueller                                 : openCOSMO-RS
   Christopher J. Cramer and Donald G. Truhlar   : smd solvation model
   Lars Goerigk                                  : TD-DFT with DH, B97 family of functionals
   V. Asgeirsson, H. Jonsson                     : NEB implementation
   FAccTs GmbH                                   : IRC, NEB, NEB-TS, DLPNO-Multilevel, CI-OPT
                                                   MM, QMMM, 2- and 3-layer-ONIOM, Crystal-QMMM,
                                                   LR-CPCM, SF, NACMEs, symmetry and pop. for TD-DFT,
                                                   nearIR, NL-DFT gradient (VV10), updates on ESD,
                                                   ML-optimized integration grids, MBIS, APM,
                                                   GOAT, DOCKER, SOLVATOR, interface openCOSMO-RS
   S Lehtola, MJT Oliveira, MAL Marques          : LibXC Library
   Liviu Ungur et al                             : ANISO software


 Your calculation uses the libint2 library for the computation of 2-el integrals
 For citations please refer to: http://libint.valeyev.net

 Your ORCA version has been built with support for libXC version: 6.2.2
 For citations please refer to: https://libxc.gitlab.io

 This ORCA versions uses:
   CBLAS   interface :  Fast vector & matrix operations
   LAPACKE interface :  Fast linear algebra routines
   SCALAPACK package :  Parallel linear algebra routines
   Shared memory     :  Shared parallel matrices
   BLAS/LAPACK       :  OpenBLAS 0.3.27  USE64BITINT DYNAMIC_ARCH NO_AFFINITY SkylakeX SINGLE_THREADED
        Core in use  :  SkylakeX
   Copyright (c) 2011-2014, The OpenBLAS Project




***************************************
The coordinates will be read from file: xtb_opt.xyz
***************************************


Your calculation utilizes the geometrical counterpoise correction gCP
Please cite in your paper:
H.Kruse, S. Grimme J.Chem.Phys., 136, (2012), 154101 
   

Your calculation utilizes the atom-pairwise dispersion correction
based on EEQ partial charges (D4)


Your calculation utilizes the SMD solvation module
Please cite in your paper:
A.V. Marenich, C.J. Cramer, D.G. Truhlar J. Phys. Chem. B, 113, (2009), 6378 

================================================================================

----- Orbital basis set information -----
Your calculation utilizes the basis: def2-mTZVPP
   Stefan Grimme, Andreas Hansen, Sebastian Ehlert, and Jan-Michael Mewes 
   J. Chem. Phys. 154, 064103 (2021). DOI: 10.1063/5.0040021

----- AuxJ basis set information -----
Your calculation utilizes the auxiliary basis: def2/J
   F. Weigend, Phys. Chem. Chem. Phys. 8, 1057 (2006).

================================================================================
                                        WARNINGS
                       Please study these warnings very carefully!
================================================================================

WARNING: Old DensityContainer found on disk!
         Will remove this file - 
         If you want to keep old densities, please start your calculation with a different basename. 

Using LibXC functional ID 497 : Re-regularized SCAN exchange by Furness et al
[ 1]  J. W. Furness, A. D. Kaplan, J. Ning, J. P. Perdew, and J. Sun.,  J. Phys. Chem. Lett. 11, 8208-8215 (2020)
[ 2]  J. W. Furness, A. D. Kaplan, J. Ning, J. P. Perdew, and J. Sun.,  J. Phys. Chem. Lett. 11, 9248-9248 (2020)
Using LibXC functional ID 498 : Re-regularized SCAN correlation by Furness et al
[ 1]  J. W. Furness, A. D. Kaplan, J. Ning, J. P. Perdew, and J. Sun.,  J. Phys. Chem. Lett. 11, 8208-8215 (2020)
[ 2]  J. W. Furness, A. D. Kaplan, J. Ning, J. P. Perdew, and J. Sun.,  J. Phys. Chem. Lett. 11, 9248-9248 (2020)
Using LibXC functional ID 497 : Re-regularized SCAN exchange by Furness et al
[ 1]  J. W. Furness, A. D. Kaplan, J. Ning, J. P. Perdew, and J. Sun.,  J. Phys. Chem. Lett. 11, 8208-8215 (2020)
[ 2]  J. W. Furness, A. D. Kaplan, J. Ning, J. P. Perdew, and J. Sun.,  J. Phys. Chem. Lett. 11, 9248-9248 (2020)
Using LibXC functional ID 498 : Re-regularized SCAN correlation by Furness et al
[ 1]  J. W. Furness, A. D. Kaplan, J. Ning, J. P. Perdew, and J. Sun.,  J. Phys. Chem. Lett. 11, 8208-8215 (2020)
[ 2]  J. W. Furness, A. D. Kaplan, J. Ning, J. P. Perdew, and J. Sun.,  J. Phys. Chem. Lett. 11, 9248-9248 (2020)

================================================================================
                                       INPUT FILE
================================================================================
NAME = xtb_opt.inp
|  1> ! r2scan-3c def2/J RI DEFGRID2 scfconv7 ENGRAD tightSCF miniprint
|  2> %cpcm
|  3>     smd true
|  4>     smdsolvent "water"
|  5> end
|  6> * xyzfile 0 1 xtb_opt.xyz
|  7> 
|  8>                          ****END OF INPUT****
================================================================================

                     *******************************
                     * Energy+Gradient Calculation *
                     *******************************

---------------------------------
CARTESIAN COORDINATES (ANGSTROEM)
---------------------------------
  C     -2.116859    1.366321    0.083268
  C     -1.933513   -0.135113    0.317539
  C     -0.554663   -0.673019    0.045355
  O     -0.309932   -1.850232   -0.189616
  O      0.400869    0.268435    0.134456
  C      1.774797   -0.172845   -0.088540
  C      2.656835    1.046513    0.033761
  H     -1.816099    1.654241   -0.938791
  H     -3.175165    1.620980    0.210483
  H     -1.531192    1.967114    0.798753
  H     -2.631374   -0.730522   -0.292581
  H     -2.150744   -0.392595    1.373054
  H      2.023092   -0.937882    0.659293
  H      1.832375   -0.623841   -1.088199
  H      3.697202    0.746003   -0.125862
  H      2.396051    1.802697   -0.718179
  H      2.578232    1.494433    1.032801

----------------------------
CARTESIAN COORDINATES (A.U.)
----------------------------
  NO LB      ZA    FRAG     MASS         X           Y           Z
   0 C     6.0000    0    12.011   -4.000284    2.581972    0.157353
   1 C     6.0000    0    12.011   -3.653810   -0.255327    0.600062
   2 C     6.0000    0    12.011   -1.048162   -1.271821    0.085708
   3 O     8.0000    0    15.999   -0.585686   -3.496431   -0.358323
   4 O     8.0000    0    15.999    0.757533    0.507269    0.254084
   5 C     6.0000    0    12.011    3.353881   -0.326630   -0.167316
   6 C     6.0000    0    12.011    5.020690    1.977623    0.063799
   7 H     1.0000    0     1.008   -3.431930    3.126062   -1.774057
   8 H     1.0000    0     1.008   -6.000193    3.063209    0.397756
   9 H     1.0000    0     1.008   -2.893533    3.717307    1.509424
  10 H     1.0000    0     1.008   -4.972576   -1.380486   -0.552898
  11 H     1.0000    0     1.008   -4.064318   -0.741896    2.594696
  12 H     1.0000    0     1.008    3.823089   -1.772341    1.245883
  13 H     1.0000    0     1.008    3.462686   -1.178888   -2.056398
  14 H     1.0000    0     1.008    6.986700    1.409741   -0.237844
  15 H     1.0000    0     1.008    4.527881    3.406603   -1.357162
  16 H     1.0000    0     1.008    4.872152    2.824068    1.951712

------------------------------------------------------------------------------
                   ___                                                        
                  /   \      - P O W E R E D   B Y -                         
                 /     \                                                     
                 |  |  |   _    _      __       _____    __    __             
                 |  |  |  | |  | |    /  \     |  _  \  |  |  /  |          
                  \  \/   | |  | |   /    \    | | | |  |  | /  /          
                 / \  \   | |__| |  /  /\  \   | |_| |  |  |/  /          
                |  |  |   |  __  | /  /__\  \  |    /   |      \           
                |  |  |   | |  | | |   __   |  |    \   |  |\   \          
                \     /   | |  | | |  |  |  |  | |\  \  |  | \   \       
                 \___/    |_|  |_| |__|  |__|  |_| \__\ |__|  \__/        
                                                                              
                      - O R C A' S   B I G   F R I E N D -                    
                                      &                                       
                       - I N T E G R A L  F E E D E R -                       
                                                                              
 v1 FN, 2020, v2 2021, v3 2022-2024                                           
------------------------------------------------------------------------------


----------------------
SHARK INTEGRAL PACKAGE
----------------------

Number of atoms                             ...     17
Number of basis functions                   ...    193
Number of shells                            ...     95
Maximum angular momentum                    ...      2
Integral batch strategy                     ... SHARK/LIBINT Hybrid
RI-J (if used) integral strategy            ... SPLIT-RIJ (Revised 2003 algorithm where possible)
Printlevel                                  ...      1
Contraction scheme used                     ... SEGMENTED contraction
Prescreening option                         ... SCHWARTZ
   Thresh                                   ... 3.000e-11
   Tcut                                     ... 1.000e-12
   Tpresel                                  ... 1.000e-12 
Coulomb Range Separation                    ... NOT USED
Exchange Range Separation                   ... NOT USED
Multipole approximations                    ... NOT USED
Finite Nucleus Model                        ... NOT USED
CABS basis                                  ... NOT available
Auxiliary Coulomb fitting basis             ... AVAILABLE
   # of basis functions in Aux-J            ...    453
   # of shells in Aux-J                     ...    155
   Maximum angular momentum in Aux-J        ...      4
Auxiliary J/K fitting basis                 ... NOT available
Auxiliary Correlation fitting basis         ... NOT available
Auxiliary 'external' fitting basis          ... NOT available

Checking pre-screening integrals            ... done (  0.0 sec) Dimension = 95
Check shell pair data                       ... done (  0.0 sec)
Shell pair information
Shell pair cut-off parameter TPreSel        ...   1.0e-12
Total number of shell pairs                 ...      4560
Shell pairs after pre-screening             ...      4115
Total number of primitive shell pairs       ...     16115
Primitive shell pairs kept                  ...     10496
          la=0 lb=0:   1364 shell pairs
          la=1 lb=0:   1538 shell pairs
          la=1 lb=1:    448 shell pairs
          la=2 lb=0:    461 shell pairs
          la=2 lb=1:    259 shell pairs
          la=2 lb=2:     45 shell pairs

Calculating one electron integrals          ... done (  0.0 sec)
Calculating RI/J V-Matrix + Cholesky decomp.... done (  0.1 sec)
Calculating Nuclear repulsion               ... done (  0.0 sec) ENN=    314.346367769232 Eh

Diagonalization of the overlap matrix:
Smallest eigenvalue                        ... 1.826e-04
Time for diagonalization                   ...    0.004 sec
Threshold for overlap eigenvalues          ... 1.000e-07
Number of eigenvalues below threshold      ... 0
Time for construction of square roots      ...    0.016 sec
Total time needed                          ...    0.031 sec

-------------------
DFT GRID GENERATION
-------------------

General Integration Accuracy     IntAcc      ... 4.388
Radial Grid Type                 RadialGrid  ... OptM3 with GC (2021)
Angular Grid (max. ang.)         AngularGrid ... 4 (Lebedev-302)
Angular grid pruning method      GridPruning ... 4 (adaptive)
Weight generation scheme         WeightScheme... mBecke (2022)
Basis function cutoff            BFCut       ... 1.0000e-11
Integration weight cutoff        WCut        ... 1.0000e-14
Partially contracted basis set               ... off
Rotationally invariant grid construction     ... off
Angular grids for H and He will be reduced by one unit
Diffuse basis detected: some atoms will have their outermost
                        angular grid increased by 1.

Total number of grid points                  ...    75134
Total number of batches                      ...     1184
Average number of points per batch           ...       63
Average number of grid points per atom       ...     4420
Initializing property integral containers    ... done (  0.1 sec)

SHARK setup successfully completed in   1.0 seconds

Maximum memory used throughout the entire STARTUP-calculation: 33.7 MB
Occupation numbers will be reassigned to an Aufbau configuration
             **** ENERGY FILE WAS UPDATED (xtb_opt.en.tmp) ****
Finished Guess after   0.3 sec
Maximum memory used throughout the entire GUESS-calculation: 13.0 MB
--------------------
CPCM SOLVATION MODEL
--------------------
CPCM parameters:
  Epsilon                                         ...      78.3550
  Refrac                                          ...       1.3328
  Rsolv                                           ...       1.3000
  Surface type                                    ... GAUSSIAN VDW
  Discretization scheme                           ... Constant charge density
    Threshold for H atoms                         ...       5.0000 (charges/Ang^2)
    Threshold for non-H atoms                     ...       5.0000 (charges/Ang^2)
  Epsilon function type                           ...         CPCM
Solvent:                                          ... WATER
SMD-CDS solvent descriptors:
  Soln                                            ...       1.3328
  Soln25                                          ...       1.3323
  Sola                                            ...       0.0000
  Solb                                            ...       0.0000
  Solg                                            ...       0.0000
  Solc                                            ...       0.0000
  Solh                                            ...       0.0000
Radii:
  Scheme                                          ... Element-dependent radii
  Radius for C  used is    3.4960 Bohr (=   1.8500 Ang.)
  Radius for O  used is    2.8724 Bohr (=   1.5200 Ang.)
  Radius for H  used is    2.2677 Bohr (=   1.2000 Ang.)
Calculating surface                               ...        done! (  0.0s)
Cavity surface points                             ...         1294
Cavity Volume                                     ...     767.1965
Cavity Surface-area                               ...     522.5177
Calculating surface distance matrix               ...        done! (  0.0s)
Performing Cholesky decomposition & store         ...        done! (  0.1s)
Overall time for CPCM initialization              ...                 0.1s

----------------------------------------D-I-I-S--------------------------------------------
Iteration    Energy (Eh)           Delta-E    RMSDP     MaxDP     DIISErr   Damp  Time(sec)
-------------------------------------------------------------------------------------------
               ***  Starting incremental Fock matrix formation  ***
                              *** Initializing SOSCF ***
---------------------------------------S-O-S-C-F--------------------------------------
Iteration    Energy (Eh)           Delta-E    RMSDP     MaxDP     MaxGrad    Time(sec)
--------------------------------------------------------------------------------------
    1    -346.9568205325377903     0.00e+00  1.24e-06  4.60e-05  6.63e-06     2.4
               *** Restarting incremental Fock matrix formation ***
    2    -346.9568205294790459     3.06e-09  2.31e-06  8.70e-05  1.62e-05     2.5
                  *** Gradient check signals convergence ***

               *****************************************************
               *                     SUCCESS                       *
               *           SCF CONVERGED AFTER   2 CYCLES          *
               *****************************************************


SMD CDS free energy correction energy :                 4.73857     Kcal/mol
Total Energy after SMD CDS correction =              -346.949269146 Eh
             **** ENERGY FILE WAS UPDATED (xtb_opt.en.tmp) ****

----------------
TOTAL SCF ENERGY
----------------

Total Energy       :       -346.94926914573597 Eh           -9440.96958 eV

Components:
Nuclear Repulsion  :        314.34636776923162 Eh            8553.79953 eV
Electronic Energy  :       -661.28617240214180 Eh          -17994.51157 eV
One Electron Energy:      -1094.26964864755905 Eh          -29776.59095 eV
Two Electron Energy:        432.98347624541725 Eh           11782.07938 eV
CPCM Dielectric    :         -0.01701589656890 Eh              -0.46303 eV
SMD CDS (Gcds)     :          0.00755138374307 Eh               0.20548 eV

Virial components:
Potential Energy   :       -692.20873822545491 Eh          -18835.95737 eV
Kinetic Energy     :        345.25946907971894 Eh            9394.98779 eV
Virial Ratio       :          2.00489429028702

DFT components:
N(Alpha)           :       27.999967039183 electrons
N(Beta)            :       27.999967039183 electrons
N(Total)           :       55.999934078365 electrons
E(X)               :      -46.095365328054 Eh       
E(C)               :       -1.784812733761 Eh       
E(XC)              :      -47.880178061815 Eh       

CPCM Solvation Model Properties:
Surface-charge          :         -0.04456671011956
Corrected charge        :          0.00000000000000
Outlying charge corr.   :          0.00015777279867 Eh               0.00429 eV
Free-energy (cav+disp)  :          0.00755138374307 Eh               0.20548 eV

---------------
SCF CONVERGENCE
---------------

  Last Energy change         ...   -3.0587e-09  Tolerance :   1.0000e-07
  Last MAX-Density change    ...    8.6960e-05  Tolerance :   1.0000e-07
  Last RMS-Density change    ...    2.3104e-06  Tolerance :   5.0000e-09
  Last DIIS Error            ...    6.1417e-05  Tolerance :   1.0000e-07
  Last Orbital Gradient      ...    1.6213e-05  Tolerance :   1.0000e-04
  Last Orbital Rotation      ...    6.4315e-05  Tolerance :   1.0000e-04


----------------
ORBITAL ENERGIES
----------------

  NO   OCC          E(Eh)            E(eV) 
   0   2.0000     -19.002337      -517.0799 
   1   2.0000     -18.944107      -515.4953 
   2   2.0000     -10.165283      -276.6114 
   3   2.0000     -10.086272      -274.4614 
   4   2.0000     -10.043747      -273.3043 
   5   2.0000     -10.023275      -272.7472 
   6   2.0000     -10.022020      -272.7130 
   7   2.0000      -1.069371       -29.0991 
   8   2.0000      -0.982234       -26.7279 
   9   2.0000      -0.759030       -20.6543 
  10   2.0000      -0.721616       -19.6362 
  11   2.0000      -0.626417       -17.0457 
  12   2.0000      -0.589608       -16.0441 
  13   2.0000      -0.531414       -14.4605 
  14   2.0000      -0.462780       -12.5929 
  15   2.0000      -0.452091       -12.3020 
  16   2.0000      -0.448286       -12.1985 
  17   2.0000      -0.419960       -11.4277 
  18   2.0000      -0.377836       -10.2814 
  19   2.0000      -0.371632       -10.1126 
  20   2.0000      -0.358136        -9.7454 
  21   2.0000      -0.352059        -9.5800 
  22   2.0000      -0.332024        -9.0348 
  23   2.0000      -0.326641        -8.8883 
  24   2.0000      -0.319654        -8.6982 
  25   2.0000      -0.307094        -8.3565 
  26   2.0000      -0.278347        -7.5742 
  27   2.0000      -0.249703        -6.7948 
  28   0.0000      -0.026266        -0.7147 
  29   0.0000       0.072439         1.9712 
  30   0.0000       0.099950         2.7198 
  31   0.0000       0.117997         3.2109 
  32   0.0000       0.128777         3.5042 
  33   0.0000       0.140934         3.8350 
  34   0.0000       0.151300         4.1171 
  35   0.0000       0.162494         4.4217 
  36   0.0000       0.165486         4.5031 
  37   0.0000       0.172828         4.7029 
  38   0.0000       0.176554         4.8043 
*Only the first 10 virtual orbitals were printed.
Total SCF time: 0 days 0 hours 0 min 5 sec 
Finished LeanSCF after   5.7 sec

Maximum memory used throughout the entire LEANSCF-calculation: 24.0 MB


-------------------------------------------------------------------------------
                          DFT DISPERSION CORRECTION                            
                                                                               
                                DFTD4 V3.4.0                                   
-------------------------------------------------------------------------------
-------------------------   ----------------
Dispersion correction           -0.003902751
-------------------------   ----------------

------------------   -----------------
gCP correction             0.010079604
------------------   -----------------

-------------------------   --------------------
FINAL SINGLE POINT ENERGY      -346.943092292052
-------------------------   --------------------

------------------------------------------------------------------------------
                         ORCA SCF GRADIENT CALCULATION
------------------------------------------------------------------------------

Nuc. rep. gradient        (SHARK) ... done (  0.0 sec)
HCore & Overlap gradient  (SHARK) ... done (  0.2 sec)
Split-RIJ-J gradient      (SHARK) ... done (  1.2 sec)
XC gradient                       ... done (  4.9 sec)
CPCM gradient                     ... done (  0.7 sec)
SMD gradient                      ... done (  0.0 sec)
Dispersion correction             ... done (  0.0 sec)

-------------------
DISPERSION GRADIENT
-------------------

   1   C   :   -0.000072292    0.000048068    0.000001331
   2   C   :   -0.000070464   -0.000007962    0.000010766
   3   C   :   -0.000026162   -0.000042558   -0.000000806
   4   O   :   -0.000008242   -0.000080529   -0.000008933
   5   O   :    0.000023981   -0.000009520    0.000000376
   6   C   :    0.000067674   -0.000018897   -0.000006662
   7   C   :    0.000084370    0.000031549   -0.000000555
   8   H   :   -0.000031305    0.000023207   -0.000008602
   9   H   :   -0.000022575    0.000017672    0.000000557
  10   H   :   -0.000031454    0.000025413    0.000007289
  11   H   :   -0.000022164   -0.000008127   -0.000002157
  12   H   :   -0.000023737   -0.000005139    0.000012107
  13   H   :    0.000022393   -0.000008006    0.000002627
  14   H   :    0.000022761   -0.000007347   -0.000008246
  15   H   :    0.000022868    0.000009120   -0.000000503
  16   H   :    0.000032683    0.000017701   -0.000005890
  17   H   :    0.000031667    0.000015354    0.000007301

Difference to translation invariance:
           :    0.0000000000   -0.0000000000    0.0000000000

Difference to rotation invariance:
           :    0.0000000000   -0.0000000000   -0.0000000000

Norm of the Dispersion gradient    ...    0.0002133106
RMS gradient                       ...    0.0000298695
MAX gradient                       ...    0.0000843696
gCP correction                   ... done

------------------
CARTESIAN GRADIENT
------------------

   1   C   :   -0.001822421   -0.001794784    0.000316373
   2   C   :    0.001989135    0.001007251   -0.000871884
   3   C   :   -0.001662030    0.002309822   -0.002151260
   4   O   :    0.001258199   -0.003788170    0.000037451
   5   O   :    0.002329316    0.001337819    0.000757721
   6   C   :   -0.002315862    0.001529246    0.001031079
   7   C   :    0.000506225   -0.000982174   -0.000326532
   8   H   :    0.001753461    0.002089659   -0.005700725
   9   H   :   -0.001729899   -0.000485039    0.000081723
  10   H   :    0.003285465    0.003713093    0.004202030
  11   H   :   -0.003180392   -0.003035289   -0.002513181
  12   H   :   -0.000965718   -0.001475804    0.005490223
  13   H   :    0.000860799   -0.001993984    0.001496279
  14   H   :   -0.000148509   -0.001104996   -0.002357326
  15   H   :    0.000267707   -0.000410322    0.000017490
  16   H   :   -0.000444592    0.001957715   -0.001751517
  17   H   :    0.000019114    0.001125956    0.002242057

Difference to translation invariance:
           :    0.0000000000    0.0000000000   -0.0000000000

Difference to rotation invariance:
           :    0.0001306721   -0.0006239900    0.0001190410

Norm of the Cartesian gradient     ...    0.0151860178
RMS gradient                       ...    0.0021264678
MAX gradient                       ...    0.0057007252

-------
TIMINGS
-------

Total SCF gradient time     ....        7.672 sec

Densities                   ....       0.000 sec  (  0.0%)
One electron gradient       ....       0.219 sec  (  2.9%)
RI-J Coulomb gradient       ....       1.223 sec  ( 15.9%)
XC gradient                 ....       4.871 sec  ( 63.5%)
CPCM gradient               ....       0.709 sec  (  9.2%)
   A-Matrix (El+Nuc)        ....       0.055 sec  (  0.7%)
   Potential                ....       0.654 sec  (  8.5%)
SMD gradient                ....       0.014 sec  (  0.2%)

Maximum memory used throughout the entire SCFGRAD-calculation: 33.1 MB

------------------------------------------------------------------------------
                              ORCA PROPERTY CALCULATIONS
------------------------------------------------------------------------------

GBWName                                 ... xtb_opt.gbw
Number of atoms                         ...     17
Number of basis functions               ...    193
Max core memory                         ...   1024 MB

Electric properties:
Dipole moment                           ... YES
Quadrupole moment                       ...  NO
Static polarizability (Dipole/Dipole)   ...  NO
Static polarizability (Dipole/Quad.)    ...  NO
Static polarizability (Quad./Quad.)     ...  NO
Static polarizability (Velocity)        ...  NO

Atomic electric properties:
Dipole moment                           ...  NO
Quadrupole moment                       ...  NO
Static polarizability                   ...  NO

Choice of electric origin               ... Center of mass
Position of electric origin             ...     0.011181    -0.026934     0.087636

General magnetic properties:
Magnetizability                         ...  NO

EPR properties:
g-Tensor (aka g-matrix)                 ...  NO
Zero-Field splitting spin-orbit         ...  NO
Zero-field splitting spin-spin          ...  NO
Hyperfine couplings                     ...  NO (   0 nuclei)
Quadrupole couplings                    ...  NO (   0 nuclei)
Contact density                         ...  NO (   0 nuclei)

NMR properties:
Chemical shifts                         ...  NO (   0 nuclei)
Spin-rotation constants                 ...  NO (   0 nuclei)
Spin-spin couplings                     ...  NO (   0 nuclei,    0 pairs)

Choice of magnetic origin               ... GIAO
Position of magnetic origin             ...     0.000000     0.000000     0.000000

Properties with geometric perturbations:
SCF Hessian                             ...  NO
IR spectrum                             ...  NO
VCD spectrum                            ...  NO
X-ray spectroscopy properties:
SCF XES/XAS/RIXS spectra                ...  NO


-------------
DIPOLE MOMENT
-------------

Method             : SCF
Type of density    : Electron Density
Multiplicity       :   1
Irrep              :   0
Energy             :  -346.9492691457359683 Eh
Relativity type    : 
Basis              : AO
                                X                 Y                 Z
Electronic contribution:     -0.878298686      -5.141867146      -0.198116015
Nuclear contribution   :      1.092464844       6.303299018       0.417196714
                        -----------------------------------------
Total Dipole Moment    :      0.214166157       1.161431872       0.219080700
                        -----------------------------------------
Magnitude (a.u.)       :      1.201160892
Magnitude (Debye)      :      3.053108354



--------------------
Rotational spectrum 
--------------------
 
Rotational constants in cm-1:             0.137756             0.056272             0.041485 
Rotational constants in MHz :          4129.820039          1686.980360          1243.688392 

Dipole components along the rotational axes: 
x,y,z [a.u.] :    -0.288150     1.157737     0.139290 
x,y,z [Debye]:    -0.732419     2.942734     0.354048 

 

Dipole moment calculation done in   0.0 sec 

Maximum memory used throughout the entire PROP-calculation: 11.5 MB

--------------------------------
SUGGESTED CITATIONS FOR THIS RUN
--------------------------------

Below you find a list of papers that are relevant to this ORCA run
We neither can nor want to force you to cite these papers, but we appreciate if you do
You receive ORCA, which is the product of decades of hard work by many enthusiastic individuals, for free
The only thing we kindly ask in return is that you cite our papers,
We deeply appreciate it, if you show your appreciation for ORCA by not just citing the generic ORCA reference.

Please note that relegating all ORCA citations to the supporting information does *not* help us.
SI sections are not indexed - citations you put there will not count into any citation statistics
But we need these citations in order to attract the funding resources that allow us to do what we are doing

Therefore, if you are a happy ORCA user, please consider citing a few of the papers listed below in the main body of your paper

In addition to the list printed below, the program has created the file xtb_opt.bibtex that contains the list in bibtex format
You can import this file easily into all common literature databanks and citation aid programs


List of essential papers. We consider these as the minimum necessary citations

  1. Neese,F.
     Software update: the ORCA program system, version 5.0
     WIRES Comput. Molec. Sci., 2022 12(1)e1606
     doi.org/10.1002/wcms.1606
  2. Grimme,S.; Hansen,A.; Ehlert,S.; Mewes,J.
     r2SCAN-3c: A 'Swiss army knife' composite electronic-structure method
     J. Chem. Phys., 2021 154 064103
     doi.org/10.1063/5.0040021

List of papers to cite with high priority. The work reported in these papers was absolutely
necessary for this run to complete.
Our perspective: the developers of density functionals and basis sets usually get cited in chemistry papers
Good! But without the algorithms to do something with them, the functionals or basis sets would not do anything.
Hence, in our opinion, the algorithm design and method developments papers are equally worthy of getting cited

  1. Neese,F.
     An improvement of the resolution of the identity approximation for the formation of the Coulomb matrix
     J. Comp. Chem., 2003 24(14)1740-1747
     doi.org/10.1002/jcc.10318
  2. Garcia-Rates,M.; Neese,F.
     Effect of the Solute Cavity on the Solvation Energy and its Derivatives within the Framework of the Gaussian Charge Scheme
     J. Comput. Chem., 2020 41 922-939
     doi.org/10.1002/jcc.26139
  3. Neese,F.
     The SHARK Integral Generation and Digestion System
     J. Comp. Chem., 2022  1-16
     doi.org/10.1002/jcc.26942
  4. Lehtola,S.; Steigemann,C.; Oliveira,M.; Marques,M.
     Recent developments in Libxc - A comprehensive library of functionals for density functional theory
     Software X, 2018 7 
     doi.org/10.1016/j.softx.2017.11.002
  5. Caldeweyher,E.; Bannwarth,C.; Grimme,S.
     Extension of the D3 dispersion coefficient model
     J. Chem. Phys., 2017 147 034112-XXXX
     doi.org/10.1063/1.4993215
  6. Caldeweyher,E.; Ehlert,S.; Hansen,A.; Neugebauer,H.; Spicher,S.; Bannwarth,C.; Grimme,S.
     A generally applicable atomic-charge dependent London dispersion correction
     J. Chem. Phys., 2019 150 154122-XXXX
     doi.org/10.1063/1.5090222
  7. Caldeweyher,E.; Mewes,J.; Ehlert,S.; Grimme,S.
     Extension and evaluation of the D4 London-dispersion model for periodic systems
     Phys. Chem. Chem. Phys., 2020 22(16)8499-8512
     doi.org/10.1039/D0CP00502A

List of suggested additional citations. These are papers that are important in the 'surrounding' of 
of this run, or papers that preceded the highly important papers. If you like your results we are grateful for a citation.

  1. Neese,F.
     The ORCA program system
     WIRES Comput. Molec. Sci., 2012 2(1)73-78
     doi.org/10.1002/wcms.81
  2. Neese,F.
     Software update: the ORCA program system, version 4.0
     WIRES Comput. Molec. Sci., 2018 8(1)1-6
     doi.org/10.1002/wcms.1327
  3. Neese,F.; Wennmohs,F.; Becker,U.; Riplinger,C.
     The ORCA quantum chemistry program package
     J. Chem. Phys., 2020 152 Art. No. L224108
     doi.org/10.1063/5.0004608

List of optional additional citations

  1. Neese,F.
     Approximate second-order SCF convergence for spin unrestricted wavefunctions
     Chem. Phys. Lett., 2000 325(1-3)93-98
     doi.org/10.1016/s0009-2614(00)00662-x

Timings for individual modules:

Sum of individual times          ...       14.988 sec (=   0.250 min)
Startup calculation              ...        1.059 sec (=   0.018 min)   7.1 %
SCF iterations                   ...        6.056 sec (=   0.101 min)  40.4 %
Property calculations            ...        0.103 sec (=   0.002 min)   0.7 %
SCF Gradient evaluation          ...        7.770 sec (=   0.129 min)  51.8 %
                             ****ORCA TERMINATED NORMALLY****
TOTAL RUN TIME: 0 days 0 hours 0 minutes 15 seconds 847 msec
  ------------------------------------------------------------------------
          * successful ORCA run, taking over control again...

         :::::::::::::::::::::::::::::::::::::::::::::::::::::
         ::                  ORCA SUMMARY                   ::
         :::::::::::::::::::::::::::::::::::::::::::::::::::::
         :: total energy            -346.943092292052 Eh    ::
         :: gradient norm              0.015186017799 Eh/a0 ::
         :: HOMO-LUMO gap              0.000000000000 eV    ::
         :::::::::::::::::::::::::::::::::::::::::::::::::::::

      ----------------------------------------------------------- 
     |                       L-ANC optimizer                     |
      ----------------------------------------------------------- 
          low memory version by Sebastian Ehlert

          ...................................................
          :                      SETUP                      :
          :.................................................:
          :   energy convergence        0.5000000E-05 Eh    :
          :   grad. convergence         0.1000000E-02 Eh/a0 :
          :   optimization log               true           :
          :   writing optlog all                1     steps :
          :   Hessian reset                     8     steps :
          :   maximium step len.        1.0000000     a0    :
          :   LBFGS images                      8           :
          ...................................................
 * calculating model hessian...
Using Lindh-Hessian (1995)
 Shifting diagonal of input Hessian by   1.000000000000000E-002
 Lowest  eigenvalues of input Hessian
    0.000000    0.000000    0.000000    0.000000    0.000000    0.000000
    0.012501    0.012977    0.014257    0.019572    0.022322    0.024535
    0.030434    0.037340    0.048108    0.055894    0.057954    0.061600
 Highest eigenvalues
    1.160905    1.218939    1.238423    1.281258    1.730655    2.251419
 

........................................................................
.............................. CYCLE    1 ..............................
........................................................................
                         * ORCA takes the control...
  ------------------------------------------------------------------------

                                 *****************
                                 * O   R   C   A *
                                 *****************

                                            #,                                       
                                            ###                                      
                                            ####                                     
                                            #####                                    
                                            ######                                   
                                           ########,                                 
                                     ,,################,,,,,                         
                               ,,#################################,,                 
                          ,,##########################################,,             
                       ,#########################################, ''#####,          
                    ,#############################################,,   '####,        
                  ,##################################################,,,,####,       
                ,###########''''           ''''###############################       
              ,#####''   ,,,,##########,,,,          '''####'''          '####       
            ,##' ,,,,###########################,,,                        '##       
           ' ,,###''''                  '''############,,,                           
         ,,##''                                '''############,,,,        ,,,,,,###''
      ,#''                                            '''#######################'''  
     '                                                          ''''####''''         
             ,#######,   #######,   ,#######,      ##                                
            ,#'     '#,  ##    ##  ,#'     '#,    #''#        ,####,   ,####,        
            ##       ##  ##   ,#'  ##            #'  '#       #'       #'  '#        
            ##       ##  #######   ##           ,######,      #####,   #    #        
            '#,     ,#'  ##    ##  '#,     ,#' ,#      #,     #,   #   #,  ,#        
             '#######'   ##     ##  '#######'  #'      '#     '####' # '####'        



                #########################################################
                #                        -***-                          #
                #          Department of theory and spectroscopy        #
                #                                                       #
                #                      Frank Neese                      #
                #                                                       #
                #     Directorship, Architecture, Infrastructure        #
                #                    SHARK, DRIVERS                     #
                #        Core code/Algorithms in most modules           #
                #                                                       #
                #        Max Planck Institute fuer Kohlenforschung      #
                #                Kaiser Wilhelm Platz 1                 #
                #                 D-45470 Muelheim/Ruhr                 #
                #                      Germany                          #
                #                                                       #
                #                  All rights reserved                  #
                #                        -***-                          #
                #########################################################


                         Program Version 6.0.0  -   RELEASE  -


 With contributions from (in alphabetic order):
   Daniel Aravena         : Magnetic Suceptibility
   Michael Atanasov       : Ab Initio Ligand Field Theory (pilot matlab implementation)
   Alexander A. Auer      : GIAO ZORA, VPT2 properties, NMR spectrum
   Ute Becker             : All parallelization in ORCA, NUMFREQ, NUMCALC
   Giovanni Bistoni       : ED, misc. LED, open-shell LED, HFLD
   Martin Brehm           : Molecular dynamics
   Dmytro Bykov           : pre 5.0 version of the SCF Hessian
   Marcos Casanova-Páez   : Triplet and SCS-CIS(D). UHF-(DLPNO)-IP/EA/STEOM-CCSD. UHF-CVS-IP/STEOM-CCSD
   Vijay G. Chilkuri      : MRCI spin determinant printing, contributions to CSF-ICE
   Pauline Colinet        : FMM embedding
   Dipayan Datta          : RHF DLPNO-CCSD density
   Achintya Kumar Dutta   : EOM-CC, STEOM-CC
   Nicolas Foglia         : Exact transition moments, OPA infrastructure, MCD improvements
   Dmitry Ganyushin       : Spin-Orbit,Spin-Spin,Magnetic field MRCI
   Miquel Garcia          : C-PCM and meta-GGA Hessian, CCSD/C-PCM, Gaussian charge scheme
   Tiago L. C. Gouveia    : GS-ROHF, GS-ROCIS
   Yang Guo               : DLPNO-NEVPT2, F12-NEVPT2, CIM, IAO-localization
   Andreas Hansen         : Spin unrestricted coupled pair/coupled cluster methods
   Ingolf Harden          : AUTO-CI MPn and infrastructure 
   Benjamin Helmich-Paris : MC-RPA, TRAH-(SCF,CASSCF), AVAS, COSX integrals, SCF dyn. polar.
   Lee Huntington         : MR-EOM, pCC
   Robert Izsak           : Overlap fitted RIJCOSX, COSX-SCS-MP3, EOM
   Riya Kayal             : Wick's Theorem for AUTO-CI, AUTO-CI UHF-CCSDT
   Emily Kempfer          : AUTO-CI, RHF CISDT and CCSDT
   Christian Kollmar      : KDIIS, OOCD, Brueckner-CCSD(T), CCSD density, CASPT2, CASPT2-K, improved NEVPT2
   Axel Koslowski         : Symmetry handling
   Simone Kossmann        : Meta GGA functionals, TD-DFT gradient, OOMP2, (MP2 Hessian; deprecated post 5.0)
   Lucas Lang             : DCDCAS
   Marvin Lechner         : AUTO-CI (C++ implementation), FIC-MRCC
   Spencer Leger          : CASSCF response
   Dagmar Lenk            : GEPOL surface, SMD, ORCA-2-JSON
   Dimitrios Liakos       : Extrapolation schemes; Compound Job, initial MDCI parallelization
   Dimitrios Manganas     : Further ROCIS development; embedding schemes. LFT, Crystal Embedding
   Dimitrios Pantazis     : SARC Basis sets
   Anastasios Papadopoulos: AUTO-CI, single reference methods and gradients
   Taras Petrenko         : pre 6.0 DFT Hessian and TD-DFT gradient, (ASA, deprecated), ECA, 1-Electron XAS/XES, NRVS
   Peter Pinski           : DLPNO-MP2, DLPNO-MP2 Gradient
   Christoph Reimann      : Effective Core Potentials
   Marius Retegan         : Local ZFS, SOC
   Christoph Riplinger    : Optimizer, TS searches, QM/MM, DLPNO-CCSD(T), (RO)-DLPNO pert. Triples
   Michael Roemelt        : Original ROCIS implementation
   Masaaki Saitow         : Open-shell DLPNO-CCSD energy and density
   Barbara Sandhoefer     : DKH picture change effects
   Kantharuban Sivalingam : CASSCF convergence/infrastructure, NEVPT2 and variants, FIC-MRCI
   Bernardo de Souza      : ESD, SOC TD-DFT
   Georgi Stoychev        : AutoAux, RI-MP2 NMR, DLPNO-MP2 response, X2C
   Van Anh Tran           : RI-MP2 g-tensors
   Willem Van den Heuvel  : Paramagnetic NMR
   Zikuan Wang            : NOTCH, Electric field optimization 
   Frank Wennmohs         : Technical directorship and infrastructure
   Hang Xu                : AUTO-CI-Response properties 


 We gratefully acknowledge several colleagues who have allowed us to
 interface, adapt or use parts of their codes:
   Stefan Grimme, W. Hujo, H. Kruse, P. Pracht,  : VdW corrections, initial TS optimization,
                  C. Bannwarth, S. Ehlert,         DFT functionals, gCP, sTDA/sTD-DF
                  L. Wittmann, M. Mueller
   Ed Valeev, F. Pavosevic, A. Kumar             : LibInt (2-el integral package), F12 methods
   Garnet Chan, S. Sharma, J. Yang, R. Olivares  : DMRG
   Ulf Ekstrom                                   : XCFun DFT Library
   Mihaly Kallay                                 : mrcc  (arbitrary order and MRCC methods)
   Frank Weinhold                                : gennbo (NPA and NBO analysis)
   Simon Mueller                                 : openCOSMO-RS
   Christopher J. Cramer and Donald G. Truhlar   : smd solvation model
   Lars Goerigk                                  : TD-DFT with DH, B97 family of functionals
   V. Asgeirsson, H. Jonsson                     : NEB implementation
   FAccTs GmbH                                   : IRC, NEB, NEB-TS, DLPNO-Multilevel, CI-OPT
                                                   MM, QMMM, 2- and 3-layer-ONIOM, Crystal-QMMM,
                                                   LR-CPCM, SF, NACMEs, symmetry and pop. for TD-DFT,
                                                   nearIR, NL-DFT gradient (VV10), updates on ESD,
                                                   ML-optimized integration grids, MBIS, APM,
                                                   GOAT, DOCKER, SOLVATOR, interface openCOSMO-RS
   S Lehtola, MJT Oliveira, MAL Marques          : LibXC Library
   Liviu Ungur et al                             : ANISO software


 Your calculation uses the libint2 library for the computation of 2-el integrals
 For citations please refer to: http://libint.valeyev.net

 Your ORCA version has been built with support for libXC version: 6.2.2
 For citations please refer to: https://libxc.gitlab.io

 This ORCA versions uses:
   CBLAS   interface :  Fast vector & matrix operations
   LAPACKE interface :  Fast linear algebra routines
   SCALAPACK package :  Parallel linear algebra routines
   Shared memory     :  Shared parallel matrices
   BLAS/LAPACK       :  OpenBLAS 0.3.27  USE64BITINT DYNAMIC_ARCH NO_AFFINITY SkylakeX SINGLE_THREADED
        Core in use  :  SkylakeX
   Copyright (c) 2011-2014, The OpenBLAS Project




***************************************
The coordinates will be read from file: xtb_opt.xyz
***************************************


Your calculation utilizes the geometrical counterpoise correction gCP
Please cite in your paper:
H.Kruse, S. Grimme J.Chem.Phys., 136, (2012), 154101 
   

Your calculation utilizes the atom-pairwise dispersion correction
based on EEQ partial charges (D4)


Your calculation utilizes the SMD solvation module
Please cite in your paper:
A.V. Marenich, C.J. Cramer, D.G. Truhlar J. Phys. Chem. B, 113, (2009), 6378 

================================================================================

----- Orbital basis set information -----
Your calculation utilizes the basis: def2-mTZVPP
   Stefan Grimme, Andreas Hansen, Sebastian Ehlert, and Jan-Michael Mewes 
   J. Chem. Phys. 154, 064103 (2021). DOI: 10.1063/5.0040021

----- AuxJ basis set information -----
Your calculation utilizes the auxiliary basis: def2/J
   F. Weigend, Phys. Chem. Chem. Phys. 8, 1057 (2006).

================================================================================
                                        WARNINGS
                       Please study these warnings very carefully!
================================================================================

WARNING: Old DensityContainer found on disk!
         Will remove this file - 
         If you want to keep old densities, please start your calculation with a different basename. 

Using LibXC functional ID 497 : Re-regularized SCAN exchange by Furness et al
[ 1]  J. W. Furness, A. D. Kaplan, J. Ning, J. P. Perdew, and J. Sun.,  J. Phys. Chem. Lett. 11, 8208-8215 (2020)
[ 2]  J. W. Furness, A. D. Kaplan, J. Ning, J. P. Perdew, and J. Sun.,  J. Phys. Chem. Lett. 11, 9248-9248 (2020)
Using LibXC functional ID 498 : Re-regularized SCAN correlation by Furness et al
[ 1]  J. W. Furness, A. D. Kaplan, J. Ning, J. P. Perdew, and J. Sun.,  J. Phys. Chem. Lett. 11, 8208-8215 (2020)
[ 2]  J. W. Furness, A. D. Kaplan, J. Ning, J. P. Perdew, and J. Sun.,  J. Phys. Chem. Lett. 11, 9248-9248 (2020)
Using LibXC functional ID 497 : Re-regularized SCAN exchange by Furness et al
[ 1]  J. W. Furness, A. D. Kaplan, J. Ning, J. P. Perdew, and J. Sun.,  J. Phys. Chem. Lett. 11, 8208-8215 (2020)
[ 2]  J. W. Furness, A. D. Kaplan, J. Ning, J. P. Perdew, and J. Sun.,  J. Phys. Chem. Lett. 11, 9248-9248 (2020)
Using LibXC functional ID 498 : Re-regularized SCAN correlation by Furness et al
[ 1]  J. W. Furness, A. D. Kaplan, J. Ning, J. P. Perdew, and J. Sun.,  J. Phys. Chem. Lett. 11, 8208-8215 (2020)
[ 2]  J. W. Furness, A. D. Kaplan, J. Ning, J. P. Perdew, and J. Sun.,  J. Phys. Chem. Lett. 11, 9248-9248 (2020)

================================================================================
                                       INPUT FILE
================================================================================
NAME = xtb_opt.inp
|  1> ! r2scan-3c def2/J RI DEFGRID2 scfconv7 ENGRAD tightSCF miniprint
|  2> %cpcm
|  3>     smd true
|  4>     smdsolvent "water"
|  5> end
|  6> * xyzfile 0 1 xtb_opt.xyz
|  7> 
|  8>                          ****END OF INPUT****
================================================================================

                     *******************************
                     * Energy+Gradient Calculation *
                     *******************************

---------------------------------
CARTESIAN COORDINATES (ANGSTROEM)
---------------------------------
  C     -2.122825    1.364184    0.085507
  C     -1.931259   -0.132184    0.316199
  C     -0.552337   -0.672960    0.056257
  O     -0.311857   -1.846511   -0.190341
  O      0.402436    0.268207    0.134278
  C      1.777359   -0.172714   -0.090040
  C      2.659516    1.044192    0.032555
  H     -1.823923    1.647605   -0.929656
  H     -3.177216    1.624919    0.213728
  H     -1.537883    1.959678    0.793169
  H     -2.622388   -0.722547   -0.295195
  H     -2.154965   -0.388957    1.362905
  H      2.022856   -0.933524    0.658303
  H      1.836333   -0.624186   -1.085781
  H      3.700355    0.747298   -0.126737
  H      2.397357    1.797594   -0.716846
  H      2.578353    1.490595    1.028688

----------------------------
CARTESIAN COORDINATES (A.U.)
----------------------------
  NO LB      ZA    FRAG     MASS         X           Y           Z
   0 C     6.0000    0    12.011   -4.011558    2.577935    0.161584
   1 C     6.0000    0    12.011   -3.649551   -0.249792    0.597529
   2 C     6.0000    0    12.011   -1.043765   -1.271711    0.106311
   3 O     8.0000    0    15.999   -0.589325   -3.489400   -0.359693
   4 O     8.0000    0    15.999    0.760493    0.506838    0.253749
   5 C     6.0000    0    12.011    3.358723   -0.326382   -0.170150
   6 C     6.0000    0    12.011    5.025756    1.973237    0.061519
   7 H     1.0000    0     1.008   -3.446714    3.113521   -1.756796
   8 H     1.0000    0     1.008   -6.004068    3.070652    0.403888
   9 H     1.0000    0     1.008   -2.906178    3.703255    1.498873
  10 H     1.0000    0     1.008   -4.955595   -1.365417   -0.557837
  11 H     1.0000    0     1.008   -4.072294   -0.735021    2.575518
  12 H     1.0000    0     1.008    3.822644   -1.764105    1.244012
  13 H     1.0000    0     1.008    3.470167   -1.179541   -2.051828
  14 H     1.0000    0     1.008    6.992657    1.412189   -0.239498
  15 H     1.0000    0     1.008    4.530348    3.396961   -1.354643
  16 H     1.0000    0     1.008    4.872381    2.816816    1.943938

------------------------------------------------------------------------------
                   ___                                                        
                  /   \      - P O W E R E D   B Y -                         
                 /     \                                                     
                 |  |  |   _    _      __       _____    __    __             
                 |  |  |  | |  | |    /  \     |  _  \  |  |  /  |          
                  \  \/   | |  | |   /    \    | | | |  |  | /  /          
                 / \  \   | |__| |  /  /\  \   | |_| |  |  |/  /          
                |  |  |   |  __  | /  /__\  \  |    /   |      \           
                |  |  |   | |  | | |   __   |  |    \   |  |\   \          
                \     /   | |  | | |  |  |  |  | |\  \  |  | \   \       
                 \___/    |_|  |_| |__|  |__|  |_| \__\ |__|  \__/        
                                                                              
                      - O R C A' S   B I G   F R I E N D -                    
                                      &                                       
                       - I N T E G R A L  F E E D E R -                       
                                                                              
 v1 FN, 2020, v2 2021, v3 2022-2024                                           
------------------------------------------------------------------------------


----------------------
SHARK INTEGRAL PACKAGE
----------------------

Number of atoms                             ...     17
Number of basis functions                   ...    193
Number of shells                            ...     95
Maximum angular momentum                    ...      2
Integral batch strategy                     ... SHARK/LIBINT Hybrid
RI-J (if used) integral strategy            ... SPLIT-RIJ (Revised 2003 algorithm where possible)
Printlevel                                  ...      1
Contraction scheme used                     ... SEGMENTED contraction
Prescreening option                         ... SCHWARTZ
   Thresh                                   ... 3.000e-11
   Tcut                                     ... 1.000e-12
   Tpresel                                  ... 1.000e-12 
Coulomb Range Separation                    ... NOT USED
Exchange Range Separation                   ... NOT USED
Multipole approximations                    ... NOT USED
Finite Nucleus Model                        ... NOT USED
CABS basis                                  ... NOT available
Auxiliary Coulomb fitting basis             ... AVAILABLE
   # of basis functions in Aux-J            ...    453
   # of shells in Aux-J                     ...    155
   Maximum angular momentum in Aux-J        ...      4
Auxiliary J/K fitting basis                 ... NOT available
Auxiliary Correlation fitting basis         ... NOT available
Auxiliary 'external' fitting basis          ... NOT available

Checking pre-screening integrals            ... done (  0.0 sec) Dimension = 95
Check shell pair data                       ... done (  0.0 sec)
Shell pair information
Shell pair cut-off parameter TPreSel        ...   1.0e-12
Total number of shell pairs                 ...      4560
Shell pairs after pre-screening             ...      4114
Total number of primitive shell pairs       ...     16115
Primitive shell pairs kept                  ...     10502
          la=0 lb=0:   1364 shell pairs
          la=1 lb=0:   1538 shell pairs
          la=1 lb=1:    447 shell pairs
          la=2 lb=0:    461 shell pairs
          la=2 lb=1:    259 shell pairs
          la=2 lb=2:     45 shell pairs

Calculating one electron integrals          ... done (  0.1 sec)
Calculating RI/J V-Matrix + Cholesky decomp.... done (  0.1 sec)
Calculating Nuclear repulsion               ... done (  0.0 sec) ENN=    314.652925884745 Eh

Diagonalization of the overlap matrix:
Smallest eigenvalue                        ... 1.839e-04
Time for diagonalization                   ...    0.004 sec
Threshold for overlap eigenvalues          ... 1.000e-07
Number of eigenvalues below threshold      ... 0
Time for construction of square roots      ...    0.014 sec
Total time needed                          ...    0.028 sec

-------------------
DFT GRID GENERATION
-------------------

General Integration Accuracy     IntAcc      ... 4.388
Radial Grid Type                 RadialGrid  ... OptM3 with GC (2021)
Angular Grid (max. ang.)         AngularGrid ... 4 (Lebedev-302)
Angular grid pruning method      GridPruning ... 4 (adaptive)
Weight generation scheme         WeightScheme... mBecke (2022)
Basis function cutoff            BFCut       ... 1.0000e-11
Integration weight cutoff        WCut        ... 1.0000e-14
Partially contracted basis set               ... off
Rotationally invariant grid construction     ... off
Angular grids for H and He will be reduced by one unit
Diffuse basis detected: some atoms will have their outermost
                        angular grid increased by 1.

Total number of grid points                  ...    75124
Total number of batches                      ...     1184
Average number of points per batch           ...       63
Average number of grid points per atom       ...     4419
Initializing property integral containers    ... done (  0.0 sec)

SHARK setup successfully completed in   1.1 seconds

Maximum memory used throughout the entire STARTUP-calculation: 33.7 MB
Occupation numbers will be reassigned to an Aufbau configuration
             **** ENERGY FILE WAS UPDATED (xtb_opt.en.tmp) ****
Finished Guess after   0.3 sec
Maximum memory used throughout the entire GUESS-calculation: 13.0 MB
--------------------
CPCM SOLVATION MODEL
--------------------
CPCM parameters:
  Epsilon                                         ...      78.3550
  Refrac                                          ...       1.3328
  Rsolv                                           ...       1.3000
  Surface type                                    ... GAUSSIAN VDW
  Discretization scheme                           ... Constant charge density
    Threshold for H atoms                         ...       5.0000 (charges/Ang^2)
    Threshold for non-H atoms                     ...       5.0000 (charges/Ang^2)
  Epsilon function type                           ...         CPCM
Solvent:                                          ... WATER
SMD-CDS solvent descriptors:
  Soln                                            ...       1.3328
  Soln25                                          ...       1.3323
  Sola                                            ...       0.0000
  Solb                                            ...       0.0000
  Solg                                            ...       0.0000
  Solc                                            ...       0.0000
  Solh                                            ...       0.0000
Radii:
  Scheme                                          ... Element-dependent radii
  Radius for C  used is    3.4960 Bohr (=   1.8500 Ang.)
  Radius for O  used is    2.8724 Bohr (=   1.5200 Ang.)
  Radius for H  used is    2.2677 Bohr (=   1.2000 Ang.)
Calculating surface                               ...        done! (  0.0s)
Cavity surface points                             ...         1298
Cavity Volume                                     ...     765.5800
Cavity Surface-area                               ...     521.3475
Calculating surface distance matrix               ...        done! (  0.0s)
Performing Cholesky decomposition & store         ...        done! (  0.1s)
Overall time for CPCM initialization              ...                 0.1s

----------------------------------------D-I-I-S--------------------------------------------
Iteration    Energy (Eh)           Delta-E    RMSDP     MaxDP     DIISErr   Damp  Time(sec)
-------------------------------------------------------------------------------------------
               ***  Starting incremental Fock matrix formation  ***
    1    -346.9570360811456453     0.00e+00  4.87e-05  7.64e-04  5.27e-03  0.700   2.7
    2    -346.9570886393028673    -5.26e-05  4.31e-05  6.69e-04  3.99e-03  0.700   2.1
                               ***Turning on AO-DIIS***
                              *** Initializing SOSCF ***
---------------------------------------S-O-S-C-F--------------------------------------
Iteration    Energy (Eh)           Delta-E    RMSDP     MaxDP     MaxGrad    Time(sec)
--------------------------------------------------------------------------------------
    3    -346.9571258754744463    -3.72e-05  1.06e-04  1.63e-03  2.86e-03     2.2
               *** Restarting incremental Fock matrix formation ***
    4    -346.9572105704243654    -8.47e-05  2.30e-05  5.90e-04  1.30e-04     2.6
    5    -346.9572092383293125     1.33e-06  1.48e-05  3.83e-04  3.04e-04     2.2
    6    -346.9572115647536634    -2.33e-06  7.42e-06  1.44e-04  8.38e-05     2.2
    7    -346.9572113306539336     2.34e-07  4.85e-06  1.11e-04  1.21e-04     2.1
    8    -346.9572116659444987    -3.35e-07  1.70e-06  5.01e-05  1.22e-05     2.1
                  *** Gradient check signals convergence ***

               *****************************************************
               *                     SUCCESS                       *
               *           SCF CONVERGED AFTER   8 CYCLES          *
               *****************************************************


SMD CDS free energy correction energy :                 4.73661     Kcal/mol
Total Energy after SMD CDS correction =              -346.949663405 Eh
             **** ENERGY FILE WAS UPDATED (xtb_opt.en.tmp) ****

----------------
TOTAL SCF ENERGY
----------------

Total Energy       :       -346.94966340481022 Eh           -9440.98031 eV

Components:
Nuclear Repulsion  :        314.65292588474477 Eh            8562.14140 eV
Electronic Energy  :       -661.59319248227848 Eh          -18002.86602 eV
One Electron Energy:      -1094.85574812076288 Eh          -29792.53953 eV
Two Electron Energy:        433.26255563848434 Eh           11789.67351 eV
CPCM Dielectric    :         -0.01694506841082 Eh              -0.46110 eV
SMD CDS (Gcds)     :          0.00754826113429 Eh               0.20540 eV

Virial components:
Potential Energy   :       -692.29007926459826 Eh          -18838.17077 eV
Kinetic Energy     :        345.34041585978810 Eh            9397.19046 eV
Virial Ratio       :          2.00465988766770

DFT components:
N(Alpha)           :       27.999966891313 electrons
N(Beta)            :       27.999966891313 electrons
N(Total)           :       55.999933782626 electrons
E(X)               :      -46.115994608958 Eh       
E(C)               :       -1.785556426060 Eh       
E(XC)              :      -47.901551035018 Eh       

CPCM Solvation Model Properties:
Surface-charge          :         -0.04439085644109
Corrected charge        :          0.00000000000000
Outlying charge corr.   :          0.00015664510162 Eh               0.00426 eV
Free-energy (cav+disp)  :          0.00754826113429 Eh               0.20540 eV

---------------
SCF CONVERGENCE
---------------

  Last Energy change         ...    3.3529e-07  Tolerance :   1.0000e-07
  Last MAX-Density change    ...    5.0145e-05  Tolerance :   1.0000e-07
  Last RMS-Density change    ...    1.6980e-06  Tolerance :   5.0000e-09
  Last DIIS Error            ...    2.8570e-03  Tolerance :   1.0000e-07
  Last Orbital Gradient      ...    1.2209e-05  Tolerance :   1.0000e-04
  Last Orbital Rotation      ...    3.2421e-05  Tolerance :   1.0000e-04


----------------
ORBITAL ENERGIES
----------------

  NO   OCC          E(Eh)            E(eV) 
   0   2.0000     -19.002153      -517.0749 
   1   2.0000     -18.944067      -515.4943 
   2   2.0000     -10.164822      -276.5989 
   3   2.0000     -10.085525      -274.4411 
   4   2.0000     -10.041598      -273.2458 
   5   2.0000     -10.021157      -272.6895 
   6   2.0000     -10.020893      -272.6824 
   7   2.0000      -1.069876       -29.1128 
   8   2.0000      -0.982880       -26.7455 
   9   2.0000      -0.759938       -20.6790 
  10   2.0000      -0.722843       -19.6695 
  11   2.0000      -0.627434       -17.0733 
  12   2.0000      -0.590510       -16.0686 
  13   2.0000      -0.531854       -14.4725 
  14   2.0000      -0.463351       -12.6084 
  15   2.0000      -0.452693       -12.3184 
  16   2.0000      -0.448646       -12.2083 
  17   2.0000      -0.421280       -11.4636 
  18   2.0000      -0.378770       -10.3069 
  19   2.0000      -0.372001       -10.1227 
  20   2.0000      -0.358945        -9.7674 
  21   2.0000      -0.353183        -9.6106 
  22   2.0000      -0.332100        -9.0369 
  23   2.0000      -0.326313        -8.8794 
  24   2.0000      -0.319944        -8.7061 
  25   2.0000      -0.307424        -8.3654 
  26   2.0000      -0.278529        -7.5792 
  27   2.0000      -0.249913        -6.8005 
  28   0.0000      -0.025034        -0.6812 
  29   0.0000       0.072434         1.9710 
  30   0.0000       0.100094         2.7237 
  31   0.0000       0.119097         3.2408 
  32   0.0000       0.129377         3.5205 
  33   0.0000       0.142211         3.8698 
  34   0.0000       0.152816         4.1583 
  35   0.0000       0.163294         4.4435 
  36   0.0000       0.166613         4.5338 
  37   0.0000       0.173338         4.7168 
  38   0.0000       0.178513         4.8576 
*Only the first 10 virtual orbitals were printed.
Total SCF time: 0 days 0 hours 0 min 18 sec 
Finished LeanSCF after  19.0 sec

Maximum memory used throughout the entire LEANSCF-calculation: 24.1 MB


-------------------------------------------------------------------------------
                          DFT DISPERSION CORRECTION                            
                                                                               
                                DFTD4 V3.4.0                                   
-------------------------------------------------------------------------------
-------------------------   ----------------
Dispersion correction           -0.003902854
-------------------------   ----------------

------------------   -----------------
gCP correction             0.010154090
------------------   -----------------

-------------------------   --------------------
FINAL SINGLE POINT ENERGY      -346.943412168723
-------------------------   --------------------

------------------------------------------------------------------------------
                         ORCA SCF GRADIENT CALCULATION
------------------------------------------------------------------------------

Nuc. rep. gradient        (SHARK) ... done (  0.0 sec)
HCore & Overlap gradient  (SHARK) ... done (  0.2 sec)
Split-RIJ-J gradient      (SHARK) ... done (  1.1 sec)
XC gradient                       ... done (  4.2 sec)
CPCM gradient                     ... done (  0.6 sec)
SMD gradient                      ... done (  0.0 sec)
Dispersion correction             ... done (  0.0 sec)

-------------------
DISPERSION GRADIENT
-------------------

   1   C   :   -0.000072439    0.000047723    0.000001446
   2   C   :   -0.000070300   -0.000007778    0.000010565
   3   C   :   -0.000026207   -0.000042567   -0.000000520
   4   O   :   -0.000008376   -0.000080494   -0.000008939
   5   O   :    0.000024129   -0.000009566    0.000000382
   6   C   :    0.000067641   -0.000018529   -0.000006548
[...]
N(Beta)            :       27.999980129039 electrons
N(Total)           :       55.999960258078 electrons
E(X)               :      -46.120925703190 Eh       
E(C)               :       -1.785746033203 Eh       
E(XC)              :      -47.906671736393 Eh       

CPCM Solvation Model Properties:
Surface-charge          :         -0.04433950332543
Corrected charge        :         -0.00000000000000
Outlying charge corr.   :          0.00015628186260 Eh               0.00425 eV
Free-energy (cav+disp)  :          0.00754866289960 Eh               0.20541 eV

---------------
SCF CONVERGENCE
---------------

  Last Energy change         ...    3.5001e-09  Tolerance :   1.0000e-07
  Last MAX-Density change    ...    6.2053e-05  Tolerance :   1.0000e-07
  Last RMS-Density change    ...    1.8969e-06  Tolerance :   5.0000e-09
  Last DIIS Error            ...    3.6609e-05  Tolerance :   1.0000e-07
  Last Orbital Gradient      ...    1.6846e-05  Tolerance :   1.0000e-04
  Last Orbital Rotation      ...    6.6246e-05  Tolerance :   1.0000e-04


----------------
ORBITAL ENERGIES
----------------

  NO   OCC          E(Eh)            E(eV) 
   0   2.0000     -19.002383      -517.0811 
   1   2.0000     -18.943355      -515.4749 
   2   2.0000     -10.164445      -276.5886 
   3   2.0000     -10.085589      -274.4428 
   4   2.0000     -10.041029      -273.2303 
   5   2.0000     -10.021048      -272.6866 
   6   2.0000     -10.020010      -272.6583 
   7   2.0000      -1.069944       -29.1147 
   8   2.0000      -0.982468       -26.7343 
   9   2.0000      -0.759947       -20.6792 
  10   2.0000      -0.723456       -19.6862 
  11   2.0000      -0.627417       -17.0729 
  12   2.0000      -0.590830       -16.0773 
  13   2.0000      -0.531916       -14.4742 
  14   2.0000      -0.463366       -12.6088 
  15   2.0000      -0.452623       -12.3165 
  16   2.0000      -0.448612       -12.2074 
  17   2.0000      -0.422058       -11.4848 
  18   2.0000      -0.377986       -10.2855 
  19   2.0000      -0.372362       -10.1325 
  20   2.0000      -0.359368        -9.7789 
  21   2.0000      -0.353261        -9.6127 
  22   2.0000      -0.331889        -9.0312 
  23   2.0000      -0.326636        -8.8882 
  24   2.0000      -0.320235        -8.7140 
  25   2.0000      -0.307308        -8.3623 
  26   2.0000      -0.278849        -7.5879 
  27   2.0000      -0.249568        -6.7911 
  28   0.0000      -0.024571        -0.6686 
  29   0.0000       0.071892         1.9563 
  30   0.0000       0.099810         2.7160 
  31   0.0000       0.119413         3.2494 
  32   0.0000       0.129052         3.5117 
  33   0.0000       0.142603         3.8804 
  34   0.0000       0.154078         4.1927 
  35   0.0000       0.164740         4.4828 
  36   0.0000       0.166147         4.5211 
  37   0.0000       0.173583         4.7234 
  38   0.0000       0.179898         4.8953 
*Only the first 10 virtual orbitals were printed.
Total SCF time: 0 days 0 hours 0 min 5 sec 
Finished LeanSCF after   5.9 sec

Maximum memory used throughout the entire LEANSCF-calculation: 24.1 MB


-------------------------------------------------------------------------------
                          DFT DISPERSION CORRECTION                            
                                                                               
                                DFTD4 V3.4.0                                   
-------------------------------------------------------------------------------
-------------------------   ----------------
Dispersion correction           -0.003898620
-------------------------   ----------------

------------------   -----------------
gCP correction             0.010176602
------------------   -----------------

-------------------------   --------------------
FINAL SINGLE POINT ENERGY      -346.943496736551
-------------------------   --------------------

------------------------------------------------------------------------------
                         ORCA SCF GRADIENT CALCULATION
------------------------------------------------------------------------------

Nuc. rep. gradient        (SHARK) ... done (  0.0 sec)
HCore & Overlap gradient  (SHARK) ... done (  0.2 sec)
Split-RIJ-J gradient      (SHARK) ... done (  1.2 sec)
XC gradient                       ... done (  5.1 sec)
CPCM gradient                     ... done (  0.7 sec)
SMD gradient                      ... done (  0.0 sec)
Dispersion correction             ... done (  0.0 sec)

-------------------
DISPERSION GRADIENT
-------------------

   1   C   :   -0.000072305    0.000047598    0.000001786
   2   C   :   -0.000070240   -0.000007811    0.000009844
   3   C   :   -0.000026033   -0.000042379   -0.000000649
   4   O   :   -0.000008323   -0.000080336   -0.000007382
   5   O   :    0.000024600   -0.000009385   -0.000000489
   6   C   :    0.000067015   -0.000018243   -0.000006348
   7   C   :    0.000083972    0.000031305   -0.000000737
   8   H   :   -0.000030594    0.000022935   -0.000008726
   9   H   :   -0.000022628    0.000017582    0.000001080
  10   H   :   -0.000031364    0.000025413    0.000007449
  11   H   :   -0.000022230   -0.000007997   -0.000002656
  12   H   :   -0.000023589   -0.000005324    0.000011829
  13   H   :    0.000022419   -0.000008154    0.000002824
  14   H   :    0.000022627   -0.000007194   -0.000008498
  15   H   :    0.000022819    0.000009033   -0.000000492
  16   H   :    0.000032200    0.000017501   -0.000006093
  17   H   :    0.000031655    0.000015455    0.000007257

Difference to translation invariance:
           :   -0.0000000000   -0.0000000000    0.0000000000

Difference to rotation invariance:
           :    0.0000000000    0.0000000000   -0.0000000000

Norm of the Dispersion gradient    ...    0.0002122601
RMS gradient                       ...    0.0000297224
MAX gradient                       ...    0.0000839718
gCP correction                   ... done

------------------
CARTESIAN GRADIENT
------------------

   1   C   :    0.000021362    0.000069381   -0.000067115
   2   C   :   -0.000067392   -0.000031266   -0.000027928
   3   C   :    0.000105302    0.000191398   -0.000109129
   4   O   :   -0.000018995   -0.000075712   -0.000008411
   5   O   :   -0.000285181    0.000028361    0.000072468
   6   C   :    0.000220459   -0.000015298    0.000014149
   7   C   :    0.000010533   -0.000069139    0.000019751
   8   H   :   -0.000101004   -0.000005531    0.000053023
   9   H   :    0.000091936   -0.000048187    0.000025840
  10   H   :   -0.000041830   -0.000011147   -0.000127415
  11   H   :   -0.000017133   -0.000042329    0.000017203
  12   H   :   -0.000008171    0.000001359    0.000059082
  13   H   :   -0.000005971    0.000020094   -0.000010061
  14   H   :    0.000025495    0.000007540    0.000014348
  15   H   :    0.000035790   -0.000002805   -0.000009625
  16   H   :    0.000000932    0.000013792    0.000046404
  17   H   :    0.000033868   -0.000030513    0.000037417

Difference to translation invariance:
           :    0.0000000000    0.0000000000   -0.0000000000

Difference to rotation invariance:
           :    0.0000586068   -0.0006855544    0.0000700992

Norm of the Cartesian gradient     ...    0.0005298701
RMS gradient                       ...    0.0000741967
MAX gradient                       ...    0.0002851808

-------
TIMINGS
-------

Total SCF gradient time     ....        7.834 sec

Densities                   ....       0.000 sec  (  0.0%)
One electron gradient       ....       0.226 sec  (  2.9%)
RI-J Coulomb gradient       ....       1.227 sec  ( 15.7%)
XC gradient                 ....       5.071 sec  ( 64.7%)
CPCM gradient               ....       0.675 sec  (  8.6%)
   A-Matrix (El+Nuc)        ....       0.058 sec  (  0.7%)
   Potential                ....       0.618 sec  (  7.9%)
SMD gradient                ....       0.017 sec  (  0.2%)

Maximum memory used throughout the entire SCFGRAD-calculation: 33.1 MB

------------------------------------------------------------------------------
                              ORCA PROPERTY CALCULATIONS
------------------------------------------------------------------------------

GBWName                                 ... xtb_opt.gbw
Number of atoms                         ...     17
Number of basis functions               ...    193
Max core memory                         ...   1024 MB

Electric properties:
Dipole moment                           ... YES
Quadrupole moment                       ...  NO
Static polarizability (Dipole/Dipole)   ...  NO
Static polarizability (Dipole/Quad.)    ...  NO
Static polarizability (Quad./Quad.)     ...  NO
Static polarizability (Velocity)        ...  NO

Atomic electric properties:
Dipole moment                           ...  NO
Quadrupole moment                       ...  NO
Static polarizability                   ...  NO

Choice of electric origin               ... Center of mass
Position of electric origin             ...     0.014410    -0.021138     0.088715

General magnetic properties:
Magnetizability                         ...  NO

EPR properties:
g-Tensor (aka g-matrix)                 ...  NO
Zero-Field splitting spin-orbit         ...  NO
Zero-field splitting spin-spin          ...  NO
Hyperfine couplings                     ...  NO (   0 nuclei)
Quadrupole couplings                    ...  NO (   0 nuclei)
Contact density                         ...  NO (   0 nuclei)

NMR properties:
Chemical shifts                         ...  NO (   0 nuclei)
Spin-rotation constants                 ...  NO (   0 nuclei)
Spin-spin couplings                     ...  NO (   0 nuclei,    0 pairs)

Choice of magnetic origin               ... GIAO
Position of magnetic origin             ...     0.000000     0.000000     0.000000

Properties with geometric perturbations:
SCF Hessian                             ...  NO
IR spectrum                             ...  NO
VCD spectrum                            ...  NO
X-ray spectroscopy properties:
SCF XES/XAS/RIXS spectra                ...  NO


-------------
DIPOLE MOMENT
-------------

Method             : SCF
Type of density    : Electron Density
Multiplicity       :   1
Irrep              :   0
Energy             :  -346.9497747194268413 Eh
Relativity type    : 
Basis              : AO
                                X                 Y                 Z
Electronic contribution:     -0.830827821      -5.090520948      -0.213548514
Nuclear contribution   :      1.063268864       6.253034956       0.409218020
                        -----------------------------------------
Total Dipole Moment    :      0.232441043       1.162514008       0.195669506
                        -----------------------------------------
Magnitude (a.u.)       :      1.201563237
Magnitude (Debye)      :      3.054131032



--------------------
Rotational spectrum 
--------------------
 
Rotational constants in cm-1:             0.138891             0.056013             0.041356 
Rotational constants in MHz :          4163.833122          1679.223558          1239.836061 

Dipole components along the rotational axes: 
x,y,z [a.u.] :    -0.302274     1.155679     0.129581 
x,y,z [Debye]:    -0.768319     2.937502     0.329368 

 

Dipole moment calculation done in   0.0 sec 

Maximum memory used throughout the entire PROP-calculation: 11.5 MB

--------------------------------
SUGGESTED CITATIONS FOR THIS RUN
--------------------------------

Below you find a list of papers that are relevant to this ORCA run
We neither can nor want to force you to cite these papers, but we appreciate if you do
You receive ORCA, which is the product of decades of hard work by many enthusiastic individuals, for free
The only thing we kindly ask in return is that you cite our papers,
We deeply appreciate it, if you show your appreciation for ORCA by not just citing the generic ORCA reference.

Please note that relegating all ORCA citations to the supporting information does *not* help us.
SI sections are not indexed - citations you put there will not count into any citation statistics
But we need these citations in order to attract the funding resources that allow us to do what we are doing

Therefore, if you are a happy ORCA user, please consider citing a few of the papers listed below in the main body of your paper

In addition to the list printed below, the program has created the file xtb_opt.bibtex that contains the list in bibtex format
You can import this file easily into all common literature databanks and citation aid programs


List of essential papers. We consider these as the minimum necessary citations

  1. Neese,F.
     Software update: the ORCA program system, version 5.0
     WIRES Comput. Molec. Sci., 2022 12(1)e1606
     doi.org/10.1002/wcms.1606
  2. Grimme,S.; Hansen,A.; Ehlert,S.; Mewes,J.
     r2SCAN-3c: A 'Swiss army knife' composite electronic-structure method
     J. Chem. Phys., 2021 154 064103
     doi.org/10.1063/5.0040021

List of papers to cite with high priority. The work reported in these papers was absolutely
necessary for this run to complete.
Our perspective: the developers of density functionals and basis sets usually get cited in chemistry papers
Good! But without the algorithms to do something with them, the functionals or basis sets would not do anything.
Hence, in our opinion, the algorithm design and method developments papers are equally worthy of getting cited

  1. Neese,F.
     An improvement of the resolution of the identity approximation for the formation of the Coulomb matrix
     J. Comp. Chem., 2003 24(14)1740-1747
     doi.org/10.1002/jcc.10318
  2. Garcia-Rates,M.; Neese,F.
     Effect of the Solute Cavity on the Solvation Energy and its Derivatives within the Framework of the Gaussian Charge Scheme
     J. Comput. Chem., 2020 41 922-939
     doi.org/10.1002/jcc.26139
  3. Neese,F.
     The SHARK Integral Generation and Digestion System
     J. Comp. Chem., 2022  1-16
     doi.org/10.1002/jcc.26942
  4. Lehtola,S.; Steigemann,C.; Oliveira,M.; Marques,M.
     Recent developments in Libxc - A comprehensive library of functionals for density functional theory
     Software X, 2018 7 
     doi.org/10.1016/j.softx.2017.11.002
  5. Caldeweyher,E.; Bannwarth,C.; Grimme,S.
     Extension of the D3 dispersion coefficient model
     J. Chem. Phys., 2017 147 034112-XXXX
     doi.org/10.1063/1.4993215
  6. Caldeweyher,E.; Ehlert,S.; Hansen,A.; Neugebauer,H.; Spicher,S.; Bannwarth,C.; Grimme,S.
     A generally applicable atomic-charge dependent London dispersion correction
     J. Chem. Phys., 2019 150 154122-XXXX
     doi.org/10.1063/1.5090222
  7. Caldeweyher,E.; Mewes,J.; Ehlert,S.; Grimme,S.
     Extension and evaluation of the D4 London-dispersion model for periodic systems
     Phys. Chem. Chem. Phys., 2020 22(16)8499-8512
     doi.org/10.1039/D0CP00502A

List of suggested additional citations. These are papers that are important in the 'surrounding' of 
of this run, or papers that preceded the highly important papers. If you like your results we are grateful for a citation.

  1. Neese,F.
     The ORCA program system
     WIRES Comput. Molec. Sci., 2012 2(1)73-78
     doi.org/10.1002/wcms.81
  2. Neese,F.
     Software update: the ORCA program system, version 4.0
     WIRES Comput. Molec. Sci., 2018 8(1)1-6
     doi.org/10.1002/wcms.1327
  3. Neese,F.; Wennmohs,F.; Becker,U.; Riplinger,C.
     The ORCA quantum chemistry program package
     J. Chem. Phys., 2020 152 Art. No. L224108
     doi.org/10.1063/5.0004608

List of optional additional citations

  1. Neese,F.
     Approximate second-order SCF convergence for spin unrestricted wavefunctions
     Chem. Phys. Lett., 2000 325(1-3)93-98
     doi.org/10.1016/s0009-2614(00)00662-x

Timings for individual modules:

Sum of individual times          ...       15.273 sec (=   0.255 min)
Startup calculation              ...        1.037 sec (=   0.017 min)   6.8 %
SCF iterations                   ...        6.184 sec (=   0.103 min)  40.5 %
Property calculations            ...        0.112 sec (=   0.002 min)   0.7 %
SCF Gradient evaluation          ...        7.940 sec (=   0.132 min)  52.0 %
                             ****ORCA TERMINATED NORMALLY****
TOTAL RUN TIME: 0 days 0 hours 0 minutes 16 seconds 153 msec
  ------------------------------------------------------------------------
          * successful ORCA run, taking over control again...

         :::::::::::::::::::::::::::::::::::::::::::::::::::::
         ::                  ORCA SUMMARY                   ::
         :::::::::::::::::::::::::::::::::::::::::::::::::::::
         :: total energy            -346.943496736551 Eh    ::
         :: gradient norm              0.000529870093 Eh/a0 ::
         :: HOMO-LUMO gap              0.000000000000 eV    ::
         :::::::::::::::::::::::::::::::::::::::::::::::::::::

           -------------------------------------------------
          |                Property Printout                |
           -------------------------------------------------
           -------------------------------------------------
          |                Geometry Summary                 |
           -------------------------------------------------

      molecular mass/u    :      102.1318968
   center of mass at/Å    :        0.0076258      -0.0111996       0.0469446
  moments of inertia/u·Å² :        0.1213726E+03   0.3009514E+03   0.4076090E+03
rotational constants/cm⁻¹ :        0.1388915E+00   0.5601446E-01   0.4135736E-01

 * 14 selected distances

     #   Z          #   Z                                           value/Å
     1   6 C        2   6 C                                       1.5236121 (max)
     3   6 C        4   8 O                                       1.2231614
     3   6 C        5   8 O                                       1.3409121
     6   6 C        7   6 C                                       1.5069031
     1   6 C        8   1 H                                       1.0936765
     1   6 C        9   1 H                                       1.0933285
     1   6 C       10   1 H                                       1.0924343 (min)
     2   6 C       11   1 H                                       1.0942267
     2   6 C       12   1 H                                       1.0987522
     6   6 C       13   1 H                                       1.0938826
     6   6 C       14   1 H                                       1.0939292
     7   6 C       15   1 H                                       1.0940492
     7   6 C       16   1 H                                       1.0937358
     7   6 C       17   1 H                                       1.0937783

 * 3 distinct bonds (by element types)

   Z      Z             #   av. dist./Å        max./Å        min./Å
   1 H    6 C          10     1.0941793     1.0987522     1.0924343
   6 C    6 C           2     1.5152576     1.5236121     1.5069031
   6 C    8 O           2     1.2820368     1.3409121     1.2231614


optimized geometry written to: xtbopt.coord


           -------------------------------------------------
          | TOTAL ENERGY             -346.943496736551 Eh   |
          | GRADIENT NORM               0.000529870093 Eh/α |
           -------------------------------------------------

------------------------------------------------------------------------
 * finished run on 2025/04/11 at 13:01:45.452     
------------------------------------------------------------------------
 total:
 * wall-time:     0 d,  0 h,  3 min, 22.525 sec
 *  cpu-time:     0 d,  0 h,  0 min,  1.154 sec
 * ratio c/w:     0.006 speedup
 SCF:
 * wall-time:     0 d,  0 h,  0 min, 15.913 sec
 *  cpu-time:     0 d,  0 h,  0 min,  0.176 sec
 * ratio c/w:     0.011 speedup
 ANC optimizer:
 * wall-time:     0 d,  0 h,  3 min,  6.520 sec
 *  cpu-time:     0 d,  0 h,  0 min,  0.906 sec
 * ratio c/w:     0.005 speedup

