 Entering Gaussian System
 *********************************************
 Gaussian 98:
 frequency output generated by the xtb code
 *********************************************
                         Standard orientation:
 --------------------------------------------------------------------
  Center     Atomic     Atomic              Coordinates (Angstroms)
  Number     Number      Type              X           Y           Z
 --------------------------------------------------------------------
    1          6             0        1.969531   -0.756015    0.192059
    2          6             0        1.206217    0.563212    0.171603
    3          6             0       -0.048028    0.519472   -0.713010
    4          6             0       -1.100471   -0.391030   -0.164982
    5          6             0       -2.259757    0.017609    0.315978
    6          1             0        1.373045   -1.544322    0.643521
    7          1             0        2.884857   -0.651226    0.769944
    8          1             0        2.234834   -1.058156   -0.818849
    9          1             0        0.913545    0.832097    1.188926
   10          1             0        1.864920    1.349069   -0.204608
   11          1             0        0.238698    0.178804   -1.711395
   12          1             0       -0.454624    1.529106   -0.798846
   13          1             0       -0.860143   -1.445667   -0.170570
   14          1             0       -2.990697   -0.668059    0.709785
   15          1             0       -2.529140    1.061365    0.331771
 --------------------------------------------------------------------
     1 basis functions        1 primitive gaussians
     1 alpha electrons        1 beta electrons
 
 Harmonic frequencies (cm**-1), IR intensities (km*mol⁻¹),
 Raman scattering activities (A**4/amu), Raman depolarization ratios,
 reduced masses (AMU), force constants (mDyne/A) and normal coordinates:
                      1                      2                      3
                        a                      a                      a 
 Frequencies --    50.0784               103.5487               232.6699
 Red. masses --     7.9857                 5.9354                 3.0642
 Frc consts  --     0.0000                 0.0000                 0.0000
 IR Inten    --     0.0660                 0.0565                 0.0513
 Raman Activ --     0.0000                 0.0000                 0.0000
 Depolar     --     0.0000                 0.0000                 0.0000
 Atom AN      X      Y      Z        X      Y      Z        X      Y      Z
   1   6    -0.28  -0.04   0.26    -0.25  -0.16   0.08     0.22   0.09  -0.01
   2   6    -0.08   0.07  -0.07     0.23   0.11  -0.19    -0.07  -0.07   0.16
   3   6     0.02   0.10  -0.21    -0.02   0.27   0.17    -0.00  -0.11   0.05
   4   6     0.04  -0.04  -0.40     0.15   0.06   0.13    -0.16  -0.07  -0.18
   5   6     0.33  -0.10   0.36    -0.08  -0.26  -0.17    -0.02   0.14  -0.01
   6   1    -0.13   0.05   0.11    -0.06   0.10   0.29     0.30   0.08   0.41
   7   1    -0.09  -0.02   0.09     0.06  -0.04  -0.18     0.30   0.20  -0.42
   8   1    -0.08  -0.08   0.10    -0.31  -0.26   0.02    -0.35  -0.17  -0.05
   9   1    -0.05   0.08  -0.04     0.18   0.17  -0.06    -0.04  -0.07   0.05
  10   1     0.02  -0.02  -0.03     0.12  -0.07  -0.19    -0.07   0.03   0.07
  11   1     0.04   0.07  -0.06    -0.08   0.15   0.00     0.04  -0.02   0.02
  12   1    -0.01   0.03  -0.03    -0.02   0.08   0.15     0.01  -0.03   0.01
  13   1    -0.05  -0.03  -0.34     0.13   0.04   0.07    -0.11  -0.04  -0.14
  14   1     0.10  -0.06   0.07     0.01  -0.13  -0.08    -0.06   0.08  -0.05
  15   1     0.16  -0.02   0.33    -0.12  -0.10  -0.09     0.09   0.06   0.09
                      4                      5                      6
                        a                      a                      a 
 Frequencies --   280.1000               374.2024               443.2085
 Red. masses --     6.7155                 7.6139                 6.1333
 Frc consts  --     0.0000                 0.0000                 0.0000
 IR Inten    --     0.3499                 1.5949                 0.6999
 Raman Activ --     0.0000                 0.0000                 0.0000
 Depolar     --     0.0000                 0.0000                 0.0000
 Atom AN      X      Y      Z        X      Y      Z        X      Y      Z
   1   6    -0.35  -0.01  -0.17     0.26  -0.12   0.16     0.10  -0.04   0.11
   2   6    -0.27   0.04   0.25    -0.12  -0.29  -0.07    -0.21  -0.20  -0.14
   3   6     0.10   0.00  -0.21    -0.02   0.22  -0.30    -0.31   0.19   0.05
   4   6     0.31   0.01   0.13    -0.04   0.41  -0.06     0.14  -0.27  -0.01
   5   6     0.25   0.00  -0.02    -0.16  -0.16   0.16     0.28   0.17  -0.10
   6   1    -0.05   0.00   0.03     0.18  -0.07   0.12     0.09  -0.05   0.05
   7   1    -0.01  -0.05  -0.19     0.07   0.13   0.03    -0.02   0.13   0.08
   8   1    -0.27   0.01  -0.10     0.11  -0.08   0.07     0.12  -0.04   0.06
   9   1    -0.19  -0.12   0.07    -0.12  -0.15  -0.03    -0.06  -0.07  -0.03
  10   1    -0.05   0.07   0.23    -0.01  -0.05   0.09    -0.06  -0.04  -0.02
  11   1     0.11  -0.08  -0.01    -0.04   0.04  -0.09    -0.18   0.34  -0.11
  12   1    -0.00  -0.02  -0.17     0.09   0.11  -0.07    -0.16   0.05   0.33
  13   1     0.19   0.03   0.25     0.12   0.14   0.11     0.10  -0.06   0.11
  14   1     0.14   0.02   0.16     0.14  -0.18   0.16     0.02   0.20   0.11
  15   1    -0.02  -0.02  -0.22    -0.28  -0.11  -0.03     0.18   0.08  -0.23
                      7                      8                      9
                        a                      a                      a 
 Frequencies --   649.8987               796.8408               883.3103
 Red. masses --     5.7877                 3.2600                 5.4479
 Frc consts  --     0.0000                 0.0000                 0.0000
 IR Inten    --     0.8478                17.5167                 1.0243
 Raman Activ --     0.0000                 0.0000                 0.0000
 Depolar     --     0.0000                 0.0000                 0.0000
 Atom AN      X      Y      Z        X      Y      Z        X      Y      Z
   1   6     0.02   0.01  -0.00     0.07   0.05  -0.03    -0.16   0.22   0.01
   2   6     0.19   0.10   0.15     0.28   0.15  -0.14    -0.09  -0.17  -0.08
   3   6     0.03  -0.06   0.09     0.10  -0.05  -0.14     0.27  -0.38   0.08
   4   6    -0.30  -0.12  -0.47    -0.10  -0.11   0.06     0.07   0.14  -0.00
   5   6    -0.03   0.01   0.16    -0.12  -0.01   0.04     0.06   0.16  -0.06
   6   1    -0.04   0.01  -0.04    -0.27   0.28   0.09    -0.01   0.02  -0.03
   7   1     0.03  -0.11  -0.02    -0.02  -0.17   0.08    -0.03   0.07  -0.03
   8   1    -0.04   0.05  -0.03     0.00  -0.27   0.07    -0.07   0.13  -0.03
   9   1     0.16   0.12   0.04    -0.20  -0.38   0.00    -0.10   0.05  -0.07
  10   1     0.03  -0.02  -0.10    -0.02   0.32   0.38    -0.06  -0.04  -0.08
  11   1     0.14   0.10   0.02    -0.11   0.15  -0.13    -0.07   0.24  -0.13
  12   1     0.00  -0.01   0.07    -0.03  -0.02   0.16     0.06  -0.07   0.43
  13   1     0.04  -0.01   0.23    -0.09  -0.05   0.03    -0.18  -0.01   0.07
  14   1     0.16   0.06   0.45    -0.04   0.03   0.06     0.24  -0.23  -0.06
  15   1    -0.18  -0.03  -0.37    -0.02   0.00  -0.01    -0.29  -0.04   0.13
                     10                     11                     12
                        a                      a                      a 
 Frequencies --   891.5465               914.4430               962.2892
 Red. masses --     4.3981                 4.4001                 6.4447
 Frc consts  --     0.0000                 0.0000                 0.0000
 IR Inten    --     8.4086                 9.3031                 1.7579
 Raman Activ --     0.0000                 0.0000                 0.0000
 Depolar     --     0.0000                 0.0000                 0.0000
 Atom AN      X      Y      Z        X      Y      Z        X      Y      Z
   1   6     0.05  -0.04   0.08    -0.07   0.06  -0.19    -0.29   0.21  -0.08
   2   6     0.05   0.05   0.10    -0.11  -0.09  -0.13     0.02  -0.20  -0.13
   3   6    -0.00   0.02  -0.18    -0.05  -0.03   0.38     0.43   0.09   0.02
   4   6     0.05  -0.03   0.23     0.07   0.11  -0.07    -0.10  -0.08   0.05
   5   6    -0.24  -0.06  -0.37     0.06   0.03  -0.21    -0.20  -0.20   0.11
   6   1     0.04  -0.07  -0.06    -0.08   0.16   0.13     0.10  -0.03   0.04
   7   1     0.07  -0.10  -0.05    -0.15   0.22   0.12    -0.13   0.34   0.01
   8   1    -0.07   0.13  -0.05     0.18  -0.31   0.10     0.06   0.05   0.02
   9   1    -0.03   0.11  -0.02     0.18  -0.23   0.08    -0.03  -0.06  -0.04
  10   1     0.07  -0.05  -0.01    -0.17   0.09  -0.04     0.13  -0.11   0.04
  11   1    -0.02   0.09  -0.08     0.14  -0.19   0.20     0.08   0.06  -0.02
  12   1    -0.02   0.01   0.04     0.02  -0.02  -0.12     0.27   0.09   0.08
  13   1    -0.12  -0.04  -0.21     0.00   0.03  -0.11     0.07  -0.00  -0.04
  14   1     0.21   0.10   0.61     0.26  -0.05   0.29    -0.26   0.23   0.14
  15   1     0.16   0.04   0.30    -0.01  -0.01   0.09     0.23   0.03  -0.13
                     13                     14                     15
                        a                      a                      a 
 Frequencies --  1022.0777              1035.8884              1091.4256
 Red. masses --     2.3679                 3.4163                 4.5729
 Frc consts  --     0.0000                 0.0000                 0.0000
 IR Inten    --    14.0302                 2.1063                 1.9798
 Raman Activ --     0.0000                 0.0000                 0.0000
 Depolar     --     0.0000                 0.0000                 0.0000
 Atom AN      X      Y      Z        X      Y      Z        X      Y      Z
   1   6    -0.08  -0.10  -0.08     0.11   0.18   0.08    -0.20   0.08   0.12
   2   6     0.03   0.12   0.03    -0.07  -0.19  -0.04     0.34  -0.02  -0.14
   3   6     0.07   0.07  -0.09    -0.05  -0.11   0.11    -0.19  -0.00   0.21
   4   6    -0.10  -0.15  -0.12    -0.02   0.19  -0.18    -0.06  -0.03  -0.16
   5   6    -0.08   0.07  -0.10    -0.02  -0.14  -0.07     0.10   0.06  -0.08
   6   1     0.11  -0.09   0.05    -0.20   0.17  -0.06     0.14  -0.15  -0.03
   7   1    -0.07   0.18   0.03     0.08  -0.31  -0.01     0.00   0.13  -0.07
   8   1     0.11  -0.08   0.03    -0.16   0.06  -0.04    -0.05   0.23  -0.04
   9   1     0.07  -0.02   0.04    -0.06   0.01  -0.04    -0.19  -0.13  -0.08
  10   1     0.10  -0.02   0.05    -0.21   0.05  -0.13     0.30  -0.03   0.29
  11   1     0.18   0.14  -0.02    -0.16  -0.09   0.01    -0.42  -0.31   0.05
  12   1    -0.17  -0.06  -0.03     0.23   0.07   0.06     0.01   0.01  -0.09
  13   1     0.09  -0.02   0.61     0.37   0.14   0.28     0.08   0.02   0.04
  14   1     0.02  -0.07  -0.09    -0.10   0.10   0.03     0.15  -0.07   0.05
  15   1     0.08   0.04   0.53     0.33   0.05   0.22    -0.03  -0.00   0.05
                     16                     17                     18
                        a                      a                      a 
 Frequencies --  1116.4126              1161.0935              1224.6874
 Red. masses --     8.3683                 7.4222                 4.2050
 Frc consts  --     0.0000                 0.0000                 0.0000
 IR Inten    --     0.9694                 6.6528                 1.7199
 Raman Activ --     0.0000                 0.0000                 0.0000
 Depolar     --     0.0000                 0.0000                 0.0000
 Atom AN      X      Y      Z        X      Y      Z        X      Y      Z
   1   6     0.10  -0.39   0.02    -0.12  -0.13  -0.14    -0.08   0.04   0.26
   2   6    -0.28   0.41  -0.26     0.16   0.22   0.28     0.10  -0.08  -0.30
   3   6     0.27  -0.05   0.31    -0.16  -0.41  -0.14    -0.06  -0.10   0.08
   4   6    -0.02   0.07  -0.08     0.08   0.38  -0.07     0.09   0.25  -0.02
   5   6    -0.03  -0.05   0.01    -0.02  -0.14   0.02    -0.04  -0.11   0.04
   6   1     0.14  -0.21  -0.02     0.12  -0.08   0.08     0.06  -0.14  -0.09
   7   1     0.04  -0.03  -0.04    -0.10   0.22   0.04     0.08  -0.05  -0.09
   8   1     0.05  -0.04  -0.01     0.16  -0.11   0.04    -0.14   0.26  -0.05
   9   1    -0.38   0.14  -0.16     0.12   0.04   0.10     0.12  -0.31   0.03
  10   1    -0.10   0.18   0.04    -0.01   0.06  -0.00    -0.07   0.11   0.05
  11   1    -0.01  -0.03   0.06    -0.23   0.05  -0.14     0.40   0.15   0.08
  12   1     0.05  -0.02   0.07    -0.13  -0.11   0.21    -0.43  -0.20  -0.04
  13   1     0.04   0.03   0.00     0.18   0.14  -0.09    -0.03   0.05  -0.02
  14   1    -0.02   0.04   0.08    -0.10   0.09   0.02    -0.10   0.08   0.02
  15   1     0.05   0.00  -0.03     0.18   0.02  -0.07     0.09   0.01  -0.05
                     19                     20                     21
                        a                      a                      a 
 Frequencies --  1260.5035              1281.9539              1328.4090
 Red. masses --     3.2056                 2.4843                 4.1759
 Frc consts  --     0.0000                 0.0000                 0.0000
 IR Inten    --     0.6482                 3.6558                 0.8423
 Raman Activ --     0.0000                 0.0000                 0.0000
 Depolar     --     0.0000                 0.0000                 0.0000
 Atom AN      X      Y      Z        X      Y      Z        X      Y      Z
   1   6    -0.15  -0.12   0.15     0.04   0.06  -0.07     0.03   0.02   0.05
   2   6     0.11   0.14  -0.06     0.02  -0.03  -0.03    -0.17  -0.03   0.01
   3   6    -0.08  -0.03  -0.13    -0.11  -0.16   0.04     0.45   0.13   0.01
   4   6    -0.06  -0.22   0.09    -0.04  -0.12   0.06    -0.02  -0.12  -0.04
   5   6    -0.02   0.15  -0.00    -0.12   0.21   0.03    -0.08   0.10   0.03
   6   1     0.15  -0.20  -0.02    -0.03   0.07   0.02    -0.01  -0.00  -0.01
   7   1     0.02   0.05  -0.06    -0.01  -0.05   0.03     0.01  -0.05   0.01
   8   1    -0.01   0.16  -0.01     0.02  -0.06   0.01    -0.05   0.03  -0.01
   9   1     0.27  -0.22   0.12    -0.21   0.10  -0.10     0.26  -0.11   0.12
  10   1    -0.36   0.32  -0.10     0.23  -0.15   0.10    -0.09  -0.00  -0.09
  11   1     0.04   0.05  -0.04     0.31   0.13   0.05    -0.45  -0.11  -0.12
  12   1     0.42   0.18   0.05    -0.07  -0.06   0.03    -0.42  -0.19  -0.09
  13   1     0.26   0.01  -0.11     0.66   0.12  -0.31     0.28   0.03  -0.13
  14   1     0.06  -0.07  -0.05     0.02  -0.03  -0.02    -0.06   0.07   0.05
  15   1    -0.11   0.00   0.06    -0.17   0.02   0.08    -0.19  -0.01   0.07
                     22                     23                     24
                        a                      a                      a 
 Frequencies --  1342.2574              1408.9853              1414.6409
 Red. masses --     4.3859                 2.7709                 2.7818
 Frc consts  --     0.0000                 0.0000                 0.0000
 IR Inten    --    11.3650                 9.2236                 2.8460
 Raman Activ --     0.0000                 0.0000                 0.0000
 Depolar     --     0.0000                 0.0000                 0.0000
 Atom AN      X      Y      Z        X      Y      Z        X      Y      Z
   1   6    -0.08  -0.08  -0.07     0.18  -0.27   0.01    -0.15   0.24  -0.01
   2   6     0.40  -0.27   0.17    -0.06   0.01  -0.02     0.06  -0.06   0.04
   3   6     0.03   0.14   0.01     0.07  -0.02   0.02     0.11   0.05   0.01
   4   6     0.03  -0.05  -0.00    -0.18   0.01   0.08    -0.20   0.00   0.09
   5   6    -0.02   0.02   0.01    -0.07   0.04   0.03    -0.08   0.04   0.03
   6   1    -0.03   0.05   0.07    -0.29   0.24   0.05     0.25  -0.21  -0.04
   7   1    -0.07   0.20   0.02    -0.08   0.36   0.08     0.06  -0.30  -0.06
   8   1     0.02   0.09  -0.03    -0.19   0.31  -0.15     0.15  -0.27   0.13
   9   1    -0.40   0.23  -0.18     0.08   0.01   0.02    -0.08  -0.00  -0.02
  10   1    -0.44   0.26  -0.21     0.03   0.00   0.06    -0.09   0.02  -0.09
  11   1     0.02   0.00   0.02    -0.03   0.11  -0.06    -0.04   0.08  -0.04
  12   1    -0.21  -0.06  -0.12    -0.03  -0.02  -0.10    -0.11  -0.05  -0.10
  13   1     0.02  -0.01  -0.02     0.06   0.03  -0.03     0.03   0.02  -0.03
  14   1    -0.05   0.05   0.01     0.27  -0.32  -0.09     0.31  -0.37  -0.10
  15   1    -0.08  -0.01   0.04     0.36   0.09  -0.17     0.41   0.11  -0.20
                     25                     26                     27
                        a                      a                      a 
 Frequencies --  1473.4073              1488.9777              1499.7278
 Red. masses --     2.1224                 1.8927                 1.5847
 Frc consts  --     0.0000                 0.0000                 0.0000
 IR Inten    --     0.9393                 0.7628                 0.6994
 Raman Activ --     0.0000                 0.0000                 0.0000
 Depolar     --     0.0000                 0.0000                 0.0000
 Atom AN      X      Y      Z        X      Y      Z        X      Y      Z
   1   6     0.02   0.03  -0.01     0.01  -0.05  -0.00    -0.18  -0.10   0.03
   2   6     0.02   0.04   0.03     0.06   0.24   0.13    -0.06  -0.04  -0.02
   3   6    -0.04  -0.18   0.24     0.01   0.04  -0.03     0.01  -0.02   0.04
   4   6     0.05   0.02  -0.00    -0.00  -0.01   0.00     0.00   0.01  -0.00
   5   6     0.05  -0.03  -0.02    -0.01   0.01   0.00     0.01  -0.01  -0.00
   6   1     0.03  -0.03  -0.03    -0.04   0.08   0.09    -0.16   0.25   0.25
   7   1    -0.03  -0.01   0.06     0.02   0.00  -0.02     0.28  -0.12  -0.44
   8   1    -0.06  -0.05  -0.00     0.06   0.11  -0.02     0.63   0.29   0.08
   9   1    -0.06  -0.10   0.01    -0.35  -0.56   0.05     0.05   0.06   0.00
  10   1     0.03  -0.07  -0.08     0.07  -0.32  -0.57     0.02   0.00   0.07
  11   1    -0.17   0.57  -0.23     0.03  -0.09   0.04    -0.03   0.08  -0.03
  12   1     0.16   0.00  -0.63    -0.01   0.01   0.10     0.01  -0.01  -0.09
  13   1    -0.05  -0.01   0.00     0.00  -0.00   0.00    -0.01   0.00   0.01
  14   1    -0.07   0.09   0.02     0.01  -0.02  -0.01    -0.00   0.01   0.00
  15   1    -0.09  -0.03   0.04     0.01   0.01  -0.00    -0.00  -0.00   0.00
                     28                     29                     30
                        a                      a                      a 
 Frequencies --  1505.9357              1717.3111              2953.4793
 Red. masses --     1.5533                11.2063                 1.8195
 Frc consts  --     0.0000                 0.0000                 0.0000
 IR Inten    --     0.9230                16.5409                34.3696
 Raman Activ --     0.0000                 0.0000                 0.0000
 Depolar     --     0.0000                 0.0000                 0.0000
 Atom AN      X      Y      Z        X      Y      Z        X      Y      Z
   1   6    -0.02  -0.01  -0.21    -0.00   0.00  -0.00     0.00   0.00   0.00
   2   6    -0.02  -0.01  -0.06     0.01   0.00   0.00    -0.05  -0.03   0.08
   3   6     0.00   0.00   0.01     0.08   0.02  -0.05     0.08  -0.12  -0.21
   4   6     0.00   0.01  -0.00    -0.64   0.13   0.28     0.00   0.00  -0.01
   5   6     0.00  -0.01  -0.00     0.56  -0.19  -0.23    -0.00   0.00  -0.00
   6   1     0.34   0.08   0.59     0.00  -0.00   0.00    -0.01  -0.02   0.01
   7   1    -0.22  -0.37   0.40    -0.00   0.00   0.00    -0.01  -0.00  -0.01
   8   1    -0.03   0.34  -0.12    -0.00   0.00  -0.00    -0.00   0.00   0.01
   9   1     0.05   0.01  -0.00    -0.01  -0.00  -0.00     0.06  -0.07  -0.24
  10   1    -0.00   0.03   0.05    -0.00   0.00  -0.01     0.12   0.15  -0.06
  11   1     0.01   0.00   0.01     0.05   0.03  -0.00    -0.24   0.28   0.81
  12   1    -0.00  -0.00  -0.00    -0.05  -0.02   0.02    -0.06   0.16  -0.04
  13   1    -0.04  -0.01   0.00     0.06   0.11  -0.04     0.01  -0.03   0.00
  14   1     0.00  -0.00   0.00     0.00   0.15  -0.02    -0.00  -0.01   0.00
  15   1     0.01  -0.00  -0.01    -0.09  -0.13   0.05    -0.00   0.00  -0.00
                     31                     32                     33
                        a                      a                      a 
 Frequencies --  2962.0619              2976.1149              2981.8021
 Red. masses --     1.9662                 1.5443                 1.5806
 Frc consts  --     0.0000                 0.0000                 0.0000
 IR Inten    --   104.5267                52.7114               107.7177
 Raman Activ --     0.0000                 0.0000                 0.0000
 Depolar     --     0.0000                 0.0000                 0.0000
 Atom AN      X      Y      Z        X      Y      Z        X      Y      Z
   1   6     0.01   0.00  -0.01    -0.01  -0.00  -0.01    -0.02  -0.01  -0.02
   2   6    -0.16  -0.11   0.19     0.00   0.09   0.13     0.03   0.12   0.08
   3   6    -0.05   0.07   0.07     0.05  -0.13   0.07    -0.06   0.16  -0.03
   4   6    -0.00  -0.00   0.00    -0.00  -0.00   0.00     0.00  -0.00  -0.00
   5   6    -0.00  -0.00   0.00     0.00   0.00  -0.00     0.00  -0.00   0.00
   6   1    -0.03  -0.04   0.02    -0.00   0.00  -0.00     0.01   0.02  -0.01
   7   1    -0.01  -0.00  -0.01     0.03   0.00   0.02     0.06   0.01   0.04
   8   1    -0.01   0.02   0.05    -0.01   0.01   0.04    -0.01   0.01   0.03
   9   1     0.11  -0.13  -0.43     0.18  -0.14  -0.59     0.15  -0.10  -0.47
  10   1     0.46   0.55  -0.26    -0.19  -0.21   0.13    -0.28  -0.32   0.18
  11   1     0.07  -0.08  -0.24     0.08  -0.10  -0.22    -0.03   0.06   0.09
  12   1     0.08  -0.19   0.02    -0.24   0.58  -0.03     0.25  -0.63   0.04
  13   1    -0.00   0.01  -0.00     0.00  -0.02   0.00    -0.00   0.02  -0.00
  14   1     0.00   0.00  -0.00     0.00   0.00  -0.00    -0.00  -0.00   0.00
  15   1     0.00   0.00  -0.00    -0.00  -0.00   0.00    -0.00   0.01  -0.00
                     34                     35                     36
                        a                      a                      a 
 Frequencies --  3025.0458              3030.4574              3043.9023
 Red. masses --     1.9118                 1.8189                 1.4163
 Frc consts  --     0.0000                 0.0000                 0.0000
 IR Inten    --    84.7598                78.4686                32.6625
 Raman Activ --     0.0000                 0.0000                 0.0000
 Depolar     --     0.0000                 0.0000                 0.0000
 Atom AN      X      Y      Z        X      Y      Z        X      Y      Z
   1   6    -0.04  -0.07  -0.27    -0.26  -0.08   0.04     0.03   0.16  -0.09
   2   6     0.00  -0.01  -0.03    -0.02  -0.02   0.01     0.01   0.01  -0.01
   3   6     0.00  -0.01  -0.00     0.00  -0.00   0.00     0.00  -0.00   0.00
   4   6    -0.00   0.00  -0.00    -0.00   0.01  -0.00     0.01  -0.03  -0.00
   5   6    -0.00   0.00   0.00    -0.00  -0.00   0.00     0.00   0.00  -0.00
   6   1    -0.02  -0.03  -0.03     0.22   0.31  -0.18    -0.49  -0.61   0.35
   7   1     0.39   0.05   0.21     0.62   0.08   0.43     0.33   0.07   0.19
   8   1    -0.21   0.22   0.78     0.06  -0.12  -0.38     0.06  -0.04  -0.23
   9   1    -0.02   0.02   0.08    -0.00  -0.00   0.00    -0.01   0.01   0.02
  10   1     0.01   0.01  -0.01     0.05   0.05  -0.03    -0.02  -0.02   0.01
  11   1    -0.00   0.00   0.02    -0.00  -0.00   0.00     0.00  -0.00  -0.00
  12   1    -0.01   0.02  -0.00    -0.01   0.01  -0.00    -0.00   0.00  -0.00
  13   1     0.00  -0.01  -0.00     0.01  -0.03  -0.00    -0.03   0.12   0.00
  14   1     0.00   0.00  -0.00     0.00   0.00  -0.00    -0.01  -0.01   0.00
  15   1     0.00  -0.00  -0.00     0.00  -0.00   0.00     0.00  -0.01  -0.00
                     37                     38                     39
                        a                      a                      a 
 Frequencies --  3057.0533              3092.1827              3113.6564
 Red. masses --     1.7995                 1.5669                 2.0541
 Frc consts  --     0.0000                 0.0000                 0.0000
 IR Inten    --    91.2982                52.9664               110.2471
 Raman Activ --     0.0000                 0.0000                 0.0000
 Depolar     --     0.0000                 0.0000                 0.0000
 Atom AN      X      Y      Z        X      Y      Z        X      Y      Z
   1   6     0.01   0.02  -0.01    -0.00   0.00  -0.00     0.00  -0.00   0.00
   2   6     0.00   0.00  -0.00     0.00  -0.00  -0.00    -0.00  -0.00  -0.00
   3   6    -0.01   0.02   0.00    -0.00  -0.00   0.00     0.00  -0.00  -0.00
   4   6    -0.07   0.25   0.01    -0.02   0.01   0.01     0.01  -0.05  -0.00
   5   6    -0.01  -0.03   0.01     0.16  -0.15  -0.05    -0.13  -0.26   0.09
   6   1    -0.07  -0.09   0.05    -0.00  -0.00   0.00     0.00   0.00  -0.00
   7   1     0.02   0.01   0.01     0.00   0.00   0.00    -0.00  -0.00  -0.00
   8   1     0.01  -0.00  -0.02    -0.00  -0.00  -0.00    -0.00   0.00   0.00
   9   1    -0.00   0.00   0.00    -0.00   0.00   0.00     0.00  -0.00   0.00
  10   1    -0.00  -0.00   0.00     0.00   0.00  -0.00    -0.00  -0.00  -0.00
  11   1     0.01  -0.00  -0.02     0.00  -0.00  -0.00    -0.00   0.00   0.01
  12   1     0.01  -0.03   0.00    -0.00   0.01  -0.00    -0.00   0.01  -0.00
  13   1     0.22  -0.92  -0.01     0.01  -0.02  -0.00    -0.03   0.12  -0.00
  14   1     0.09   0.08  -0.05    -0.29  -0.31   0.16     0.58   0.53  -0.31
  15   1    -0.02   0.04   0.00    -0.20   0.84   0.01    -0.13   0.41   0.02
