18
 energy: -20.888646193821 gnorm: 0.028787167072 xtb: 6.7.1 (edcfbbe)
C           -1.62371803462157        1.10474124325714       -0.51985166601141
C           -1.09756322225150        0.48049411512604        0.77517207066872
C           -0.04513094256962       -0.63952930661693        0.62461302098607
H           -0.03177753144181       -1.18452542049621        1.58022063435440
C           -0.39399885820072       -1.64101693989342       -0.47671881823335
C            1.38664654441700       -0.12205475553280        0.48107621176200
O            1.65635541095918        0.58420319387252       -0.74777320849697
H           -2.35026218881376        1.88978899850492       -0.28748143621662
H           -0.83377548379842        1.55718248064915       -1.12685236909621
H           -2.13371831385722        0.36286752982563       -1.14258892561264
H           -1.95545267462042        0.06901230066237        1.32188978048823
H           -0.67717317597356        1.26809857186565        1.41543975577216
H           -0.36205388426875       -1.17608602850224       -1.46640749292992
H           -1.39897521674283       -2.05071853867566       -0.33287251127641
H            0.31502997184531       -2.47539347099430       -0.47705651287016
H            2.07831975191568       -0.97244935453484        0.48629243144090
H            1.63553978541290        0.52063829620716        1.33727541594303
H            1.26117745361619        1.46136421797545       -0.67254205113999
18
 energy: -20.889627921270 gnorm: 0.013635936653 xtb: 6.7.1 (edcfbbe)
C           -1.61799792014187        1.09789470969873       -0.51916317975328
C           -1.10105734314875        0.47831721159758        0.77541573292829
C           -0.05258270715211       -0.64158743461765        0.62975387381740
H           -0.04560484943304       -1.18863821513715        1.58211920524733
C           -0.39536927036687       -1.63318608572473       -0.47766366659559
C            1.38097663566987       -0.11867695873017        0.47333687474380
O            1.64934646043498        0.57887810529549       -0.74191797764950
H           -2.33202349674810        1.88695713263671       -0.28292929396034
H           -0.82012466852075        1.53198454660783       -1.11861523679660
H           -2.13066794611110        0.35553720609912       -1.12817964633917
H           -1.96018226128499        0.06516147344826        1.31197655987281
H           -0.67858786757561        1.26507091643340        1.40892689266288
H           -0.33805783669818       -1.16027342696648       -1.45678017701111
H           -1.39942295438220       -2.03153948442577       -0.33584143751834
H            0.30930976596570       -2.46373268059490       -0.46587799869431
H            2.07326079874607       -0.96546466814409        0.46601439440043
H            1.63566717753063        0.52377495320404        1.32529734993667
H            1.25258767422237        1.45613983201939       -0.67403793975957
18
 energy: -20.889882550083 gnorm: 0.003416663015 xtb: 6.7.1 (edcfbbe)
C           -1.61342667798167        1.09214034456024       -0.51943016857951
C           -1.10284447025775        0.47759605340772        0.78004088528872
C           -0.05512940715702       -0.64142057998049        0.63404490762806
H           -0.04644604894246       -1.18916522344014        1.58410542743072
C           -0.39508253491548       -1.62786046769463       -0.47922143511609
C            1.38020438985874       -0.11420971807081        0.46867440322651
O            1.63717927026446        0.57688406880728       -0.73785859999004
H           -2.31384322186742        1.89109099393845       -0.28649214860457
H           -0.80990613265779        1.50647304975754       -1.12012142250532
H           -2.13505699118606        0.35081540761739       -1.11669671649335
H           -1.96195096349918        0.06352562240209        1.31226414487888
H           -0.68064495367749        1.26319694019968        1.41146612385587
H           -0.31342438629442       -1.14934597769429       -1.45111431060580
H           -1.40302282618974       -2.01257983667331       -0.34980362737814
H            0.30052769514578       -2.46263256457128       -0.45703852738947
H            2.06859249351897       -0.96333410097136        0.45459955517953
H            1.63763275066362        0.52201525401963        1.32421658642036
H            1.23611140618097        1.45342786708592       -0.67980074771455
18
 energy: -20.889953251469 gnorm: 0.001960047480 xtb: 6.7.1 (edcfbbe)
C           -1.61324912949479        1.08916260098961       -0.51913248370043
C           -1.10281467428785        0.47689037423707        0.78275844582267
C           -0.05478639207053       -0.64180614176369        0.63669107248964
H           -0.04354734480587       -1.19032400952821        1.58585880790285
C           -0.39402990292354       -1.62556356506680       -0.48025878610558
C            1.38116114969911       -0.11178643640400        0.46628286424314
O            1.63258821417273        0.58002677263466       -0.73586980224614
H           -2.30212568215026        1.89933340121166       -0.28981213956379
H           -0.80686843511764        1.48713975307289       -1.12702830229651
H           -2.14684482367666        0.34870391267269       -1.10714719642204
H           -1.96191460116527        0.06368824656640        1.31543764370448
H           -0.68088970647167        1.26317229752543        1.41321092641903
H           -0.29421672271625       -1.14626954143493       -1.45013153510490
H           -1.40820503944311       -1.99797970095434       -0.36390998075242
H            0.29162341921541       -2.46860141892173       -0.44941610226242
H            2.06778345266703       -0.96282525024999        0.45056115253271
H            1.63956895860984        0.51886140987543        1.32661569860080
H            1.22623665096536        1.45479442823746       -0.68287595372928
18
 energy: -20.890009346564 gnorm: 0.004873926141 xtb: 6.7.1 (edcfbbe)
C           -1.61564430612151        1.08260597877738       -0.51840224027437
C           -1.10131481433882        0.47630598097325        0.78654709153659
C           -0.05287977149081       -0.64154426293957        0.63803676203258
H           -0.03732916266294       -1.19137834174692        1.58617837390133
C           -0.39220989257752       -1.62240139378628       -0.48265857272040
C            1.38384748757865       -0.10859081503253        0.46448047559240
O            1.62936267157525        0.59027714078679       -0.73103352930173
H           -2.27906122761628        1.91682836560881       -0.29407384470938
H           -0.80734011889271        1.44729187085772       -1.14686335156796
H           -2.17895992461935        0.34610428206278       -1.08684589154166
H           -1.95913656217770        0.06527024251028        1.32415683220385
H           -0.67850440395295        1.26531924067548        1.41411827757518
H           -0.25766315425016       -1.14740776713122       -1.45170825491101
H           -1.41981326511402       -1.96868501226093       -0.39213363477654
H            0.27028400889698       -2.48504804625829       -0.43370540734373
H            2.06922642973083       -0.96179259586795        0.44434308993624
H            1.64431560195872        0.51290473549230        1.33299462449708
H            1.21228979508040        1.46055752997849       -0.68159647059664
18
 energy: -20.890033944241 gnorm: 0.003269333111 xtb: 6.7.1 (edcfbbe)
C           -1.61716498619035        1.08145151233166       -0.51850572300204
C           -1.10018627279000        0.47658645379707        0.78571473250057
C           -0.05217962177001       -0.64157555011188        0.63728017345480
H           -0.03669556969469       -1.19173557897004        1.58546024488961
C           -0.39215380965626       -1.62218226420669       -0.48300675636735
C            1.38416518901829       -0.10918748199966        0.46528391688466
O            1.63073554654264        0.59374787838596       -0.72956273026993
H           -2.27554753718983        1.91930848698299       -0.29466081431540
H           -0.81048700768392        1.44019368711028       -1.15183128014932
H           -2.18644927642623        0.34685523575016       -1.08297242235116
H           -1.95698733590598        0.06644363420196        1.32592012665363
H           -0.67623589169371        1.26656533052726        1.41162164231878
H           -0.25428167071358       -1.15040588756223       -1.45263128749936
H           -1.42066471365030       -1.96455111748293       -0.39469338886924
H            0.26594153655443       -2.48751555934354       -0.43188012059664
H            2.07016408585376       -0.96175622845788        0.44259539700463
H            1.64513267730486        0.51136893056006        1.33418757227428
H            1.21236404909691        1.46300565118705       -0.67648495302869
18
 energy: -20.890067750823 gnorm: 0.001127283679 xtb: 6.7.1 (edcfbbe)
C           -1.61988657320027        1.07707815499608       -0.51939551344520
C           -1.09729998041861        0.47767864347578        0.78413972365158
C           -0.05092649654212       -0.64174368704933        0.63529603381789
H           -0.03679620016733       -1.19283605417806        1.58325956934812
C           -0.39228198274772       -1.62155144119485       -0.48430611989302
C            1.38448345266095       -0.11062092277579        0.46686917527116
O            1.63106901837508        0.60371721262853       -0.72528323193536
H           -2.26247682298032        1.92671763217056       -0.29631999898734
H           -0.81557713820103        1.41643432258336       -1.16578164988054
H           -2.20701501750494        0.34667056709574       -1.07033641425324
H           -1.95144543031555        0.07074679126787        1.33117340911952
H           -0.66926928189237        1.27021328171753        1.40427483109588
H           -0.24268237488964       -1.15553626624109       -1.45452414469157
H           -1.42427180462900       -1.95224686823026       -0.40213825861742
H            0.25501280369866       -2.49358146291010       -0.42578704035940
H            2.07192330878271       -0.96127365453471        0.43475891646086
H            1.64764859325625        0.50639757250147        1.33692124406231
H            1.20926131772132        1.47035331137685       -0.66098620123238
18
 energy: -20.890081849228 gnorm: 0.001734437765 xtb: 6.7.1 (edcfbbe)
C           -1.62150485900138        1.07215764146478       -0.52101537326642
C           -1.09447147401914        0.47933576301125        0.78371943856116
C           -0.05015863165076       -0.64226724081531        0.63543133232217
H           -0.03730338429466       -1.19431089331770        1.58288255564192
C           -0.39256147627677       -1.62040442816969       -0.48542292864932
C            1.38477166024318       -0.11182093269083        0.46726913961309
O            1.62728658689160        0.61335155558646       -0.72081731842902
H           -2.24924191785699        1.93355065149313       -0.30114796726719
H           -0.81839774048952        1.39174781913420       -1.17885931057987
H           -2.22442926563030        0.34438669751804       -1.05791669513987
H           -1.94650535380014        0.07674854648949        1.33688884896067
H           -0.66206621425844        1.27429835347803        1.39744360835800
H           -0.23303070813594       -1.15655706964881       -1.45488874545754
H           -1.42755161451073       -1.94201079969835       -0.40909625744179
H            0.24678119409218       -2.49743415999236       -0.42168542841642
H            2.07211221673472       -0.96172685460598        0.42441460967358
H            1.65159586662927        0.49906293824184        1.34002342205570
H            1.20414450633986        1.47850954522137       -0.64538860100702
18
 energy: -20.890094810327 gnorm: 0.001263305705 xtb: 6.7.1 (edcfbbe)
C           -1.62170831552123        1.06863512432266       -0.52300877755821
C           -1.09251040729587        0.48132883564834        0.78382198324742
C           -0.05020623614116       -0.64259978427629        0.63613714927191
H           -0.03831902124929       -1.19492313720787        1.58320333003215
C           -0.39329181045061       -1.62009615778880       -0.48565720121344
C            1.38502734917501       -0.11288691728443        0.46656730306982
O            1.62184965084940        0.62073296726447       -0.71695547272811
H           -2.24112140752904        1.93650829539238       -0.30719862915619
H           -0.81942144402752        1.37596411745063       -1.18669540435093
H           -2.23284928627228        0.34174350441022       -1.05054128290024
H           -1.94349889528486        0.08313672285981        1.34132681718984
H           -0.65652960825062        1.27815807453249        1.39220467136864
H           -0.23175807673557       -1.15515569584138       -1.45394475231504
H           -1.42868439214839       -1.93998757113557       -0.41077493213434
H            0.24476807875128       -2.49777346845692       -0.42173078989821
H            2.07097616023980       -0.96325978703580        0.41455362293194
H            1.65604400789473        0.49097672642244        1.34279873207447
H            1.20070304500228        1.48611528342318       -0.63227203739964
18
 energy: -20.890110340420 gnorm: 0.000887454022 xtb: 6.7.1 (edcfbbe)
C           -1.62261377015305        1.06422052018657       -0.52634058707999
C           -1.08958441850995        0.48429045580811        0.78276916879742
C           -0.05064514079596       -0.64324213199147        0.63681725754091
H           -0.03970568765364       -1.19538022340615        1.58381469217600
C           -0.39472422065359       -1.62014271105892       -0.48560080221250
C            1.38524942657481       -0.11461914529328        0.46510215315016
O            1.61545752970296        0.63265740353435       -0.71017438903962
H           -2.23029229767636        1.94186838447873       -0.31523829488651
H           -0.82083629421563        1.35380314081066       -1.19903365989029
H           -2.24647947638091        0.33797639775740       -1.04042237987825
H           -1.93911932489043        0.09310596143749        1.34728465652247
H           -0.64784274597198        1.28373246593049        1.38343325908142
H           -0.23502643199198       -1.15348351527981       -1.45339910151215
H           -1.42949851123208       -1.94174937765274       -0.40952796884059
H            0.24518604923082       -2.49683820131367       -0.42321224637838
H            2.06880758278504       -0.96606760685800        0.39964529845736
H            1.66240815731276        0.47753963597171        1.34760878707118
H            1.19872896552523        1.49894567963806       -0.61169151354678
18
 energy: -20.890121048755 gnorm: 0.000990571140 xtb: 6.7.1 (edcfbbe)
C           -1.62353370929002        1.05970398536030       -0.53028137182542
C           -1.08626504758161        0.48791172089773        0.78084963831811
C           -0.05080867724359       -0.64304533580427        0.63613779823820
H           -0.04094545314561       -1.19447535720510        1.58348783303391
C           -0.39744906079811       -1.62075529178038       -0.48465706525253
C            1.38616677759412       -0.11709151098013        0.46383576155247
O            1.61118735808538        0.64586825562645       -0.70203365893910
H           -2.22361001502530        1.94291139197538       -0.32410256321289
H           -0.82435969625242        1.33716819540431       -1.20988523408886
H           -2.25547743569717        0.33411554260526       -1.03407729298633
H           -1.93405791307429        0.10336849050058        1.35255451809541
H           -0.63929603926861        1.29036935245196        1.37375630717643
H           -0.24734140016899       -1.15237460817070       -1.45325985690869
H           -1.43008028751433       -1.94848260736552       -0.40165317166772
H            0.24816731308973       -2.49405285800464       -0.42761672246625
H            2.06677581071080       -0.96982584248877        0.38335182686563
H            1.66987479494595        0.46191664334135        1.35318616796644
H            1.20052207164013        1.51338696633567       -0.58775858436697
18
 energy: -20.890124005120 gnorm: 0.000420186418 xtb: 6.7.1 (edcfbbe)
C           -1.62378701996230        1.05764326919052       -0.53209962640068
C           -1.08473725809175        0.48912617943462        0.77948102742417
C           -0.05065374178748       -0.64314281007677        0.63576892852820
H           -0.04060060062458       -1.19434814780353        1.58334055884709
C           -0.39879072583772       -1.62100841689838       -0.48415367141353
C            1.38656722744481       -0.11778245266624        0.46328167807711
O            1.61008813505377        0.65378776602441       -0.69703201741203
H           -2.21806567695963        1.94609781312685       -0.32831599396124
H           -0.82468121540047        1.32637199871189       -1.21658993528418
H           -2.26225275581035        0.33243664080922       -1.02947134144716
H           -1.93168259528470        0.10757296832166        1.35436866741970
H           -0.63569627361870        1.29300989645424        1.36880741912809
H           -0.25401502914387       -1.15279187532755       -1.45371649715642
H           -1.43035674343601       -1.95140484020121       -0.39720075820352
H            0.24874293771587       -2.49307046917283       -0.42992970515120
H            2.06603362433825       -0.97050471853442        0.37487477610766
H            1.67309603166770        0.45411410647062        1.35622224906098
H            1.20026107074325        1.52051022483638       -0.57580142863121
18
 energy: -20.890124767535 gnorm: 0.000208172762 xtb: 6.7.1 (edcfbbe)
C           -1.62357563662077        1.05737834739323       -0.53269761984041
C           -1.08434107688844        0.48927839657549        0.77889581451237
C           -0.05034466387017       -0.64302758064867        0.63553873904502
H           -0.04021313507273       -1.19398910354482        1.58332251330998
C           -0.39945340664869       -1.62117767050973       -0.48364856962562
C            1.38692911736851       -0.11791559386600        0.46301159547512
O            1.61074018949400        0.65596432839107       -0.69573172877901
H           -2.21816001742124        1.94538057402658       -0.32915872111095
H           -0.82480480446052        1.32661572386324       -1.21685944108412
H           -2.26170087421613        0.33240131264290       -1.03037153732022
H           -1.93118067364861        0.10751183374009        1.35372404858013
H           -0.63547947053498        1.29316311067163        1.36832110276632
H           -0.25689933710234       -1.15322873368053       -1.45392098902604
H           -1.43078482978693       -1.95231904314699       -0.39451368153460
H            0.24884788449484       -2.49282070859862       -0.43018206031004
H            2.06601667379481       -0.97057751530930        0.37260000425578
H            1.67399254456650        0.45216362035984        1.35680649300313
H            1.19988090755897        1.52181583434007       -0.57330163278499
18
 energy: -20.890125127600 gnorm: 0.000174084242 xtb: 6.7.1 (edcfbbe)
C           -1.62306963944294        1.05754712367525       -0.53300167618656
C           -1.08435819815835        0.48929206284660        0.77872119317916
C           -0.05013839788251       -0.64279664339818        0.63518098053159
H           -0.03979397729666       -1.19347121675097        1.58313077077528
C           -0.39964803866573       -1.62159213975227       -0.48323999596573
C            1.38720790300635       -0.11795289386333        0.46283490179875
O            1.61078423749316        0.65745963448084       -0.69506249537345
H           -2.21768239324541        1.94548228655130       -0.32941164908312
H           -0.82426711692883        1.32692792324130       -1.21712508614304
H           -2.26112106383651        0.33273813926105       -1.03100821022426
H           -1.93137559487229        0.10709942886579        1.35311078355119
H           -0.63588353537428        1.29314970249293        1.36856513516782
H           -0.25803905319709       -1.15416498507131       -1.45385483518748
H           -1.43086417696132       -1.95277420922115       -0.39318121601934
H            0.24870148141861       -2.49314426846045       -0.42998499260410
H            2.06609541727681       -0.97063934352899        0.37090052068398
H            1.67473745504315        0.45103878681452        1.35722090929160
H            1.19818408262990        1.52241774451655       -0.57196070866043
18
 energy: -20.890125327746 gnorm: 0.000100506794 xtb: 6.7.1 (edcfbbe)
C           -1.62263543886144        1.05802255352013       -0.53312007509887
C           -1.08439249511545        0.48908056708091        0.77854065761779
C           -0.04998223441502       -0.64287154808157        0.63528200232310
H           -0.03944991190610       -1.19324079113994        1.58342301799744
C           -0.39965730587067       -1.62195339539266       -0.48288608557868
C            1.38725871843375       -0.11787182201941        0.46258775513342
O            1.61057733228070        0.65818507284921       -0.69491580114805
H           -2.21751383830493        1.94578767250978       -0.32936420724606
H           -0.82359983227163        1.32790678315455       -1.21681560926315
H           -2.26025840927336        0.33329431423424       -1.03182906483716
H           -1.93170181980256        0.10641641755350        1.35221704056754
H           -0.63644567936395        1.29270536625144        1.36912825478328
H           -0.25799013450306       -1.15489195499539       -1.45365305202612
H           -1.43090919526346       -1.95293336356544       -0.39274567073369
H            0.24853970045580       -2.49356014310550       -0.42931094705424
H            2.06607940810731       -0.97050322853736        0.36989153659622
H            1.67523039328231        0.45062591601486        1.35718339126777
H            1.19632013339785        1.52241871636813       -0.57177881376870
18
 energy: -20.890125384259 gnorm: 0.000040588526 xtb: 6.7.1 (edcfbbe)
C           -1.62230736972690        1.05822423704237       -0.53321877941486
C           -1.08445258132905        0.48901597681121        0.77852088849638
C           -0.04999826163973       -0.64288142004438        0.63535610182306
H           -0.03942433826511       -1.19306129326675        1.58359467126562
C           -0.39960960670787       -1.62217455590659       -0.48268485475002
C            1.38720016129268       -0.11786634529970        0.46232039698331
O            1.61014612354568        0.65864515299698       -0.69486571570046
H           -2.21728333712510        1.94590871643110       -0.32929656041947
H           -0.82309898034926        1.32834124245625       -1.21666719930285
H           -2.25981998913263        0.33350938484371       -1.03222768116139
H           -1.93195844173722        0.10623372514787        1.35182254557871
H           -0.63665821256484        1.29246882669054        1.36945793960896
H           -0.25766377085834       -1.15523903187418       -1.45348475190396
H           -1.43091287748643       -1.95303252264936       -0.39264403057682
H            0.24851259438189       -2.49385213354648       -0.42876729365188
H            2.06597285493339       -0.97045596762787        0.36909646948898
H            1.67551733420318        0.45026376777617        1.35703111158378
H            1.19530808957171        1.52256937271860       -0.57150892841523
