14
 energy: -17.243304931058 gnorm: 0.019308263191 xtb: 6.7.1 (edcfbbe)
C           -3.45971732485215       -0.59763476804348       -0.15148734820187
C           -2.07494720803355       -0.29743952960562        0.41315382179285
C           -1.39031261684019        0.84732358700023       -0.32678169385251
C           -0.04396235500927        1.24537717162233        0.22468202219314
Br           1.33133770247799       -0.19433713395960       -0.01609102317332
H           -4.11468218667751        0.27719582098281       -0.07537198026708
H           -3.39873738250886       -0.87833616229427       -1.20870570196239
H           -3.93748355541678       -1.42210922447495        0.38654590194315
H           -1.44946282853527       -1.19553670070562        0.35178385820176
H           -2.15351074215950       -0.03883586555362        1.47693071634693
H           -1.30529307774956        0.61568738557503       -1.39486155262403
H           -2.01583937553031        1.74988183986755       -0.25156129133148
H           -0.06757566142398        1.42317270670607        1.30010491290146
H            0.37983161455944        2.10674232225456       -0.28954946008132
14
 energy: -17.243891722079 gnorm: 0.007772999778 xtb: 6.7.1 (edcfbbe)
C           -3.44800639316732       -0.59336047238514       -0.15161152685245
C           -2.06761330612319       -0.29241462590207        0.41396978785449
C           -1.40188194734952        0.85945232967538       -0.33258456811350
C           -0.05089217362058        1.23795572217582        0.22676106668090
Br           1.29691624915165       -0.20703482702366       -0.01460247010044
H           -4.09721976317321        0.27805491192836       -0.06991485559273
H           -3.38156237527920       -0.87236315968742       -1.20285536954014
H           -3.91148266175902       -1.41605291340738        0.38992554230026
H           -1.44221879703517       -1.18731202518969        0.34264874116173
H           -2.15504868836194       -0.03507332820725        1.47403929917542
H           -1.30805050729296        0.60821347669125       -1.39299520882294
H           -2.03322351684513        1.75329448744371       -0.25975103296607
H           -0.07770420069946        1.41110732441885        1.30111034170075
H            0.37763308385554        2.09668454884066       -0.28534856499996
14
 energy: -17.243980706914 gnorm: 0.002348894772 xtb: 6.7.1 (edcfbbe)
C           -3.44646725326968       -0.59533661184619       -0.15081038664588
C           -2.06609644662772       -0.28819751917089        0.41338551121017
C           -1.40195857752597        0.86493674324276       -0.33448512586971
C           -0.04791233246089        1.23764539924221        0.22895227939658
Br           1.27050393280404       -0.21862525442183       -0.02041047984327
H           -4.09344106612149        0.27408944699837       -0.06765827041167
H           -3.37617888031414       -0.87282130005785       -1.19927729304974
H           -3.90331599712299       -1.41784798244371        0.39178912703697
H           -1.43796720802727       -1.17876966549201        0.33746393815032
H           -2.15447044492438       -0.03125327384560        1.47147532298228
H           -1.30395287036347        0.60524410188748       -1.39090689273248
H           -2.03579213035743        1.75299522200830       -0.26435083752769
H           -0.08483734423881        1.41060536136521        1.30247805010021
H            0.38153162085070        2.09848678190516       -0.27885376091078
14
 energy: -17.243990548559 gnorm: 0.001132358338 xtb: 6.7.1 (edcfbbe)
C           -3.44840309153672       -0.59615758819859       -0.15051478885834
C           -2.06734997135335       -0.28675491332213        0.41315736574304
C           -1.40383111854964        0.86683919817961       -0.33582926001125
C           -0.04649838574983        1.23381699870783        0.22758010749566
Br           1.27677482853963       -0.21329037156783       -0.01693782689090
H           -4.09689675912819        0.27223072137614       -0.06708711801990
H           -3.37767287135871       -0.87384543453188       -1.19900719561224
H           -3.90278727548524       -1.41961421653995        0.39284889942629
H           -1.43819051824573       -1.17637856998934        0.33662254336403
H           -2.15430663991137       -0.02959510195199        1.47119599476931
H           -1.30581578571066        0.60702171996126       -1.39196843406287
H           -2.03592844139414        1.75535223258087       -0.26533797746744
H           -0.08438675588854        1.40590243779292        1.30140412304836
H            0.38493778807297        2.09562433687449       -0.27733525103844
14
 energy: -17.243994143824 gnorm: 0.000409672348 xtb: 6.7.1 (edcfbbe)
C           -3.44836719266347       -0.59640474674405       -0.15060967200992
C           -2.06702679704299       -0.28691286638222        0.41316681185520
C           -1.40250224720936        0.86610683257948       -0.33626962755601
C           -0.04573074886027        1.23457608692470        0.22821954085347
Br           1.27427014775311       -0.21575870234062       -0.01959161069588
H           -4.09856302382610        0.27157683427051       -0.06758324328163
H           -3.37831489247280       -0.87498811724554       -1.19958399479460
H           -3.90258420169118       -1.42024446853682        0.39335553639171
H           -1.43827279446551       -1.17731793862215        0.33848836833899
H           -2.15434250143406       -0.02850331666820        1.47126681745476
H           -1.30478568736683        0.60772786420073       -1.39308454541396
H           -2.03304715993152        1.75617375082534       -0.26568845747423
H           -0.08499975503922        1.40694591128220        1.30240807760214
H            0.38391185655068        2.09817432582805       -0.27570281938471
14
 energy: -17.243994826348 gnorm: 0.000100077406 xtb: 6.7.1 (edcfbbe)
C           -3.44850067636566       -0.59685759966107       -0.15058305390274
C           -2.06752380408857       -0.28621042556492        0.41301782968558
C           -1.40265659923544        0.86645481412779       -0.33630608406652
C           -0.04547754540761        1.23410482162051        0.22821137408001
Br           1.27474877678519       -0.21482750601168       -0.02018921095979
H           -4.09892852767706        0.27077604952874       -0.06765848424444
H           -3.37822374283891       -0.87537413055438       -1.19943255887413
H           -3.90228936487282       -1.42082713951204        0.39341084010056
H           -1.43855964360109       -1.17644539111562        0.33880828442366
H           -2.15527331478556       -0.02725036854428        1.47089186900166
H           -1.30485243853576        0.60768115914629       -1.39298720852013
H           -2.03301821691251        1.75661451356997       -0.26574028692004
H           -0.08454853271592        1.40558805018049        1.30252990845041
H            0.38474863255220        2.09772460216160       -0.27518203636876
14
 energy: -17.243994967248 gnorm: 0.000108675300 xtb: 6.7.1 (edcfbbe)
C           -3.44827597943759       -0.59692755271315       -0.15075266823452
C           -2.06769280730593       -0.28574363637956        0.41333402069944
C           -1.40288748026607        0.86669013388554       -0.33624604543200
C           -0.04542297768288        1.23366042899460        0.22803776138646
Br           1.27498609266492       -0.21513164072719       -0.02098576905066
H           -4.09914356785377        0.27035070350662       -0.06808398764994
H           -3.37763974331672       -0.87552104187345       -1.19951574722473
H           -3.90178302748967       -1.42104677917106        0.39315702846077
H           -1.43841866528345       -1.17582405656352        0.33979763831714
H           -2.15597475322075       -0.02634158062067        1.47104695696860
H           -1.30512274988981        0.60777476197623       -1.39287712262917
H           -2.03308899626599        1.75698058964058       -0.26575350169898
H           -0.08434872552634        1.40448242256780        1.30242979752345
H            0.38445838317455        2.09774869684865       -0.27479717955054
14
 energy: -17.243995097810 gnorm: 0.000069415935 xtb: 6.7.1 (edcfbbe)
C           -3.44811475072636       -0.59705993934101       -0.15094753330917
C           -2.06790702499301       -0.28537672473611        0.41370499423219
C           -1.40293744818254        0.86675500350474       -0.33613839526404
C           -0.04545555330989        1.23353649601455        0.22812218206391
Br           1.27485997155491       -0.21515757899101       -0.02242195195291
H           -4.09938471458524        0.26995460349259       -0.06856120065193
H           -3.37697657555583       -0.87567276903595       -1.19967604569410
H           -3.90150106185243       -1.42134048817589        0.39281224233209
H           -1.43838264371578       -1.17537580081246        0.34104120036695
H           -2.15682474534713       -0.02544161802471        1.47124042225995
H           -1.30527834618270        0.60768427083548       -1.39274939264472
H           -2.03291304363404        1.75723295051816       -0.26584013081965
H           -0.08406038954236        1.40369350656975        1.30261885311142
H            0.38452132837289        2.09771953755328       -0.27441406214469
14
 energy: -17.243995176254 gnorm: 0.000066712798 xtb: 6.7.1 (edcfbbe)
C           -3.44806037526691       -0.59729369491026       -0.15109945989895
C           -2.06813348079291       -0.28505096963355        0.41401102132263
C           -1.40288816903362        0.86684996745356       -0.33602114092018
C           -0.04531430282930        1.23355584377350        0.22802734982971
Br           1.27467839834999       -0.21534165771499       -0.02344368683295
H           -4.09963506457169        0.26954402248165       -0.06894345869741
H           -3.37636756554660       -0.87582828257223       -1.19983415159026
H           -3.90142400295633       -1.42174995041245        0.39246851688620
H           -1.43844587659468       -1.17500750623778        0.34210193654353
H           -2.15760429351553       -0.02461588684093        1.47137902567178
H           -1.30548999640001        0.60760850325998       -1.39262194682297
H           -2.03265542802919        1.75747575415366       -0.26580205529535
H           -0.08354759734726        1.40295362614303        1.30266211415672
H            0.38453275683452        2.09805168042823       -0.27409288246721
