      -----------------------------------------------------------      
     |                   =====================                   |     
     |                           x T B                           |     
     |                   =====================                   |     
     |                         S. Grimme                         |     
     |          Mulliken Center for Theoretical Chemistry        |     
     |                    University of Bonn                     |     
      -----------------------------------------------------------      

   * xtb version 6.7.1 (edcfbbe) compiled by 'albert@albert-system' on 2024-07-22

   xtb is free software: you can redistribute it and/or modify it under
   the terms of the GNU Lesser General Public License as published by
   the Free Software Foundation, either version 3 of the License, or
   (at your option) any later version.
   
   xtb is distributed in the hope that it will be useful,
   but WITHOUT ANY WARRANTY; without even the implied warranty of
   MERCHANTABILITY or FITNESS FOR A PARTICULAR PURPOSE.  See the
   GNU Lesser General Public License for more details.
   
   Cite this work as:
   * C. Bannwarth, E. Caldeweyher, S. Ehlert, A. Hansen, P. Pracht,
     J. Seibert, S. Spicher, S. Grimme, WIREs Comput. Mol. Sci., 2020, 11,
     e01493. DOI: 10.1002/wcms.1493
   
   for GFN2-xTB:
   * C. Bannwarth, S. Ehlert and S. Grimme., J. Chem. Theory Comput., 2019,
     15, 1652-1671. DOI: 10.1021/acs.jctc.8b01176
   for GFN1-xTB:
   * S. Grimme, C. Bannwarth, P. Shushkov, J. Chem. Theory Comput., 2017,
     13, 1989-2009. DOI: 10.1021/acs.jctc.7b00118
   for GFN0-xTB:
   * P. Pracht, E. Caldeweyher, S. Ehlert, S. Grimme, ChemRxiv, 2019, preprint.
     DOI: 10.26434/chemrxiv.8326202.v1
   for GFN-FF:
   * S. Spicher and S. Grimme, Angew. Chem. Int. Ed., 2020, 59, 15665-15673.
     DOI: 10.1002/anie.202004239
   
   for ALPB and GBSA implicit solvation:
   * S. Ehlert, M. Stahn, S. Spicher, S. Grimme, J. Chem. Theory Comput.,
     2021, 17, 4250-4261. DOI: 10.1021/acs.jctc.1c00471
   
   for ddCOSMO and CPCM-X implicit solvation:
   * M. Stahn, S. Ehlert, S. Grimme, J. Phys. Chem. A,
     2023, XX, XXXX-XXXX. DOI: 10.1021/acs.jpca.3c04382
   
   for DFT-D4:
   * E. Caldeweyher, C. Bannwarth and S. Grimme, J. Chem. Phys., 2017,
     147, 034112. DOI: 10.1063/1.4993215
   * E. Caldeweyher, S. Ehlert, A. Hansen, H. Neugebauer, S. Spicher,
     C. Bannwarth and S. Grimme, J. Chem. Phys., 2019, 150, 154122.
     DOI: 10.1063/1.5090222
   * E. Caldeweyher, J.-M. Mewes, S. Ehlert and S. Grimme, Phys. Chem. Chem. Phys.
     2020, 22, 8499-8512. DOI: 10.1039/D0CP00502A
   
   for sTDA-xTB:
   * S. Grimme and C. Bannwarth, J. Chem. Phys., 2016, 145, 054103.
     DOI: 10.1063/1.4959605
   
   in the mass-spec context:
   * V. Asgeirsson, C. Bauer and S. Grimme, Chem. Sci., 2017, 8, 4879.
     DOI: 10.1039/c7sc00601b
   * J. Koopman and S. Grimme, ACS Omega 2019, 4, 12, 15120-15133.
     DOI: 10.1021/acsomega.9b02011
   
   for metadynamics refer to:
   * S. Grimme, J. Chem. Theory Comput., 2019, 155, 2847-2862
     DOI: 10.1021/acs.jctc.9b00143
   
   for SPH calculations refer to:
   * S. Spicher and S. Grimme, J. Chem. Theory Comput., 2021, 17, 1701-1714
     DOI: 10.1021/acs.jctc.0c01306
   
   for ONIOM refer to:
   * C. Plett, A. Katbashev, S. Ehlert, S. Grimme, M. Bursch,
     Phys. Chem. Chem. Phys., 2023, 25, 17860-17868. DOI: 10.1039/D3CP02178E
   
   for DIPRO refer to:
   * J. Kohn, N. Gildemeister, S. Grimme, D. Fazzi, A. Hansen,
     J. Chem. Phys., 2023, just accepted.
   
   for PTB refer to:
   * S. Grimme, M. Mueller, A. Hansen, J. Chem. Phys., 2023, 158, 124111.
     DOI: 10.1063/5.0137838
   
   with help from (in alphabetical order)
   P. Atkinson, C. Bannwarth, F. Bohle, G. Brandenburg, E. Caldeweyher
   M. Checinski, S. Dohm, S. Ehlert, S. Ehrlich, I. Gerasimov, C. Hölzer
   A. Katbashev, J. Kohn, J. Koopman, C. Lavigne, S. Lehtola, F. März, M. Müller,
   F. Musil, H. Neugebauer, J. Pisarek, C. Plett, P. Pracht, F. Pultar,
   J. Seibert, P. Shushkov, S. Spicher, M. Stahn, M. Steiner, T. Strunk,
   J. Stückrath, T. Rose, and J. Unsleber
   
 * started run on 2025/04/11 at 10:35:17.420     
   ID    Z sym.   atoms
    1    6 C      1-6
    2    1 H      7-18

           -------------------------------------------------
          |                Calculation Setup                |
           -------------------------------------------------

          program call               : /srv/scratch/z5358697/.xtb/bin/xtb gas.coord --gfn2 --sp --chrg 0 --norestart --parallel 1
          hostname                   : k112
          coordinate file            : gas.coord
          omp threads                :                     1


           -------------------------------------------------
          |                 G F N 2 - x T B                 |
           -------------------------------------------------

        Reference                      10.1021/acs.jctc.8b01176
      * Hamiltonian:
        H0-scaling (s, p, d)           1.850000    2.230000    2.230000
        zeta-weighting                 0.500000
      * Dispersion:
        s8                             2.700000
        a1                             0.520000
        a2                             5.000000
        s9                             5.000000
      * Repulsion:
        kExp                           1.500000    1.000000
        rExp                           1.000000
      * Coulomb:
        alpha                          2.000000
        third order                    shell-resolved
        anisotropic                    true
        a3                             3.000000
        a5                             4.000000
        cn-shift                       1.200000
        cn-exp                         4.000000
        max-rad                        5.000000


          ...................................................
          :                      SETUP                      :
          :.................................................:
          :  # basis functions                  36          :
          :  # atomic orbitals                  36          :
          :  # shells                           24          :
          :  # electrons                        36          :
          :  max. iterations                   250          :
          :  Hamiltonian                  GFN2-xTB          :
          :  restarted?                      false          :
          :  GBSA solvation                  false          :
          :  PC potential                    false          :
          :  electronic temp.          300.0000000     K    :
          :  accuracy                    1.0000000          :
          :  -> integral cutoff          0.2500000E+02      :
          :  -> integral neglect         0.1000000E-07      :
          :  -> SCF convergence          0.1000000E-05 Eh   :
          :  -> wf. convergence          0.1000000E-03 e    :
          :  Broyden damping             0.4000000          :
          :  net charge                          0          :
          :  unpaired electrons                  0          :
          ...................................................

 iter      E             dE          RMSdq      gap      omega  full diag
   1    -19.2142584 -0.192143E+02  0.313E+00    5.39       0.0  T
   2    -19.2521479 -0.378895E-01  0.194E+00    5.27       1.0  T
   3    -19.2495720  0.257589E-02  0.115E+00    5.35       1.0  T
   4    -19.2575554 -0.798335E-02  0.487E-01    5.23       1.0  T
   5    -19.2590357 -0.148028E-02  0.652E-02    5.25       1.0  T
   6    -19.2590398 -0.418542E-05  0.353E-02    5.25       1.0  T
   7    -19.2590410 -0.113586E-05  0.527E-03    5.25       4.5  T
   8    -19.2590411 -0.136798E-06  0.107E-03    5.25      22.1  T
   9    -19.2590411 -0.910358E-09  0.414E-04    5.25      56.9  T
  10    -19.2590411 -0.197762E-09  0.948E-05    5.25     248.6  T

   *** convergence criteria satisfied after 10 iterations ***

         #    Occupation            Energy/Eh            Energy/eV
      -------------------------------------------------------------
         1        2.0000           -0.6249218             -17.0050
       ...           ...                  ...                  ...
        12        2.0000           -0.4637764             -12.6200
        13        2.0000           -0.4487730             -12.2117
        14        2.0000           -0.4409412             -11.9986
        15        2.0000           -0.4383026             -11.9268
        16        2.0000           -0.4216397             -11.4734
        17        2.0000           -0.4196856             -11.4202
        18        2.0000           -0.3837315             -10.4419 (HOMO)
        19                         -0.1907366              -5.1902 (LUMO)
        20                          0.0853571               2.3227
        21                          0.1119521               3.0464
        22                          0.1283646               3.4930
        23                          0.1313051               3.5730
       ...                                ...                  ...
        36                          0.6411243              17.4459
      -------------------------------------------------------------
                  HL-Gap            0.1929949 Eh            5.2517 eV
             Fermi-level           -0.2872340 Eh           -7.8160 eV

 SCC (total)                   0 d,  0 h,  0 min,  0.011 sec
 SCC setup                      ...        0 min,  0.000 sec (  1.858%)
 Dispersion                     ...        0 min,  0.000 sec (  0.872%)
 classical contributions        ...        0 min,  0.000 sec (  0.276%)
 integral evaluation            ...        0 min,  0.001 sec ( 10.515%)
 iterations                     ...        0 min,  0.006 sec ( 51.457%)
 molecular gradient             ...        0 min,  0.004 sec ( 33.202%)
 printout                       ...        0 min,  0.000 sec (  1.663%)

         :::::::::::::::::::::::::::::::::::::::::::::::::::::
         ::                     SUMMARY                     ::
         :::::::::::::::::::::::::::::::::::::::::::::::::::::
         :: total energy             -18.941413460057 Eh    ::
         :: gradient norm              0.001743341650 Eh/a0 ::
         :: HOMO-LUMO gap              5.251659331832 eV    ::
         ::.................................................::
         :: SCC energy               -19.259015951322 Eh    ::
         :: -> isotropic ES            0.004221055422 Eh    ::
         :: -> anisotropic ES          0.005920252729 Eh    ::
         :: -> anisotropic XC          0.013270294482 Eh    ::
         :: -> dispersion             -0.010223446062 Eh    ::
         :: repulsion energy           0.317602491265 Eh    ::
         :: add. restraining           0.000000000000 Eh    ::
         :: total charge              -0.000000000000 e     ::
         :::::::::::::::::::::::::::::::::::::::::::::::::::::

           -------------------------------------------------
          |                Property Printout                |
           -------------------------------------------------

    * Orbital Energies and Occupations

         #    Occupation            Energy/Eh            Energy/eV
      -------------------------------------------------------------
         1        2.0000           -0.6249218             -17.0050
       ...           ...                  ...                  ...
         6        2.0000           -0.5305367             -14.4366
         7        2.0000           -0.5114214             -13.9165
         8        2.0000           -0.5014652             -13.6456
         9        2.0000           -0.4911480             -13.3648
        10        2.0000           -0.4802018             -13.0670
        11        2.0000           -0.4746011             -12.9146
        12        2.0000           -0.4637764             -12.6200
        13        2.0000           -0.4487730             -12.2117
        14        2.0000           -0.4409412             -11.9986
        15        2.0000           -0.4383026             -11.9268
        16        2.0000           -0.4216397             -11.4734
        17        2.0000           -0.4196856             -11.4202
        18        2.0000           -0.3837315             -10.4419 (HOMO)
        19                         -0.1907366              -5.1902 (LUMO)
        20                          0.0853571               2.3227
        21                          0.1119521               3.0464
        22                          0.1283646               3.4930
        23                          0.1313051               3.5730
        24                          0.1510216               4.1095
        25                          0.1650217               4.4905
        26                          0.1796466               4.8884
        27                          0.1911692               5.2020
        28                          0.2026392               5.5141
        29                          0.2269159               6.1747
       ...                                ...                  ...
        36                          0.6411243              17.4459
      -------------------------------------------------------------
                  HL-Gap            0.1929949 Eh            5.2517 eV
             Fermi-level           -0.2872340 Eh           -7.8160 eV

     #   Z          covCN         q      C6AA      α(0)
     1   6 C        3.752    -0.102    22.509     6.766
     2   6 C        3.801    -0.048    21.426     6.590
     3   6 C        3.810    -0.065    21.747     6.638
     4   6 C        2.938     0.017    27.638     8.622
     5   6 C        2.844    -0.109    30.757     9.089
     6   6 C        3.759    -0.108    22.619     6.780
     7   1 H        0.925     0.034     2.532     2.488
     8   1 H        0.925     0.034     2.535     2.490
     9   1 H        0.925     0.033     2.544     2.494
    10   1 H        0.924     0.029     2.604     2.523
    11   1 H        0.924     0.030     2.580     2.512
    12   1 H        0.924     0.037     2.495     2.470
    13   1 H        0.924     0.036     2.502     2.474
    14   1 H        0.926     0.029     2.606     2.525
    15   1 H        0.926     0.029     2.601     2.522
    16   1 H        0.925     0.044     2.400     2.423
    17   1 H        0.925     0.040     2.454     2.450
    18   1 H        0.925     0.043     2.414     2.430

 Mol. C6AA /au·bohr⁶  :       2359.766406
 Mol. C8AA /au·bohr⁸  :      50655.573889
 Mol. α(0) /au        :         74.285580


Wiberg/Mayer (AO) data.
largest (>0.10) Wiberg bond orders for each atom

 ---------------------------------------------------------------------------
     #   Z sym  total        # sym  WBO       # sym  WBO       # sym  WBO
 ---------------------------------------------------------------------------
     1   6 C    3.997 --     2 C    1.019     8 H    0.988     7 H    0.988
                             9 H    0.987
     2   6 C    3.997 --     1 C    1.019     3 C    0.990    11 H    0.979
                            10 H    0.978
     3   6 C    3.997 --     4 C    1.009     2 C    0.990    12 H    0.974
                            13 H    0.972
     4   6 C    3.988 --     5 C    1.931     6 C    1.026     3 C    1.009
     5   6 C    3.988 --     4 C    1.931    15 H    0.976    14 H    0.976
     6   6 C    3.997 --     4 C    1.026    17 H    0.985    16 H    0.971
                            18 H    0.971
     7   1 H    0.999 --     1 C    0.988
     8   1 H    0.999 --     1 C    0.988
     9   1 H    0.998 --     1 C    0.987
    10   1 H    0.999 --     2 C    0.978
    11   1 H    0.999 --     2 C    0.979
    12   1 H    0.999 --     3 C    0.974
    13   1 H    0.999 --     3 C    0.972
    14   1 H    0.999 --     5 C    0.976
    15   1 H    0.999 --     5 C    0.976
    16   1 H    0.998 --     6 C    0.971
    17   1 H    0.998 --     6 C    0.985
    18   1 H    0.998 --     6 C    0.971
 ---------------------------------------------------------------------------

Topologies differ in total number of bonds
Writing topology from bond orders to xtbtopo.mol

molecular dipole:
                 x           y           z       tot (Debye)
 q only:       -0.122      -0.182       0.035
   full:       -0.140      -0.209       0.032       0.645
molecular quadrupole (traceless):
                xx          xy          yy          xz          yz          zz
 q only:        0.034      -0.945       0.185      -0.146       0.075      -0.219
  q+dip:       -0.625      -0.695       1.710      -0.785      -0.298      -1.085
   full:       -0.361      -0.943       0.868      -0.378      -0.094      -0.506


           -------------------------------------------------
          | TOTAL ENERGY              -18.941413460057 Eh   |
          | GRADIENT NORM               0.001743341650 Eh/α |
          | HOMO-LUMO GAP               5.251659331832 eV   |
           -------------------------------------------------

------------------------------------------------------------------------
 * finished run on 2025/04/11 at 10:35:17.530     
------------------------------------------------------------------------
 total:
 * wall-time:     0 d,  0 h,  0 min,  0.109 sec
 *  cpu-time:     0 d,  0 h,  0 min,  0.021 sec
 * ratio c/w:     0.193 speedup
 SCF:
 * wall-time:     0 d,  0 h,  0 min,  0.011 sec
 *  cpu-time:     0 d,  0 h,  0 min,  0.011 sec
 * ratio c/w:     0.990 speedup

