23
 energy: -23.158323376213 gnorm: 0.022513675326 xtb: 6.7.1 (edcfbbe)
C            1.89164902459447        1.23167103332808        0.97963392604298
C            1.55350649292115        0.12622340595465       -0.01846524930847
C            0.08097232613945       -0.34451291500263       -0.05964586574157
C           -0.01330409373231       -1.46282532976536       -1.10567770517915
C           -0.33151657209282       -0.90489220009358        1.30725913058995
C           -0.82516963407672        0.84104685568167       -0.45723693775776
C           -2.29864544386529        0.50953329779614       -0.68693165028959
H            1.65912652719333        0.93669850676440        2.00797504335737
H            1.35271887223491        2.15973154619917        0.76541353052781
H            2.96192553584471        1.46043488557723        0.94019013971692
H            1.82979293575579        0.45979946008180       -1.02826544308577
H            2.17862899040942       -0.75033809134263        0.19917491387444
H           -1.01464619472832       -1.90339784276257       -1.13939826200550
H            0.69364613692698       -2.26684780461830       -0.87003892653842
H            0.22608407684051       -1.08596104111073       -2.10747338125148
H            0.37851587490977       -1.67219055655333        1.63844277241668
H           -0.36407182730265       -0.12180168814720        2.07216009086103
H           -1.32232043694062       -1.36875111937821        1.26379015077019
H           -0.75850564316857        1.60740186869726        0.32446271717234
H           -0.41457558595223        1.29261200170684       -1.37136880029307
H           -2.86304279338103        1.42275079068494       -0.90318017334394
H           -2.43847444004295       -0.16843775175531       -1.53451899192009
H           -2.75403069572105        0.04575448346532        0.19415880934348
23
 energy: -23.159106195315 gnorm: 0.007782882873 xtb: 6.7.1 (edcfbbe)
C            1.88627041502866        1.22708436239608        0.97689804934833
C            1.54991567523480        0.12505963604870       -0.01936971959905
C            0.07794028260437       -0.34174378256292       -0.05691386912422
C           -0.01285123072278       -1.45945441378422       -1.10075684966919
C           -0.33158159354935       -0.90488172219162        1.30580703873577
C           -0.82500498996560        0.84201189159525       -0.45589508858201
C           -2.29346064824288        0.50743764628706       -0.68600196305064
H            1.65289563584309        0.92582969650442        1.99676946372510
H            1.34704773413109        2.14657627737996        0.75547880189180
H            2.95257105677396        1.44815192980488        0.93045400417511
H            1.82706796758421        0.46612722691526       -1.02228720120087
H            2.17524265959603       -0.74446602119384        0.20722791510009
H           -1.00971908371640       -1.89499769127027       -1.12642261983118
H            0.69276924815628       -2.25645115926751       -0.86587346612479
H            0.22286689411316       -1.08005166102346       -2.09524276507617
H            0.37978256540142       -1.66385814324701        1.63207326325256
H           -0.36862515046234       -0.12107248658728        2.06059118731252
H           -1.31476330336933       -1.36954492961070        1.25343062765300
H           -0.76847496471079        1.60061783416799        0.32900931881444
H           -0.42263950350473        1.28885927624783       -1.37124566044975
H           -2.84738922603184        1.42111287821196       -0.90129219985231
H           -2.42290849034034       -0.16656763634301       -1.53103221760263
H           -2.73868851708478        0.04792278693009        0.19505378811246
23
 energy: -23.159174303283 gnorm: 0.001660068163 xtb: 6.7.1 (edcfbbe)
C            1.88428179997446        1.22706188801303        0.97715701427853
C            1.55012916339175        0.12385806703784       -0.02028756752201
C            0.07868866643855       -0.34160780047277       -0.05733444028132
C           -0.01519603212460       -1.45927163900728       -1.10153139670215
C           -0.33162046463224       -0.90316454821812        1.30556997126627
C           -0.82246951466403        0.84264755974281       -0.45409006048615
C           -2.29138986439394        0.50576868728668       -0.68556868316637
H            1.64992254731212        0.92344649444978        1.99357990086738
H            1.34406717844442        2.14280677146779        0.75320248399786
H            2.94875353273916        1.44665454445183        0.92943062705666
H            1.82577566344609        0.46556008956025       -1.02150785096721
H            2.17327548812934       -0.74471721453161        0.20818983151182
H           -1.01042700969270       -1.89393452317592       -1.12127379561600
H            0.69173576753410       -2.25203866982364       -0.86664821766289
H            0.21741617433514       -1.07820573210142       -2.09356507384332
H            0.38240096788606       -1.65628888439513        1.63145937830708
H           -0.37453810555013       -0.11853783449845        2.05618928786144
H           -1.31033668683613       -1.37196506355507        1.24832328820370
H           -0.76875204022248        1.59724499408661        0.33276664918727
H           -0.42077691042707        1.28890761888747       -1.36772666312093
H           -2.84239941471725        1.41880649932152       -0.90123336113351
H           -2.41652990363854       -0.16695318307328       -1.52939710771131
H           -2.73374756996616        0.04762367395472        0.19475562363354
23
 energy: -23.159185485817 gnorm: 0.000842880596 xtb: 6.7.1 (edcfbbe)
C            1.88417639095370        1.22681123980474        0.97711569988818
C            1.55084671059239        0.12245601506959       -0.02127011844489
C            0.07892516312294       -0.34099558581311       -0.05728340482878
C           -0.01660734242061       -1.45937263793926       -1.10182257556362
C           -0.33131611130707       -0.90337447679284        1.30623229048341
C           -0.82131503664664        0.84409101698306       -0.45316947579163
C           -2.29099560220776        0.50597935770537       -0.68649894162410
H            1.64845679602524        0.92206398635302        1.99257028586409
H            1.34296639096466        2.14124851400438        0.75166596597381
H            2.94834866978978        1.44667736104575        0.92981990130405
H            1.82677767472414        0.46414380499544       -1.02204135879441
H            2.17358960785959       -0.74576139720995        0.20823173647725
H           -1.01110615971060       -1.89540081188657       -1.11687978562915
H            0.69297515526142       -2.25034573477229       -0.86936542412209
H            0.21104769692227       -1.07684970857796       -2.09420397334086
H            0.38708872767364       -1.65054772919438        1.63586786199388
H           -0.38213398118734       -0.11680395007275        2.05409851728861
H           -1.30665939533991       -1.37872068320274        1.24630943672780
H           -0.76970616315233        1.59652869873720        0.33541689994822
H           -0.41960674899507        1.29249492477800       -1.36529093322124
H           -2.84189006222675        1.41869628969786       -0.90280933799251
H           -2.41325848082764       -0.16702012757901       -1.53015274269506
H           -2.73234046710213        0.04770342927410        0.19391931405740
23
 energy: -23.159193474750 gnorm: 0.001065580997 xtb: 6.7.1 (edcfbbe)
C            1.88487525017653        1.22628823233333        0.97684006208357
C            1.55129170925812        0.12132080118042       -0.02169143301019
C            0.07916661803461       -0.34098231505468       -0.05735604215041
C           -0.01876720129144       -1.45923316450520       -1.10260128685888
C           -0.33109421212200       -0.90283698070967        1.30699997465129
C           -0.82058527912920        0.84491119939842       -0.45140669360177
C           -2.29023465435705        0.50624451789053       -0.68795235995149
H            1.64785547775364        0.92131872315933        1.99210706430504
H            1.34365977244834        2.14065664366243        0.75054409961094
H            2.94924148436741        1.44616527861210        0.93052543054632
H            1.82798566253901        0.46246088733963       -1.02253706592242
H            2.17374428128495       -0.74700887760883        0.20849974671047
H           -1.01195871618208       -1.89898381435562       -1.11224824972835
H            0.69505270303915       -2.24801233722655       -0.87465274557922
H            0.20182816128756       -1.07534378766311       -2.09634234331039
H            0.39401158501976       -1.64130308176585        1.64250657278657
H           -0.39355595814943       -0.11416093597529        2.05231330913407
H           -1.30129456887587       -1.38906441336666        1.24469080245845
H           -0.77104315134783        1.59552126119206        0.33920960812100
H           -0.41779390461925        1.29624249489895       -1.36172938805818
H           -2.84126873559934        1.41885395817334       -0.90506801003507
H           -2.41032936002138       -0.16673325599963       -1.53209295634725
H           -2.73252353074829        0.04738076179820        0.19190174210430
23
 energy: -23.159196687181 gnorm: 0.000603522775 xtb: 6.7.1 (edcfbbe)
C            1.88496586504919        1.22527662587856        0.97635994441646
C            1.55114812815031        0.12068456124544       -0.02194483804814
C            0.07879063455784       -0.34067997067536       -0.05693019516555
C           -0.01959448310483       -1.45849431014430       -1.10215916557657
C           -0.33067751007859       -0.90285983689593        1.30739702464893
C           -0.82072908078144        0.84550304976300       -0.45067522129858
C           -2.28960564761995        0.50651767715966       -0.68901974429077
H            1.64726693805971        0.92106074470964        1.99178032082534
H            1.34510286799706        2.14048779518131        0.74992686922437
H            2.94963306279413        1.44405290339947        0.93061298157693
H            1.82797329048031        0.46133418324407       -1.02305658215804
H            2.17322651205502       -0.74807541727326        0.20821373948747
H           -1.01160339926066       -1.90100604337210       -1.10881482157797
H            0.69711071287134       -2.24570278461627       -0.87763650073321
H            0.19636175116944       -1.07346489181004       -2.09650844946985
H            0.39867853232658       -1.63527979473611        1.64696025694811
H           -0.40067589004388       -0.11297601271455        2.05068208246178
H           -1.29720914684808       -1.39611362602225        1.24417555049152
H           -0.77213367647960        1.59504492268634        0.34111492546850
H           -0.41699144478521        1.29856398076678       -1.35989808506408
H           -2.84087978967121        1.41900423526734       -0.90625570661859
H           -2.40878249809042       -0.16595259498683       -1.53374078603707
H           -2.73311229598116        0.04677639935303        0.18987623844741
23
 energy: -23.159197475915 gnorm: 0.000156553093 xtb: 6.7.1 (edcfbbe)
C            1.88547453947620        1.22481485541260        0.97618280774214
C            1.55093756810242        0.12074967576899       -0.02181494112273
C            0.07863501066502       -0.34101408225677       -0.05680409966942
C           -0.02025801013015       -1.45823426201401       -1.10228688231123
C           -0.33078841052655       -0.90236224829877        1.30766911774798
C           -0.82086186148497        0.84541517187067       -0.45001745839473
C           -2.28913418438511        0.50642836074353       -0.68945448300144
H            1.64683901588863        0.92102358543725        1.99151760026839
H            1.34661004180043        2.14057035977300        0.74947907359221
H            2.95040130704453        1.44265604220651        0.93113582543796
H            1.82749843538875        0.46130343915673       -1.02303434090937
H            2.17288059434660       -0.74822035814948        0.20794389152199
H           -1.01155850281196       -1.90228397553180       -1.10745971526123
H            0.69794152357335       -2.24445222242701       -0.87948778696547
H            0.19337738772688       -1.07251791699124       -2.09681383407597
H            0.40079171491921       -1.63145347707859        1.64907320550826
H           -0.40481000608266       -0.11194142551590        2.04987903637357
H           -1.29519893126990       -1.39942846677639        1.24379577668772
H           -0.77239817952304        1.59469226768513        0.34207082493992
H           -0.41651708895109        1.29876766799280       -1.35881088112590
H           -2.84075355940562        1.41887077011092       -0.90612300479050
H           -2.40781007582059       -0.16529920722700       -1.53487626984715
H           -2.73303489577445        0.04561724151646        0.18869637561338
23
 energy: -23.159197621570 gnorm: 0.000073824668 xtb: 6.7.1 (edcfbbe)
C            1.88542493307505        1.22463504891935        0.97623237268321
C            1.55103361635972        0.12072193813439       -0.02193863442465
C            0.07862824888713       -0.34088203203810       -0.05673840355799
C           -0.02022874837232       -1.45812910163117       -1.10215682882448
C           -0.33080720722828       -0.90229192712126        1.30772712177718
C           -0.82087685700032        0.84552353529398       -0.45022863655864
C           -2.28910672087501        0.50634094564297       -0.68940338786474
H            1.64640050671486        0.92103612425552        1.99156298399472
H            1.34711718195056        2.14072561612049        0.74939488971652
H            2.95046006142205        1.44202777428649        0.93155820235555
H            1.82738726795723        0.46142296969239       -1.02319231337433
H            2.17300493543407       -0.74834332835040        0.20755994490598
H           -1.01149513606006       -1.90230840613310       -1.10719300782271
H            0.69809752356539       -2.24432079566830       -0.87959768684818
H            0.19314102237484       -1.07235425539720       -2.09673329811059
H            0.40098903482438       -1.63099076295934        1.64956743347179
H           -0.40539068571006       -0.11170057922258        2.04970954904215
H           -1.29500277301695       -1.39979286095595        1.24377535473549
H           -0.77227597491932        1.59488861729635        0.34178745558284
H           -0.41652759279828        1.29874380617206       -1.35912636498476
H           -2.84103544357438        1.41876203453112       -0.90540676544047
H           -2.40786187425648       -0.16488656300321       -1.53523575213164
H           -2.73281188598792        0.04487399754311        0.18853560963615
23
 energy: -23.159197604002 gnorm: 0.000232191308 xtb: 6.7.1 (edcfbbe)
C            1.88538445530469        1.22442702949161        0.97630044649210
C            1.55113590264663        0.12070301860497       -0.02208012186280
C            0.07862056281545       -0.34073666494933       -0.05667689082737
C           -0.02019993838044       -1.45802446049856       -1.10201442181439
C           -0.33082806919228       -0.90219349499221        1.30778996480758
C           -0.82089449976523        0.84564195831367       -0.45047739940310
C           -2.28908070449689        0.50623774713624       -0.68934082166350
H            1.64585648038531        0.92104884974360        1.99161054310100
H            1.34774300232666        2.14091089364404        0.74929008640489
H            2.95055280946587        1.44127547959470        0.93209800167212
H            1.82725627003997        0.46158621635905       -1.02336530337874
H            2.17314295660958       -0.74846879512671        0.20710759838388
H           -1.01142883185525       -1.90234574178373       -1.10689546183551
H            0.69826717595912       -2.24418472320183       -0.87971607792463
H            0.19287448411991       -1.07219086708283       -2.09664761352041
H            0.40122921730073       -1.63042244373031        1.65014181437916
H           -0.40607691418212       -0.11139875630404        2.04950061859711
H           -1.29476570086897       -1.40021406940198        1.24374674420379
H           -0.77212608716646        1.59512481201508        0.34143827237344
H           -0.41655657612094        1.29869509614268       -1.35950662392471
H           -2.84138211818166        1.41864107644368       -0.90450867808297
H           -2.40793923881445       -0.16437143030232       -1.53567737371486
H           -2.73252120518330        0.04396106529217        0.18834253549631
23
 energy: -23.159197712489 gnorm: 0.000080908713 xtb: 6.7.1 (edcfbbe)
C            1.88548404814291        1.22448632944535        0.97636642475585
C            1.55103937182644        0.12079305748270       -0.02203649945888
C            0.07861890528770       -0.34078598590990       -0.05679171513087
C           -0.02021072969628       -1.45816902268601       -1.10207207641834
C           -0.33079826421398       -0.90214491694250        1.30771792147600
C           -0.82087047370956        0.84558130048869       -0.45050947589874
C           -2.28912970468773        0.50625728939253       -0.68930961626475
H            1.64574022083592        0.92098758234739        1.99155195578668
H            1.34777024143229        2.14085762141414        0.74925375001191
H            2.95065747818901        1.44134253211999        0.93229908036561
H            1.82728420632354        0.46173789664858       -1.02323309974237
H            2.17305602884976       -0.74830558902991        0.20720192825045
H           -1.01149975147991       -1.90230185488962       -1.10704107816045
H            0.69812198596796       -2.24437156878827       -0.87954003506492
H            0.19308469597531       -1.07242008800002       -2.09667344946449
H            0.40118091944925       -1.63048872532840        1.64996387827914
H           -0.40587062914961       -0.11136895072966        2.04944909382173
H           -1.29480694622628       -1.40000396626344        1.24369814855859
H           -0.77208455024919        1.59516398382187        0.34128340021008
H           -0.41671165322812        1.29854545891314       -1.35961896337804
H           -2.84144290287527        1.41870182419701       -0.90422232501039
H           -2.40806368656822       -0.16425314562029       -1.53568407395764
H           -2.73228537743002        0.04386073332426        0.18840666439224
23
 energy: -23.159197754512 gnorm: 0.000036676067 xtb: 6.7.1 (edcfbbe)
C            1.88547885931685        1.22449556895482        0.97646424001891
C            1.55105011775575        0.12086610137253       -0.02208031148489
C            0.07868666015645       -0.34080151558580       -0.05688673012261
C           -0.02018736575113       -1.45824022409136       -1.10213873000340
C           -0.33082310924646       -0.90196163924360        1.30767728158317
C           -0.82084046694423        0.84547363597289       -0.45062847580206
C           -2.28920504938135        0.50620247613495       -0.68917734164838
H            1.64535848057558        0.92096571660085        1.99153160560492
H            1.34798034424314        2.14093930978042        0.74919858499566
H            2.95070437679636        1.44110790593410        0.93269085723229
H            1.82734999811973        0.46194820252535       -1.02320219777188
H            2.17307737437390       -0.74821563384140        0.20710556770629
H           -1.01157414125419       -1.90212209463344       -1.10726836343669
H            0.69789613412698       -2.24454443672700       -0.87924330998401
H            0.19347875389918       -1.07270274040584       -2.09673448769450
H            0.40114971444053       -1.63034251672111        1.64979824172220
H           -0.40580298255750       -0.11120724098177        2.04943734039770
H           -1.29484044766937       -1.39980764522402        1.24368663109521
H           -0.77191146991566        1.59524287684002        0.34096644162330
H           -0.41683085290671        1.29820377689370       -1.35989706734148
H           -2.84159850222728        1.41873686401388       -0.90347284866471
H           -2.40832326430268       -0.16390972423648       -1.53583362426808
H           -2.73200972888197        0.04337477207595        0.18846653420145
