15
 energy: -556.556033410947 gnorm: 0.018558122279 xtb: 6.7.1 (edcfbbe)
C           -2.71596889050352        0.07906404483504        0.02166489420960
C           -1.38930576461564       -0.65468261339011        0.01878841800833
S           -0.00003406070002        0.54217633974025       -0.00278453410123
C            1.38943461641570       -0.65464575139009       -0.00810602890359
C            2.71591716150349        0.07921779273510       -0.02630541251166
H           -2.80505268524299        0.70151999881086       -0.86530473758344
H           -3.53270294476543       -0.63834623028287        0.03388270051501
H           -2.79252950293744        0.71729989101785        0.89853927529817
H           -1.28676956307020       -1.28162374076792       -0.86770369688450
H           -1.27360059036437       -1.26503070946057        0.91519112820555
H            1.28920915557128       -1.26718647716152        0.88867073509379
H            1.27165622786350       -1.27945473246696       -0.89422543209625
H            3.53279405556547       -0.63812775938277       -0.02991309511326
H            2.78962418953616        0.70379630131187       -0.91321087010467
H            2.80753619784409        0.71534543711699        0.85066046237695
15
 energy: -556.556725438987 gnorm: 0.004721878473 xtb: 6.7.1 (edcfbbe)
C           -2.71755339701025        0.08347253067865        0.02173630498450
C           -1.38860843809481       -0.65304934677750        0.01874325946792
S           -0.00004780767681        0.55284171359531       -0.00308549329527
C            1.38872985916920       -0.65299366138512       -0.00814114517660
C            2.71750020169894        0.08362738675363       -0.02631301542045
H           -2.82309226067313        0.70732977179671       -0.86942527567908
H           -3.53846519015535       -0.63734671585142        0.03411375728479
H           -2.81044614829985        0.72331583605038        0.90291417326587
H           -1.30042221074785       -1.29365578306829       -0.86396082597040
H           -1.28731172974672       -1.27723617272106        0.91172932624787
H            1.30280400338574       -1.27927414788170        0.88500096785443
H            1.28541074429908       -1.29154525418283       -0.89068583499001
H            3.53853804100332       -0.63714667725609       -0.02983865926800
H            2.80769578168661        0.70965946965592       -0.91764316821172
H            2.82547636426916        0.72132258681961        0.85469905021952
15
 energy: -556.556820195488 gnorm: 0.002476749610 xtb: 6.7.1 (edcfbbe)
C           -2.72950118999958        0.08650445805594        0.02188236427921
C           -1.40068134030791       -0.65220446249683        0.01877397457898
S           -0.00005531720168        0.54150887586367       -0.00318795694648
C            1.40079796263417       -0.65213662200689       -0.00831210029889
C            2.72944596049090        0.08666220547814       -0.02639952305208
H           -2.84130661869467        0.71081069881061       -0.87095865018543
H           -3.55291414883794       -0.63520498005066        0.03441144256542
H           -2.82845216311846        0.72688762973025        0.90479473407138
H           -1.31587417479331       -1.29735347552220       -0.86282674790595
H           -1.30260315463508       -1.28096604595696        0.91075148055976
H            1.31808486141727       -1.28293057157569        0.88379863536636
H            1.30087014560847       -1.29528215924181       -0.88977813040818
H            3.55297339648818       -0.63501790784956       -0.02980414128440
H            2.82591880697828        0.71312582884443       -0.91952604921283
H            2.84350511963630        0.72491768950942        0.85622350508645
15
 energy: -556.556827841110 gnorm: 0.000711879689 xtb: 6.7.1 (edcfbbe)
C           -2.72786580668728        0.08728213014230        0.02188909715938
C           -1.40034918929712       -0.65365908341034        0.01871843930060
S           -0.00005512081357        0.54121106579448       -0.00330028751893
C            1.40046597854692       -0.65359175162442       -0.00832309099953
C            2.72781028296591        0.08744058881575       -0.02636360709992
H           -2.83981003162359        0.71127047968071       -0.87050980687084
H           -3.55120790369801       -0.63419598148105        0.03448698649018
H           -2.82681087443268        0.72733536651708        0.90438998960553
H           -1.31740487264385       -1.29791519900741       -0.86342511167804
H           -1.30399175974230       -1.28149449119779        0.91125164287732
H            1.31950094258208       -1.28344225395198        0.88433101898818
H            1.30237357037008       -1.29586098049414       -0.89034806162682
H            3.55126768086078       -0.63400937178254       -0.02968515758674
H            2.82440591397661        0.71354233877645       -0.91908452434347
H            2.84187929420010        0.72540831491031        0.85581526747622
15
 energy: -556.556829565910 gnorm: 0.000347649650 xtb: 6.7.1 (edcfbbe)
C           -2.72786313142482        0.08838516351455        0.02195321534129
C           -1.40187146168689       -0.65534301784911        0.01861426408855
S           -0.00005706032550        0.53859088045010       -0.00356624358597
C            1.40198685219120       -0.65527448081161       -0.00837697682128
C            2.72780820456571        0.08854385246900       -0.02631415957483
H           -2.83906106796273        0.71216236077995       -0.87023155096737
H           -3.55203311397719       -0.63204261034211        0.03469200616685
H           -2.82576238540820        0.72823043489162        0.90426568654869
H           -1.32095851978688       -1.29894621244644       -0.86385297103307
H           -1.30728405291974       -1.28251385349806        0.91146816365499
H            1.32281724423349       -1.28440170074061        0.88461256640175
H            1.30590207389692       -1.29694929291954       -0.89071504046651
H            3.55209608398651       -0.63185627256327       -0.02946327111978
H            2.82363324599784        0.71434793332696       -0.91887257916125
H            2.84085517038061        0.72638795355734        0.85562954213278
15
 energy: -556.556829565910 gnorm: 0.000347649650 xtb: 6.7.1 (edcfbbe)
C           -2.72786313142482        0.08838516351455        0.02195321534129
C           -1.40187146168689       -0.65534301784911        0.01861426408855
S           -0.00005706032550        0.53859088045010       -0.00356624358597
C            1.40198685219120       -0.65527448081161       -0.00837697682128
C            2.72780820456571        0.08854385246900       -0.02631415957483
H           -2.83906106796273        0.71216236077995       -0.87023155096737
H           -3.55203311397719       -0.63204261034211        0.03469200616685
H           -2.82576238540820        0.72823043489162        0.90426568654869
H           -1.32095851978688       -1.29894621244644       -0.86385297103307
H           -1.30728405291974       -1.28251385349806        0.91146816365499
H            1.32281724423349       -1.28440170074061        0.88461256640175
H            1.30590207389692       -1.29694929291954       -0.89071504046651
H            3.55209608398651       -0.63185627256327       -0.02946327111978
H            2.82363324599784        0.71434793332696       -0.91887257916125
H            2.84085517038061        0.72638795355734        0.85562954213278
