25
 energy: -32.576092704551 gnorm: 0.032427061870 xtb: 6.7.1 (edcfbbe)
C            3.35912948799767       -0.81619735670793        0.05083209905077
C            2.06761541179816       -0.19228388646504        0.50247783437717
C            1.60316627370952       -0.36896859209157        1.74348828060768
C            1.36373200138350        0.63889591020153       -0.55042757550510
H            2.14371221213063        1.20012024630314       -1.08093697533749
C            0.66150567896193       -0.26258810405465       -1.58973248532401
C           -0.51167093500424       -1.02635633872742       -0.97887776683816
C           -1.41944904694185       -0.11063588863876       -0.20355560088659
C           -1.01024622540068        1.09681583662825        0.23359714426408
C            0.35104791201270        1.64753173656752        0.00705548620812
C           -2.78327120789123       -0.56673000632968        0.06214620052123
O           -3.64839953055580        0.06045350054451        0.67269206770330
H            3.77802656747461       -1.47550845496317        0.81498083678956
H            3.22490125422111       -1.39344415691547       -0.87183912670249
H            4.09405552847658       -0.03199179298439       -0.17586297678640
H            0.68295898904424        0.09076555139918        2.09378371383992
H            2.14087770772568       -0.98994276051362        2.45564170073315
H            0.29106960314505        0.37748150833363       -2.39917351260838
H            1.37325676062980       -0.96421186232327       -2.03366447324718
H           -1.08648520223968       -1.52349240987604       -1.76870777936193
H           -0.14476913050654       -1.82482949919639       -0.31931443269708
H           -1.71854429490969        1.72590923864899        0.77041459490603
H            0.25008302447134        2.49180528396690       -0.69126644870819
H            0.71932500994200        2.09608433967934        0.93846151241518
H           -3.02488494791141       -1.57008553392263       -0.34638196466585
25
 energy: -32.577418613029 gnorm: 0.008008590005 xtb: 6.7.1 (edcfbbe)
C            3.35129035816478       -0.81033019517863        0.05398726979848
C            2.05567458888222       -0.19895415833430        0.49918396547831
C            1.59331291559553       -0.37757539961908        1.72845668094224
C            1.36179392580896        0.63669903890917       -0.55411720859932
H            2.14346905800877        1.19583682673937       -1.08167613010896
C            0.65451629171012       -0.25432855539447       -1.59129485309776
C           -0.50690896763006       -1.02687815615694       -0.97531263814701
C           -1.41220436575864       -0.11181225672493       -0.20374624708797
C           -1.00063924452571        1.09067986966348        0.23286471752043
C            0.35462442822338        1.64779068976561        0.00315772668966
C           -2.76932144859227       -0.56036762482481        0.06212304485287
O           -3.62266450338542        0.06149376245588        0.67579785526542
H            3.76301921384034       -1.46261198324829        0.82023928671864
H            3.21766388797555       -1.39056333695929       -0.85945010255440
H            4.08102615573952       -0.02720328984232       -0.16294970814059
H            0.66822062987393        0.05512650061929        2.07315493690127
H            2.13326053739904       -0.97759315448823        2.44483117705753
H            0.27646832787086        0.38431061597042       -2.39379730016747
H            1.36489296706844       -0.95520546101677       -2.03134978208720
H           -1.07981130170281       -1.52534096591565       -1.76252252324060
H           -0.12933862470652       -1.80723114793393       -0.30515407905467
H           -1.70616376518627        1.71481717105280        0.76950892970899
H            0.24792306984011        2.48186096849109       -0.70142957471842
H            0.72857532959270        2.08938962607265        0.93174660166970
H           -3.01193656234313       -1.56341287553916       -0.33642169285178
25
 energy: -32.577649088706 gnorm: 0.004553197211 xtb: 6.7.1 (edcfbbe)
C            3.34839350323373       -0.80436562583253        0.05790013954363
C            2.04729566877660       -0.19990973395158        0.49524114085332
C            1.57614825759733       -0.38592407629821        1.71693327487139
C            1.36150897710733        0.63619087378392       -0.56198892094246
H            2.14728643390987        1.19235448057995       -1.08519008717185
C            0.65263879910952       -0.25018437447099       -1.59826053506830
C           -0.49927417133750       -1.02770849330601       -0.97058651374191
C           -1.40491325213457       -0.11329782526693       -0.19966367792422
C           -0.99261407420737        1.08901483053836        0.23380364190901
C            0.35888231759938        1.65037358802037       -0.00194462231615
C           -2.75605761492899       -0.56114441694202        0.07898439128480
O           -3.60757027526520        0.06433038088682        0.68574907467727
H            3.75435051179111       -1.45305703426714        0.82803501703426
H            3.21743507787609       -1.38606235430728       -0.85170268355185
H            4.07421767225004       -0.02034107763059       -0.15318055791460
H            0.64556024704735        0.03201583561762        2.05677534737562
H            2.10782583170222       -0.98707565011427        2.43427807360041
H            0.26304267439681        0.38880178261550       -2.39250977320795
H            1.36139581807491       -0.94759779248686       -2.04382433875179
H           -1.07161740504202       -1.53593438183012       -1.74980893123320
H           -0.10841144816419       -1.79305849442307       -0.29329378279547
H           -1.69647959580068        1.70888245658401        0.77402440479465
H            0.24570501535653        2.47681132094508       -0.71140317139472
H            0.73798997413664        2.09089755677935        0.92284102294930
H           -3.00599604132150       -1.55541526666045       -0.33537758013170
25
 energy: -32.577775641715 gnorm: 0.006564259787 xtb: 6.7.1 (edcfbbe)
C            3.34682820362718       -0.79975551898913        0.06305673674815
C            2.03875133970912       -0.20177459982509        0.49011050487687
C            1.55276237918850       -0.39926839434355        1.70366948820734
C            1.36313607875434        0.63756312188638       -0.57077425395090
H            2.15373573157096        1.19039619610409       -1.08948301265473
C            0.65115172747614       -0.24479868849872       -1.60576109931236
C           -0.49092129024506       -1.02862043052801       -0.96631663191714
C           -1.39787100871410       -0.11341165027714       -0.19755623628880
C           -0.98338518985184        1.08763105258965        0.23766755838219
C            0.36375851823872        1.65438396277353       -0.00838098736034
C           -2.75017175935043       -0.55362353546074        0.07797577556110
O           -3.59335568388522        0.06554692822451        0.70128831237602
H            3.74764243986728       -1.44537443259203        0.83783564768544
H            3.22075421177050       -1.38284539889655       -0.84471287386296
H            4.06893462794068       -0.01342886291680       -0.14280689534646
H            0.61797242739733        0.01091997108040        2.03848057503654
H            2.07823001448143       -0.99967873411205        2.42504470180500
H            0.24878420093693        0.39570497537308       -2.39109163947194
H            1.35780323741106       -0.93749087451787       -2.06086614502533
H           -1.06217271485360       -1.54966300481127       -1.73647509132690
H           -0.08663060433337       -1.77943596317158       -0.28184673322713
H           -1.68651278804618        1.70400497506588        0.78150138202101
H            0.24292758055598        2.47446628410761       -0.72201656265477
H            0.74874215964406        2.09575545848096        0.91196608854373
H           -2.99415093752692       -1.55860632818264       -0.31467825609602
25
 energy: -32.577881180589 gnorm: 0.003455672108 xtb: 6.7.1 (edcfbbe)
C            3.34765957136548       -0.79853159562703        0.06722588153270
C            2.03568417786659       -0.20249445242090        0.48699726208640
C            1.53768227482031       -0.40849111347113        1.69575407321848
C            1.36554184977123        0.64005720206340       -0.57522158771806
H            2.15814041475206        1.19103691441261       -1.09298992122507
C            0.64964719076625       -0.24108547142853       -1.60909125920726
C           -0.48598535609489       -1.02963943480275       -0.96269198063558
C           -1.39334141760932       -0.11381193995049       -0.19422237983200
C           -0.97921353166512        1.08918577844781        0.23868213775186
C            0.36634467020204        1.65786992896665       -0.01356160958925
C           -2.74400884837011       -0.55656434572302        0.08922117950592
O           -3.58772829093096        0.06521421017290        0.71136977292562
H            3.74692414595746       -1.44299788217979        0.84464521472144
H            3.22682777587916       -1.38258929393506       -0.84169142963711
H            4.06876290319491       -0.00994371428452       -0.13682481552737
H            0.59918048257876        0.00060982757037        2.02529911305265
H            2.05907857728662       -1.01159527759065        2.41982347709542
H            0.23998344037823        0.40080130623981       -2.39008271415979
H            1.35499085304693       -0.93033775134320       -2.07228456069923
H           -1.05735018553476       -1.56072185296615       -1.72616814117545
H           -0.07306366874584       -1.77338322484427       -0.27522312725610
H           -1.68210753259018        1.70434260699425        0.78559424953655
H            0.24130673194717        2.47556621983527       -0.72959081917325
H            0.75437682071277        2.10344128005534        0.90372510738716
H           -2.99259014722130       -1.55734141562802       -0.31286277023101
25
 energy: -32.577930367603 gnorm: 0.001605814175 xtb: 6.7.1 (edcfbbe)
C            3.34895562526308       -0.79671667480106        0.07242932459614
C            2.03414345394776       -0.20198080469410        0.48479163289351
C            1.52455076459527       -0.41565595093891        1.68815265726158
C            1.36749012011323        0.64211379915498       -0.57852882461048
H            2.16102817067507        1.19110178109090       -1.09695215290074
C            0.64841001375072       -0.23847141602120       -1.61212319862117
C           -0.48135934884893       -1.02937874560274       -0.95895801407943
C           -1.38897289406472       -0.11350010245807       -0.19036852251387
C           -0.97558587580187        1.09149550643911        0.23979160047402
C            0.36880406807428        1.66111636849452       -0.01825673390954
C           -2.73862742725628       -0.55934339850436        0.09853606580594
O           -3.58204762222865        0.06291989157584        0.72274711725255
H            3.74741118254949       -1.43951697600816        0.85236336224061
H            3.23439758335686       -1.38283040953354       -0.83749479912141
H            4.07004882453281       -0.00650771928223       -0.13129437502425
H            0.58128197192547       -0.00784808413376        2.00974891607030
H            2.03561842733616       -1.03108216753864        2.41095981240217
H            0.23232827340096        0.40546500188211       -2.38886032464562
H            1.35236747987013       -0.92425831476119       -2.08374316877924
H           -1.05292232277764       -1.56898113836783       -1.71647865013517
H           -0.06172314970892       -1.76819939689809       -0.26995697850364
H           -1.67845551448834        1.70711506813971        0.78758983963573
H            0.24057709034173        2.47645437491051       -0.73749668913838
H            0.75871938495297        2.11371582730960        0.89571054165407
H           -2.98969537774710       -1.55862981089051       -0.30647808555594
25
 energy: -32.577942877923 gnorm: 0.001590184522 xtb: 6.7.1 (edcfbbe)
C            3.34958999035841       -0.79479102359659        0.07598255131902
C            2.03109821168655       -0.20533654687640        0.48228607424647
C            1.51243842989763       -0.42690036144444        1.68041838041034
C            1.36893430573666        0.64331613276791       -0.58022361213454
H            2.16327255872939        1.19091802015632       -1.09896735086244
C            0.64760868728736       -0.23711875738753       -1.61331421943544
C           -0.47935996951106       -1.02834665768785       -0.95734236961499
C           -1.38654307651026       -0.11243822991473       -0.18846691715905
C           -0.97368923803477        1.09369360185874        0.23904612667104
C            0.37043674399799        1.66282002038494       -0.02155517047639
C           -2.73466977978679       -0.56097947811655        0.10470933656969
O           -3.57697383309342        0.06014114186111        0.73184382801673
H            3.74750583467310       -1.43595176142525        0.85755303743274
H            3.24174714551256       -1.38183164660464       -0.83467698321564
H            4.06977448480667       -0.00242884425867       -0.12565429212297
H            0.57113362700745       -0.01293017590384        1.99828995768775
H            2.02282046220953       -1.03981952481470        2.40572573501482
H            0.22944147736249        0.40827705039366       -2.38779879889063
H            1.35078607524875       -0.92132513742429       -2.08832901146045
H           -1.05171329137580       -1.57074704583687       -1.71207208576565
H           -0.05730354739572       -1.76559652373093       -0.26811625321147
H           -1.67575086216893        1.71016321498869        0.78713566566809
H            0.24151856640430        2.47674043860230       -0.74286567014382
H            0.76051821477661        2.11963392534662        0.89071989715839
H           -2.98587831605514       -1.56056532277415       -0.29849750295382
25
 energy: -32.577954975390 gnorm: 0.000992491157 xtb: 6.7.1 (edcfbbe)
C            3.35031016356373       -0.79293239931922        0.07728672234096
C            2.03195946231622       -0.20410333713705        0.48262866588226
C            1.51168539708547       -0.42736847249113        1.67925083482964
C            1.36941624785223        0.64341752944493       -0.58030893502206
H            2.16353873922983        1.19049640222383       -1.09976240105739
C            0.64759051655420       -0.23761214111818       -1.61294788611481
C           -0.48014325694906       -1.02755282210756       -0.95784238110553
C           -1.38640002594163       -0.11139616316853       -0.18840050311736
C           -0.97349342357147        1.09493944688956        0.23769659577866
C            0.37095624917403        1.66319319671434       -0.02297156067178
C           -2.73350377534108       -0.56101780875923        0.10686734429749
O           -3.57472912819281        0.05881327989191        0.73625038026799
H            3.74813004268963       -1.43311953924323        0.85953192929831
H            3.24428368106894       -1.38064576249698       -0.83292963462201
H            4.06987045673816       -0.00012149843731       -0.12400013550245
H            0.56552473180797       -0.02013576504942        1.99246978028301
H            2.01810974842683       -1.04477436830741        2.40283915825624
H            0.23073403059855        0.40748956008700       -2.38815183059742
H            1.35081324898272       -0.92246473041120       -2.08632496073150
H           -1.05346555147741       -1.56771731327179       -1.71326437684992
H           -0.05975721654554       -1.76638930615467       -0.26938582086387
H           -1.67469267158613        1.71234658652710        0.78544678020993
H            0.24305424302285        2.47673431057284       -0.74492720005007
H            0.76032767930125        2.12060327645075        0.88929311521537
H           -2.98337668704390       -1.56208565276650       -0.29251332760590
25
 energy: -32.577962880845 gnorm: 0.000693385879 xtb: 6.7.1 (edcfbbe)
C            3.35200988030445       -0.78976112058039        0.07852878963743
C            2.03180133585933       -0.20423952729056        0.48279544523185
C            1.51056675623353       -0.42953624065062        1.67851415872184
C            1.36882241713670        0.64211010651808       -0.58071568305502
H            2.16313469977697        1.18868409162451       -1.10022225435012
C            0.64810641829352       -0.23932748707998       -1.61359905669726
C           -0.48231205355979       -1.02677811664576       -0.95989386626159
C           -1.38710772358411       -0.11031864663399       -0.18889899764985
C           -0.97359350590143        1.09594153189341        0.23626491463673
C            0.37142478419607        1.66316308018807       -0.02376710909187
C           -2.73300521926810       -0.56056382661288        0.10982641573623
O           -3.57328224360584        0.05889458811113        0.74041117908808
H            3.75000173452193       -1.42943060621163        0.86101638686230
H            3.24732075190814       -1.37749526993123       -0.83140021525458
H            4.07003661318270        0.00426728410209       -0.12177230835110
H            0.56351105310735       -0.02465724515463        1.99054999325716
H            2.01637898080025       -1.04681455903491        2.40212450983232
H            0.23382852508292        0.40496613429215       -2.39070252807531
H            1.35160588419340       -0.92622645251992       -2.08345281068504
H           -1.05701711833846       -1.56260731783103       -1.71745141286911
H           -0.06508662598411       -1.76875998960852       -0.27287695939430
H           -1.67385068394490        1.71406418779983        0.78401864815553
H            0.24519842899321        2.47694848671217       -0.74543539643503
H            0.76034988292332        2.11871850461279        0.88940807208759
H           -2.98210007056348       -1.56264508150531       -0.28743956232904
25
 energy: -32.577969762926 gnorm: 0.000516914408 xtb: 6.7.1 (edcfbbe)
C            3.35481110645731       -0.78578636219533        0.08057437243992
C            2.03168458255529       -0.20473451909052        0.48268344982251
C            1.50844306822126       -0.43288942836595        1.67704058505436
C            1.36906622058707        0.64090975099661       -0.58170024074970
H            2.16374017618891        1.18659023562436       -1.10166925141493
C            0.64844845368329       -0.24139637925876       -1.61362456805987
C           -0.48595586943069       -1.02618568844672       -0.96288702217084
C           -1.38822935180402       -0.10894804541741       -0.18968046145083
C           -0.97356161772830        1.09716172334942        0.23470099965738
C            0.37219036474220        1.66298147866357       -0.02525079521298
C           -2.73283042176415       -0.55984345836092        0.11387208697002
O           -3.57182850625296        0.05975615021419        0.74596555629467
H            3.75348369379172       -1.42447872969544        0.86357264610247
H            3.25325725998968       -1.37333991766358       -0.82982907948808
H            4.07024839565471        0.01084157876843       -0.11794962094289
H            0.55903454476462       -0.03182110947488        1.98717332325130
H            2.01523487712205       -1.04786413474728        2.40205140235678
H            0.23802070071957        0.40174897849233       -2.39371013963623
H            1.35198843106210       -0.93108412524969       -2.07958035615779
H           -1.06250078286720       -1.55665893118809       -1.72314899538866
H           -0.07271598113301       -1.77269478980195       -0.27828195340670
H           -1.67258648652414        1.71556808040361        0.78379343348907
H            0.24767789923939        2.47752964145025       -0.74608329681723
H            0.76131088481577        2.11634695589985        0.88886436168470
H           -2.98168874032687       -1.56311244634324       -0.28106608347861
25
 energy: -32.577973479222 gnorm: 0.000331188423 xtb: 6.7.1 (edcfbbe)
C            3.35692039433122       -0.78272998479290        0.08269571704716
C            2.03123225006609       -0.20543571208390        0.48233572438852
C            1.50584526264037       -0.43589342967537        1.67534062293894
C            1.36884788068733        0.63955070301079       -0.58276551228996
H            2.16366042984306        1.18456621221244       -1.10317136282771
C            0.64825515259183       -0.24270718017271       -1.61454496247833
C           -0.48775566184030       -1.02588460503527       -0.96425841628989
C           -1.38835268980563       -0.10835071765576       -0.18954091228840
C           -0.97272194010643        1.09752449455205        0.23474981811822
C            0.37299049664234        1.66280154303702       -0.02631124949634
C           -2.73255913792461       -0.55907202983786        0.11656671491342
O           -3.57064985228078        0.06116212136497        0.74938955271004
H            3.75602314205287       -1.42066882292997        0.86611330980157
H            3.25865627507482       -1.37016070024098       -0.82834011286007
H            4.07046463041148        0.01610238891379       -0.11432784994935
H            0.55574492668705       -0.03582922558063        1.98462536348631
H            2.01241721042649       -1.05072861235784        2.40098676268389
H            0.23937782293949        0.40019983512726       -2.39584148764144
H            1.35141588611765       -0.93374157585637       -2.07944741519984
H           -1.06528870754000       -1.55397915101467       -1.72546886806160
H           -0.07613185540222       -1.77463669153768       -0.28105424290504
H           -1.67113897274525        1.71578512197927        0.78494777554523
H            0.24860713837361        2.47734664461321       -0.74722704152529
H            0.76300572418532        2.11611986264371        0.88757139667212
H           -2.98212290366218       -1.56274398011972       -0.27719297174427
25
 energy: -32.577976002231 gnorm: 0.000241678589 xtb: 6.7.1 (edcfbbe)
C            3.35829026666027       -0.78064792630851        0.08416478155788
C            2.03088127484184       -0.20607899486015        0.48177026653545
C            1.50368029005731       -0.43832256758894        1.67365318029492
C            1.36904864881257        0.63885802118985       -0.58373796978126
H            2.16404994898986        1.18342360730060       -1.10435366267325
C            0.64777592005878       -0.24335044029577       -1.61498946001148
C           -0.48859720229300       -1.02597064583563       -0.96461765087287
C           -1.38820162961089       -0.10816954038148       -0.18921533593961
C           -0.97176521608298        1.09739382362711        0.23530029457160
C            0.37362198649316        1.66249400230641       -0.02718484142918
C           -2.73239163159314       -0.55816580442995        0.11799611966176
O           -3.56978856993556        0.06284686211465        0.75101887134082
H            3.75719038655674       -1.41831462589931        0.86787034844464
H            3.26287825301000       -1.36751769827727       -0.82754652400000
H            4.07061767238469        0.01978732974697       -0.11096284489812
H            0.55260689150144       -0.03974835389605        1.98208102834341
H            2.01032857188934       -1.05252906928227        2.39981382511865
H            0.23909628005807        0.39962093871384       -2.39637654706145
H            1.35051911028221       -0.93476648960466       -2.08000619082907
H           -1.06666889695180       -1.55375708218182       -1.72561035324956
H           -0.07694260945722       -1.77502173216353       -0.28172071786004
H           -1.66969710100918        1.71522048860738        0.78663465067250
H            0.24853064737509        2.47642915312301       -0.74871179524192
H            0.76461330260533        2.11662933967714        0.88587627660728
H           -2.98293369287931       -1.56174608683872       -0.27531539655322
25
 energy: -32.577977937100 gnorm: 0.000173126703 xtb: 6.7.1 (edcfbbe)
C            3.35972189812479       -0.77869159143795        0.08541931592644
C            2.03083434994307       -0.20666031501756        0.48130540972373
C            1.50214073891277       -0.44065520495676        1.67216692446343
C            1.36912324715493        0.63819296043466       -0.58435915736791
H            2.16413267183341        1.18237183628493       -1.10535804402152
C            0.64717858274394       -0.24400973414783       -1.61528368482483
C           -0.48918592590815       -1.02612684284170       -0.96442679977301
C           -1.38824913435641       -0.10788817539317       -0.18894765080196
C           -0.97109101411786        1.09741281329859        0.23573580325017
C            0.37408357476925        1.66222918066204       -0.02798316063126
C           -2.73256178203020       -0.55718161497143        0.11882549140798
O           -3.56935676277006        0.06449928584105        0.75209936082287
H            3.75814716354240       -1.41685767183872        0.86896800103664
H            3.26718522486474       -1.36425321606846       -0.82745489982223
H            4.07127934298505        0.02316741307721       -0.10705454691009
H            0.55000289340840       -0.04364525010010        1.97944855026387
H            2.00863276242343       -1.05485275934974        2.39845335008446
H            0.23858012082120        0.39905019155029       -2.39662776305580
H            1.34956092519623       -0.93569363820395       -2.08039742698200
H           -1.06757874967923       -1.55413056077643       -1.72497702688156
H           -0.07751713289108       -1.77507452281351       -0.28142893823744
H           -1.66846860098457        1.71514924025176        0.78787680215653
H            0.24831790147183        2.47539029424710       -0.75034418606449
H            0.76578898350412        2.11752369480791        0.88419708396948
H           -2.98395837719838       -1.56066930397536       -0.27402245498363
25
 energy: -32.577979422856 gnorm: 0.000152381133 xtb: 6.7.1 (edcfbbe)
C            3.36121367185849       -0.77659574903942        0.08634931643847
C            2.03093940362793       -0.20705700576603        0.48090825099618
C            1.50088076555048       -0.44289567428196        1.67082391614583
C            1.36923514485246        0.63753523507084       -0.58493070535947
H            2.16422905402145        1.18134894493654       -1.10632590306318
C            0.64668621140569       -0.24491115749634       -1.61532321544724
C           -0.48981923722157       -1.02632047185476       -0.96398960559785
C           -1.38845547079857       -0.10758703444094       -0.18859170207790
C           -0.97061148086509        1.09749081516437        0.23604043204998
C            0.37454093914780        1.66189560937355       -0.02862037696193
C           -2.73289823833322       -0.55616022828687        0.11949297846434
O           -3.56919809125149        0.06610346492412        0.75282865964107
H            3.75880449129307       -1.41611521668547        0.86921427722150
H            3.27132674524541       -1.36004279512793       -0.82811932012094
H            4.07222043113526        0.02659033668078       -0.10269369530810
H            0.54772519319018       -0.04747089016330        1.97694178519579
H            2.00708762557900       -1.05721649613143        2.39716668744690
H            0.23808850154567        0.39806346133185       -2.39670529065350
H            1.34875695055515       -0.93695863739246       -2.08035114473993
H           -1.06846306350991       -1.55469454642322       -1.72407921058056
H           -0.07810612181995       -1.77487389983217       -0.28058725933867
H           -1.66753058870658        1.71557134229429        0.78832733069186
H            0.24836955375721        2.47435563530191       -0.75171742461324
H            0.76672303846568        2.11804382615677        0.88290877196562
H           -2.98500252696095       -1.55950235974983       -0.27313719964715
25
 energy: -32.577980792471 gnorm: 0.000136236082 xtb: 6.7.1 (edcfbbe)
C            3.36295453279664       -0.77423903739895        0.08720683111558
C            2.03107490922261       -0.20762575006138        0.48049051640621
C            1.49977364305733       -0.44544645320979        1.66941698895937
C            1.36920495235291        0.63671393988118       -0.58542725795711
H            2.16412490983346        1.18008672377835       -1.10736025691562
C            0.64611592991524       -0.24603173884350       -1.61522228955329
C           -0.49054235220932       -1.02664568313487       -0.96322816372587
C           -1.38888887030747       -0.10705216284352       -0.18849047604298
C           -0.97037321194821        1.09793125547789        0.23573935684159
C            0.37497424902890        1.66164513855990       -0.02936788326746
C           -2.73345493978655       -0.55493821159803        0.12002579539800
O           -3.56927068575632        0.06783237888223        0.75351836975480
H            3.75946502674126       -1.41598502559110        0.86880752710082
H            3.27601467484245       -1.35445167594535       -0.82958869961003
H            4.07340616989830        0.03053808107862       -0.09717051151806
H            0.54546841169496       -0.05183546493842        1.97431995061228
H            2.00590873731872       -1.05958033078257        2.39590169750062
H            0.23777203009121        0.39662501049888       -2.39697674247169
H            1.34787276872294       -0.93870632134192       -2.07975108223557
H           -1.06937118354041       -1.55539456920764       -1.72287513219850