
                                 *****************
                                 * O   R   C   A *
                                 *****************

                                            #,                                       
                                            ###                                      
                                            ####                                     
                                            #####                                    
                                            ######                                   
                                           ########,                                 
                                     ,,################,,,,,                         
                               ,,#################################,,                 
                          ,,##########################################,,             
                       ,#########################################, ''#####,          
                    ,#############################################,,   '####,        
                  ,##################################################,,,,####,       
                ,###########''''           ''''###############################       
              ,#####''   ,,,,##########,,,,          '''####'''          '####       
            ,##' ,,,,###########################,,,                        '##       
           ' ,,###''''                  '''############,,,                           
         ,,##''                                '''############,,,,        ,,,,,,###''
      ,#''                                            '''#######################'''  
     '                                                          ''''####''''         
             ,#######,   #######,   ,#######,      ##                                
            ,#'     '#,  ##    ##  ,#'     '#,    #''#        ,####,   ,####,        
            ##       ##  ##   ,#'  ##            #'  '#       #'       #'  '#        
            ##       ##  #######   ##           ,######,      #####,   #    #        
            '#,     ,#'  ##    ##  '#,     ,#' ,#      #,     #,   #   #,  ,#        
             '#######'   ##     ##  '#######'  #'      '#     '####' # '####'        



                #########################################################
                #                        -***-                          #
                #          Department of theory and spectroscopy        #
                #                                                       #
                #                      Frank Neese                      #
                #                                                       #
                #     Directorship, Architecture, Infrastructure        #
                #                    SHARK, DRIVERS                     #
                #        Core code/Algorithms in most modules           #
                #                                                       #
                #        Max Planck Institute fuer Kohlenforschung      #
                #                Kaiser Wilhelm Platz 1                 #
                #                 D-45470 Muelheim/Ruhr                 #
                #                      Germany                          #
                #                                                       #
                #                  All rights reserved                  #
                #                        -***-                          #
                #########################################################


                         Program Version 6.0.0  -   RELEASE  -


 With contributions from (in alphabetic order):
   Daniel Aravena         : Magnetic Suceptibility
   Michael Atanasov       : Ab Initio Ligand Field Theory (pilot matlab implementation)
   Alexander A. Auer      : GIAO ZORA, VPT2 properties, NMR spectrum
   Ute Becker             : All parallelization in ORCA, NUMFREQ, NUMCALC
   Giovanni Bistoni       : ED, misc. LED, open-shell LED, HFLD
   Martin Brehm           : Molecular dynamics
   Dmytro Bykov           : pre 5.0 version of the SCF Hessian
   Marcos Casanova-Páez   : Triplet and SCS-CIS(D). UHF-(DLPNO)-IP/EA/STEOM-CCSD. UHF-CVS-IP/STEOM-CCSD
   Vijay G. Chilkuri      : MRCI spin determinant printing, contributions to CSF-ICE
   Pauline Colinet        : FMM embedding
   Dipayan Datta          : RHF DLPNO-CCSD density
   Achintya Kumar Dutta   : EOM-CC, STEOM-CC
   Nicolas Foglia         : Exact transition moments, OPA infrastructure, MCD improvements
   Dmitry Ganyushin       : Spin-Orbit,Spin-Spin,Magnetic field MRCI
   Miquel Garcia          : C-PCM and meta-GGA Hessian, CCSD/C-PCM, Gaussian charge scheme
   Tiago L. C. Gouveia    : GS-ROHF, GS-ROCIS
   Yang Guo               : DLPNO-NEVPT2, F12-NEVPT2, CIM, IAO-localization
   Andreas Hansen         : Spin unrestricted coupled pair/coupled cluster methods
   Ingolf Harden          : AUTO-CI MPn and infrastructure 
   Benjamin Helmich-Paris : MC-RPA, TRAH-(SCF,CASSCF), AVAS, COSX integrals, SCF dyn. polar.
   Lee Huntington         : MR-EOM, pCC
   Robert Izsak           : Overlap fitted RIJCOSX, COSX-SCS-MP3, EOM
   Riya Kayal             : Wick's Theorem for AUTO-CI, AUTO-CI UHF-CCSDT
   Emily Kempfer          : AUTO-CI, RHF CISDT and CCSDT
   Christian Kollmar      : KDIIS, OOCD, Brueckner-CCSD(T), CCSD density, CASPT2, CASPT2-K, improved NEVPT2
   Axel Koslowski         : Symmetry handling
   Simone Kossmann        : Meta GGA functionals, TD-DFT gradient, OOMP2, (MP2 Hessian; deprecated post 5.0)
   Lucas Lang             : DCDCAS
   Marvin Lechner         : AUTO-CI (C++ implementation), FIC-MRCC
   Spencer Leger          : CASSCF response
   Dagmar Lenk            : GEPOL surface, SMD, ORCA-2-JSON
   Dimitrios Liakos       : Extrapolation schemes; Compound Job, initial MDCI parallelization
   Dimitrios Manganas     : Further ROCIS development; embedding schemes. LFT, Crystal Embedding
   Dimitrios Pantazis     : SARC Basis sets
   Anastasios Papadopoulos: AUTO-CI, single reference methods and gradients
   Taras Petrenko         : pre 6.0 DFT Hessian and TD-DFT gradient, (ASA, deprecated), ECA, 1-Electron XAS/XES, NRVS
   Peter Pinski           : DLPNO-MP2, DLPNO-MP2 Gradient
   Christoph Reimann      : Effective Core Potentials
   Marius Retegan         : Local ZFS, SOC
   Christoph Riplinger    : Optimizer, TS searches, QM/MM, DLPNO-CCSD(T), (RO)-DLPNO pert. Triples
   Michael Roemelt        : Original ROCIS implementation
   Masaaki Saitow         : Open-shell DLPNO-CCSD energy and density
   Barbara Sandhoefer     : DKH picture change effects
   Kantharuban Sivalingam : CASSCF convergence/infrastructure, NEVPT2 and variants, FIC-MRCI
   Bernardo de Souza      : ESD, SOC TD-DFT
   Georgi Stoychev        : AutoAux, RI-MP2 NMR, DLPNO-MP2 response, X2C
   Van Anh Tran           : RI-MP2 g-tensors
   Willem Van den Heuvel  : Paramagnetic NMR
   Zikuan Wang            : NOTCH, Electric field optimization 
   Frank Wennmohs         : Technical directorship and infrastructure
   Hang Xu                : AUTO-CI-Response properties 


 We gratefully acknowledge several colleagues who have allowed us to
 interface, adapt or use parts of their codes:
   Stefan Grimme, W. Hujo, H. Kruse, P. Pracht,  : VdW corrections, initial TS optimization,
                  C. Bannwarth, S. Ehlert,         DFT functionals, gCP, sTDA/sTD-DF
                  L. Wittmann, M. Mueller
   Ed Valeev, F. Pavosevic, A. Kumar             : LibInt (2-el integral package), F12 methods
   Garnet Chan, S. Sharma, J. Yang, R. Olivares  : DMRG
   Ulf Ekstrom                                   : XCFun DFT Library
   Mihaly Kallay                                 : mrcc  (arbitrary order and MRCC methods)
   Frank Weinhold                                : gennbo (NPA and NBO analysis)
   Simon Mueller                                 : openCOSMO-RS
   Christopher J. Cramer and Donald G. Truhlar   : smd solvation model
   Lars Goerigk                                  : TD-DFT with DH, B97 family of functionals
   V. Asgeirsson, H. Jonsson                     : NEB implementation
   FAccTs GmbH                                   : IRC, NEB, NEB-TS, DLPNO-Multilevel, CI-OPT
                                                   MM, QMMM, 2- and 3-layer-ONIOM, Crystal-QMMM,
                                                   LR-CPCM, SF, NACMEs, symmetry and pop. for TD-DFT,
                                                   nearIR, NL-DFT gradient (VV10), updates on ESD,
                                                   ML-optimized integration grids, MBIS, APM,
                                                   GOAT, DOCKER, SOLVATOR, interface openCOSMO-RS
   S Lehtola, MJT Oliveira, MAL Marques          : LibXC Library
   Liviu Ungur et al                             : ANISO software


 Your calculation uses the libint2 library for the computation of 2-el integrals
 For citations please refer to: http://libint.valeyev.net

 Your ORCA version has been built with support for libXC version: 6.2.2
 For citations please refer to: https://libxc.gitlab.io

 This ORCA versions uses:
   CBLAS   interface :  Fast vector & matrix operations
   LAPACKE interface :  Fast linear algebra routines
   SCALAPACK package :  Parallel linear algebra routines
   Shared memory     :  Shared parallel matrices
   BLAS/LAPACK       :  OpenBLAS 0.3.27  USE64BITINT DYNAMIC_ARCH NO_AFFINITY SkylakeX SINGLE_THREADED
        Core in use  :  SkylakeX
   Copyright (c) 2011-2014, The OpenBLAS Project


Your calculation utilizes the geometrical counterpoise correction gCP
Please cite in your paper:
H.Kruse, S. Grimme J.Chem.Phys., 136, (2012), 154101 
   

Your calculation utilizes the atom-pairwise dispersion correction
based on EEQ partial charges (D4)


================================================================================

----- Orbital basis set information -----
Your calculation utilizes the basis: def2-SV(P)
   F. Weigend and R. Ahlrichs, Phys. Chem. Chem. Phys. 7, 3297 (2005).

----- AuxJ basis set information -----
Your calculation utilizes the auxiliary basis: def2/J
   F. Weigend, Phys. Chem. Chem. Phys. 8, 1057 (2006).

================================================================================
                                        WARNINGS
                       Please study these warnings very carefully!
================================================================================


================================================================================
                                       INPUT FILE
================================================================================
NAME = sp.inp
|  1> ! pbe def2-sv(p) def2/J RI DEFGRID1 loosescf d4 GCP(DFT/SV(P)) printgap
|  2> %output
|  3>     printlevel normal
|  4> end
|  5> * xyz 0 1
|  6> C -2.6450183483 0.668798502 0.0892245811
|  7> C -1.2759488727 0.1390891627 0.4987714381
|  8> C -0.5674342114 -0.5431148578 -0.6694363271
|  9> C 0.815662774 -1.0784562692 -0.2712513557
| 10> C 1.7188326796 -0.0134609938 0.0609309589
| 11> N 2.4425142076 0.8386853646 0.3130303545
| 12> H -3.2778512958 -0.1423920683 -0.2633846967
| 13> H -3.1358206414 1.1464510389 0.9330899224
| 14> H -2.547219279 1.4005586803 -0.7094010833
| 15> H -0.6588303357 0.9643375071 0.8631215952
| 16> H -1.3942302838 -0.5733412238 1.3186763641
| 17> H -0.4583391865 0.1663154296 -1.4925619109
| 18> H -1.1722285284 -1.379961018 -1.0224997486
| 19> H 0.7300141146 -1.737212758 0.5966366109
| 20> H 1.2554236315 -1.6430789255 -1.0970046787
| 21> *
| 22> 
| 23>                          ****END OF INPUT****
================================================================================

                       ****************************
                       * Single Point Calculation *
                       ****************************

---------------------------------
CARTESIAN COORDINATES (ANGSTROEM)
---------------------------------
  C     -2.645018    0.668799    0.089225
  C     -1.275949    0.139089    0.498771
  C     -0.567434   -0.543115   -0.669436
  C      0.815663   -1.078456   -0.271251
  C      1.718833   -0.013461    0.060931
  N      2.442514    0.838685    0.313030
  H     -3.277851   -0.142392   -0.263385
  H     -3.135821    1.146451    0.933090
  H     -2.547219    1.400559   -0.709401
  H     -0.658830    0.964338    0.863122
  H     -1.394230   -0.573341    1.318676
  H     -0.458339    0.166315   -1.492562
  H     -1.172229   -1.379961   -1.022500
  H      0.730014   -1.737213    0.596637
  H      1.255424   -1.643079   -1.097005

----------------------------
CARTESIAN COORDINATES (A.U.)
----------------------------
  NO LB      ZA    FRAG     MASS         X           Y           Z
   0 C     6.0000    0    12.011   -4.998360    1.263846    0.168610
   1 C     6.0000    0    12.011   -2.411194    0.262840    0.942541
   2 C     6.0000    0    12.011   -1.072295   -1.026338   -1.265051
   3 C     6.0000    0    12.011    1.541379   -2.037987   -0.512591
   4 C     6.0000    0    12.011    3.248123   -0.025438    0.115143
   5 N     7.0000    0    14.007    4.615683    1.584886    0.591542
   6 H     1.0000    0     1.008   -6.194241   -0.269082   -0.497725
   7 H     1.0000    0     1.008   -5.925842    2.166478    1.763284
   8 H     1.0000    0     1.008   -4.813547    2.646672   -1.340574
   9 H     1.0000    0     1.008   -1.245009    1.822334    1.631063
  10 H     1.0000    0     1.008   -2.634713   -1.083458    2.491937
  11 H     1.0000    0     1.008   -0.866136    0.314291   -2.820533
  12 H     1.0000    0     1.008   -2.215191   -2.607748   -1.932244
  13 H     1.0000    0     1.008    1.379527   -3.282856    1.127480
  14 H     1.0000    0     1.008    2.372407   -3.104969   -2.073038

--------------------------------
INTERNAL COORDINATES (ANGSTROEM)
--------------------------------
 C      0   0   0     0.000000000000     0.00000000     0.00000000
 C      1   0   0     1.524031443652     0.00000000     0.00000000
 C      2   1   0     1.527123025017   111.49870105     0.00000000
 C      3   2   1     1.535610292109   112.03997147   179.84561601
 C      4   3   2     1.435366122332   111.59717604   294.30139278
 N      5   4   3     1.146046454279   179.32524513   277.79937208
 H      1   2   3     1.087584931661   110.52338303    59.69215796
 H      1   2   3     1.086806124001   110.47412148   179.74656202
 H      1   2   3     1.087584740763   110.51209418   299.66477577
 H      2   1   3     1.092987262333   109.53346787   121.09573494
 H      2   1   3     1.092607722607   109.33182597   238.83861246
 H      3   2   1     1.092121231295   109.43356405    58.34183213
 H      3   2   1     1.091210997616   109.44840977   300.12345793
 H      4   3   2     1.092943423496   110.20920552    54.57650068
 H      4   3   2     1.092729109268   110.28307612   174.56152849

---------------------------
INTERNAL COORDINATES (A.U.)
---------------------------
 C      0   0   0     0.000000000000     0.00000000     0.00000000
 C      1   0   0     2.880002047987     0.00000000     0.00000000
 C      2   1   0     2.885844290087   111.49870105     0.00000000
 C      3   2   1     2.901882900517   112.03997147   179.84561601
 C      4   3   2     2.712448873116   111.59717604   294.30139278
 N      5   4   3     2.165713935338   179.32524513   277.79937208
 H      1   2   3     2.055237668219   110.52338303    59.69215796
 H      1   2   3     2.053765935031   110.47412148   179.74656202
 H      1   2   3     2.055237307473   110.51209418   299.66477577
 H      2   1   3     2.065446593674   109.53346787   121.09573494
 H      2   1   3     2.064729367534   109.33182597   238.83861246
 H      3   2   1     2.063810032188   109.43356405    58.34183213
 H      3   2   1     2.062089939817   109.44840977   300.12345793
 H      4   3   2     2.065363750277   110.20920552    54.57650068
 H      4   3   2     2.064958755080   110.28307612   174.56152849

---------------------
BASIS SET INFORMATION
---------------------
There are 3 groups of distinct atoms

 Group   1 Type C   : 7s4p1d contracted to 3s2p1d pattern {511/31/1}
 Group   2 Type N   : 7s4p1d contracted to 3s2p1d pattern {511/31/1}
 Group   3 Type H   : 4s contracted to 2s pattern {31}

Atom   0C    basis set group =>   1
Atom   1C    basis set group =>   1
Atom   2C    basis set group =>   1
Atom   3C    basis set group =>   1
Atom   4C    basis set group =>   1
Atom   5N    basis set group =>   2
Atom   6H    basis set group =>   3
Atom   7H    basis set group =>   3
Atom   8H    basis set group =>   3
Atom   9H    basis set group =>   3
Atom  10H    basis set group =>   3
Atom  11H    basis set group =>   3
Atom  12H    basis set group =>   3
Atom  13H    basis set group =>   3
Atom  14H    basis set group =>   3
---------------------------------
AUXILIARY/J BASIS SET INFORMATION
---------------------------------
There are 3 groups of distinct atoms

 Group   1 Type C   : 12s5p4d2f1g contracted to 6s4p3d1f1g pattern {711111/2111/211/2/1}
 Group   2 Type N   : 12s5p4d2f1g contracted to 6s4p3d1f1g pattern {711111/2111/211/2/1}
 Group   3 Type H   : 5s2p1d contracted to 3s1p1d pattern {311/2/1}

Atom   0C    basis set group =>   1
Atom   1C    basis set group =>   1
Atom   2C    basis set group =>   1
Atom   3C    basis set group =>   1
Atom   4C    basis set group =>   1
Atom   5N    basis set group =>   2
Atom   6H    basis set group =>   3
Atom   7H    basis set group =>   3
Atom   8H    basis set group =>   3
Atom   9H    basis set group =>   3
Atom  10H    basis set group =>   3
Atom  11H    basis set group =>   3
Atom  12H    basis set group =>   3
Atom  13H    basis set group =>   3
Atom  14H    basis set group =>   3
------------------------------------------------------------------------------
                             ORCA STARTUP CALCULATIONS
                           -- RI-GTO INTEGRALS CHOSEN --
------------------------------------------------------------------------------
------------------------------------------------------------------------------
                   ___                                                        
                  /   \      - P O W E R E D   B Y -                         
                 /     \                                                     
                 |  |  |   _    _      __       _____    __    __             
                 |  |  |  | |  | |    /  \     |  _  \  |  |  /  |          
                  \  \/   | |  | |   /    \    | | | |  |  | /  /          
                 / \  \   | |__| |  /  /\  \   | |_| |  |  |/  /          
                |  |  |   |  __  | /  /__\  \  |    /   |      \           
                |  |  |   | |  | | |   __   |  |    \   |  |\   \          
                \     /   | |  | | |  |  |  |  | |\  \  |  | \   \       
                 \___/    |_|  |_| |__|  |__|  |_| \__\ |__|  \__/        
                                                                              
                      - O R C A' S   B I G   F R I E N D -                    
                                      &                                       
                       - I N T E G R A L  F E E D E R -                       
                                                                              
 v1 FN, 2020, v2 2021, v3 2022-2024                                           
------------------------------------------------------------------------------


----------------------
SHARK INTEGRAL PACKAGE
----------------------

Number of atoms                             ...     15
Number of basis functions                   ...    102
Number of shells                            ...     54
Maximum angular momentum                    ...      2
Integral batch strategy                     ... SHARK/LIBINT Hybrid
RI-J (if used) integral strategy            ... SPLIT-RIJ (Revised 2003 algorithm where possible)
Printlevel                                  ...      1
Contraction scheme used                     ... SEGMENTED contraction
Prescreening option                         ... SCHWARTZ
   Thresh                                   ... 1.000e-09
   Tcut                                     ... 1.000e-10
   Tpresel                                  ... 1.000e-10 
Coulomb Range Separation                    ... NOT USED
Exchange Range Separation                   ... NOT USED
Multipole approximations                    ... NOT USED
Finite Nucleus Model                        ... NOT USED
CABS basis                                  ... NOT available
Auxiliary Coulomb fitting basis             ... AVAILABLE
   # of basis functions in Aux-J            ...    393
   # of shells in Aux-J                     ...    135
   Maximum angular momentum in Aux-J        ...      4
Auxiliary J/K fitting basis                 ... NOT available
Auxiliary Correlation fitting basis         ... NOT available
Auxiliary 'external' fitting basis          ... NOT available

Checking pre-screening integrals            ... done (  0.0 sec) Dimension = 54
Check shell pair data                       ... done (  0.0 sec)
Shell pair information
Shell pair cut-off parameter TPreSel        ...   1.0e-10
Total number of shell pairs                 ...      1485
Shell pairs after pre-screening             ...      1419
Total number of primitive shell pairs       ...      5991
Primitive shell pairs kept                  ...      4219
          la=0 lb=0:    634 shell pairs
          la=1 lb=0:    418 shell pairs
          la=1 lb=1:     77 shell pairs
          la=2 lb=0:    200 shell pairs
          la=2 lb=1:     70 shell pairs
          la=2 lb=2:     20 shell pairs

Calculating one electron integrals          ... done (  0.0 sec)
Calculating RI/J V-Matrix + Cholesky decomp.... done (  0.1 sec)
Calculating Nuclear repulsion               ... done (  0.0 sec) ENN=    217.028010193025 Eh

Diagonalization of the overlap matrix:
Smallest eigenvalue                        ... 8.094e-04
Time for diagonalization                   ...    0.003 sec
Threshold for overlap eigenvalues          ... 1.000e-07
Number of eigenvalues below threshold      ... 0
Time for construction of square roots      ...    0.013 sec
Total time needed                          ...    0.026 sec

-------------------
DFT GRID GENERATION
-------------------

General Integration Accuracy     IntAcc      ... 4.159
Radial Grid Type                 RadialGrid  ... OptM3 with GC (2021)
Angular Grid (max. ang.)         AngularGrid ... 3 (Lebedev-194)
Angular grid pruning method      GridPruning ... 4 (adaptive)
Weight generation scheme         WeightScheme... mBecke (2022)
Basis function cutoff            BFCut       ... 1.0000e-10
Integration weight cutoff        WCut        ... 1.0000e-14
Partially contracted basis set               ... off
Rotationally invariant grid construction     ... off
Angular grids for H and He will be reduced by one unit

Total number of grid points                  ...    32370
Total number of batches                      ...      512
Average number of points per batch           ...       63
Average number of grid points per atom       ...     2158
Initializing property integral containers    ... done (  0.0 sec)

SHARK setup successfully completed in   0.5 seconds

Maximum memory used throughout the entire STARTUP-calculation: 16.2 MB
-------------------------------------------------------------------------------
                                 ORCA GUESS
                   Start orbitals & Density for SCF / CASSCF
-------------------------------------------------------------------------------

------------
SCF SETTINGS
------------
Hamiltonian:
 Density Functional     Method          .... DFT(GTOs)
 Exchange Functional    Exchange        .... PBE
   PBE kappa parameter   XKappa         ....  0.804000
   PBE mue parameter    XMuePBE         ....  0.219520
 Correlation Functional Correlation     .... PBE
   PBE beta parameter  CBetaPBE         ....  0.066725
 LDA part of GGA corr.  LDAOpt          .... PW91-LDA
 Gradients option       PostSCFGGA      .... off
   NL short-range parameter             ....  6.400000
 RI-approximation to the Coulomb term is turned on
   Number of AuxJ basis functions       .... 393


General Settings:
 Integral files         IntName         .... sp
 Hartree-Fock type      HFTyp           .... RHF
 Total Charge           Charge          ....    0
 Multiplicity           Mult            ....    1
 Number of Electrons    NEL             ....   46
 Basis Dimension        Dim             ....  102
 Nuclear Repulsion      ENuc            ....    217.0280101930 Eh

Convergence Acceleration:
 AO-DIIS                CNVDIIS         .... on
   Start iteration      DIISMaxIt       ....    12
   Startup error        DIISStart       ....  0.200000
   # of expansion vecs  DIISMaxEq       ....     5
   Bias factor          DIISBfac        ....   1.050
   Max. coefficient     DIISMaxC        ....  10.000
 MO-DIIS                CNVKDIIS        .... off
 Trust-Rad. Augm. Hess. CNVTRAH         .... auto
   Auto Start mean grad. ratio tolernc. ....  1.125000
   Auto Start start iteration           ....    50
   Auto Start num. interpolation iter.  ....    10
   Max. Number of Micro iterations      ....    24
   Max. Number of Macro iterations      .... Maxiter - #DIIS iter
   Number of Davidson start vectors     ....     2
   Converg. threshold    (grad. norm)   ....   1.000e-04
   Grad. Scal. Fac. for Micro threshold ....   0.100
   Minimum threshold for Micro iter.    ....   1.000e-02
   NR start threshold (gradient norm)   ....   1.000e-04
   Initial trust radius                 ....   0.400
   Minimum AH scaling param. (alpha)    ....   1.000
   Maximum AH scaling param. (alpha)    .... 1000.000
   Quad. conv. algorithm                .... NR
   White noise on init. David. guess    .... on
   Maximum white noise                  ....   0.010
   Pseudo random numbers                .... off
   Inactive MOs                         .... canonical
   Orbital update algorithm             .... Taylor
   Preconditioner                       .... Diag
   Full preconditioner red. dimension   ....   250
 SOSCF                  CNVSOSCF        .... on
   Start iteration      SOSCFMaxIt      ....   150
   Startup grad/error   SOSCFStart      ....  0.003300
   Hessian update       SOSCFHessUp     .... L-BFGS
 Level Shifting         CNVShift        .... on
   Level shift para.    LevelShift      ....    0.2500
   Turn off err/grad.   ShiftErr        ....    0.0010
 Zerner damping         CNVZerner       .... off
 Static damping         CNVDamp         .... on
   Fraction old density DampFac         ....    0.7000
   Max. Damping (<1)    DampMax         ....    0.9800
   Min. Damping (>=0)   DampMin         ....    0.0000
   Turn off err/grad.   DampErr         ....    0.1000

SCF Procedure:
 Maximum # iterations   MaxIter         ....   125
 SCF integral mode      SCFMode         .... Direct
   Integral package                     .... SHARK and LIBINT hybrid scheme
 Reset frequency        DirectResetFreq ....    20
 Integral Threshold     Thresh          ....  1.000e-09 Eh
 Primitive CutOff       TCut            ....  1.000e-10 Eh

Convergence Tolerance:
 Convergence Check Mode ConvCheckMode   .... Total+1el-Energy
 Convergence forced     ConvForced      .... 0
 Energy Change          TolE            ....  1.000e-05 Eh
 1-El. energy change                    ....  1.000e-02 Eh
 Orbital Gradient       TolG            ....  1.000e-04
 Orbital Rotation angle TolX            ....  1.000e-04
 DIIS Error             TolErr          ....  5.000e-04

------------------------------
INITIAL GUESS: MODEL POTENTIAL
------------------------------
Loading Hartree-Fock densities                     ... done
Calculating cut-offs                               ... done
Initializing the effective Hamiltonian             ... done
Setting up the integral package (SHARK)            ... done
Starting the Coulomb interaction                   ... done (   0.1 sec)
Making the grid                                    ... done (   0.1 sec)
Mapping shells                                     ... done
Starting the XC term evaluation                    ... done (   0.1 sec)
  promolecular density results
     # of electrons  =     45.997905900
     EX              =    -34.708934532
     EC              =     -1.483852588
     EX+EC           =    -36.192787120
Transforming the Hamiltonian                       ... done (   0.0 sec)
Diagonalizing the Hamiltonian                      ... done (   0.0 sec)
Back transforming the eigenvectors                 ... done (   0.0 sec)
Now organizing SCF variables                       ... done
                      ------------------
                      INITIAL GUESS DONE (   0.3 sec)
                      ------------------
             **** ENERGY FILE WAS UPDATED (sp.en.tmp) ****
Finished Guess after   0.6 sec
Maximum memory used throughout the entire GUESS-calculation: 12.4 MB

-------------------------------------------------------------------------------------------
                                      ORCA LEAN-SCF
                              memory conserving SCF solver
-------------------------------------------------------------------------------------------

----------------------------------------D-I-I-S--------------------------------------------
Iteration    Energy (Eh)           Delta-E    RMSDP     MaxDP     DIISErr   Damp  Time(sec)
-------------------------------------------------------------------------------------------
               ***  Starting incremental Fock matrix formation  ***
    1    -249.9546848516619661     0.00e+00  5.48e-03  8.90e-02  2.15e-01  0.700   0.6
    2    -250.0513532303719444    -9.67e-02  3.72e-03  4.73e-02  7.44e-02  0.700   0.6
                               ***Turning on AO-DIIS***
    3    -250.0800344777808846    -2.87e-02  1.62e-03  2.31e-02  3.49e-02  0.700   0.5
    4    -250.0992125487501880    -1.92e-02  2.19e-03  3.16e-02  2.52e-02  0.000   0.5
    5    -250.1434556965711522    -4.42e-02  7.24e-04  9.69e-03  8.40e-03  0.000   0.6
                              *** Initializing SOSCF ***
---------------------------------------S-O-S-C-F--------------------------------------
Iteration    Energy (Eh)           Delta-E    RMSDP     MaxDP     MaxGrad    Time(sec)
--------------------------------------------------------------------------------------
    6    -250.1440784754942683    -6.23e-04  2.42e-04  2.28e-03  1.83e-03     0.6
               *** Restarting incremental Fock matrix formation ***
    7    -250.1441161876461479    -3.77e-05  1.60e-04  1.64e-03  3.92e-04     0.5
    8    -250.1441137986251420     2.39e-06  6.57e-05  1.35e-03  7.25e-04     0.5
                 **** Energy Check signals convergence ****

               *****************************************************
               *                     SUCCESS                       *
               *           SCF CONVERGED AFTER   8 CYCLES          *
               *****************************************************

             **** ENERGY FILE WAS UPDATED (sp.en.tmp) ****

----------------
TOTAL SCF ENERGY
----------------

Total Energy       :       -250.14411379862514 Eh           -6806.76739 eV

Components:
Nuclear Repulsion  :        217.02801019302535 Eh            5905.63239 eV
Electronic Energy  :       -467.17212399165049 Eh          -12712.39978 eV
One Electron Energy:       -765.59395970674302 Eh          -20832.87077 eV
Two Electron Energy:        298.42183571509253 Eh            8120.47099 eV

Virial components:
Potential Energy   :       -498.10344625871716 Eh          -13554.08385 eV
Kinetic Energy     :        247.95933246009201 Eh            6747.31646 eV
Virial Ratio       :          2.00881104702476

DFT components:
N(Alpha)           :       23.000205401906 electrons
N(Beta)            :       23.000205401906 electrons
N(Total)           :       46.000410803812 electrons
E(X)               :      -35.503607923383 Eh       
E(C)               :       -1.500224269395 Eh       
E(XC)              :      -37.003832192778 Eh       

---------------
SCF CONVERGENCE
---------------

  Last Energy change         ...   -2.3890e-06  Tolerance :   1.0000e-05
  Last MAX-Density change    ...    1.3491e-03  Tolerance :   1.0000e-03
  Last RMS-Density change    ...    6.5699e-05  Tolerance :   1.0000e-04
  Last DIIS Error            ...    1.8272e-03  Tolerance :   5.0000e-04
  Last Orbital Gradient      ...    7.2488e-04  Tolerance :   1.0000e-04
  Last Orbital Rotation      ...    7.0705e-04  Tolerance :   1.0000e-04


----------------
ORBITAL ENERGIES
----------------

  NO   OCC          E(Eh)            E(eV) 
   0   2.0000     -13.975311      -380.2875 
   1   2.0000      -9.935392      -270.3558 
   2   2.0000      -9.924253      -270.0527 
   3   2.0000      -9.911088      -269.6944 
   4   2.0000      -9.897615      -269.3278 
   5   2.0000      -9.883225      -268.9362 
   6   2.0000      -0.813282       -22.1305 
   7   2.0000      -0.748656       -20.3720 
   8   2.0000      -0.688599       -18.7377 
   9   2.0000      -0.601568       -16.3695 
  10   2.0000      -0.537855       -14.6358 
  11   2.0000      -0.471893       -12.8409 
  12   2.0000      -0.431088       -11.7305 
  13   2.0000      -0.416432       -11.3317 
  14   2.0000      -0.404542       -11.0081 
  15   2.0000      -0.364276        -9.9125 
  16   2.0000      -0.344627        -9.3778 
  17   2.0000      -0.321611        -8.7515 
  18   2.0000      -0.310795        -8.4572 
  19   2.0000      -0.303051        -8.2464 
  20   2.0000      -0.292717        -7.9652 
  21   2.0000      -0.285270        -7.7626 
  22   2.0000      -0.281452        -7.6587 
  23   0.0000      -0.001834        -0.0499 
  24   0.0000       0.007673         0.2088 
  25   0.0000       0.040610         1.1051 
  26   0.0000       0.047780         1.3002 
  27   0.0000       0.061679         1.6784 
  28   0.0000       0.073396         1.9972 
  29   0.0000       0.104628         2.8471 
  30   0.0000       0.113957         3.1009 
  31   0.0000       0.123673         3.3653 
  32   0.0000       0.129031         3.5111 
  33   0.0000       0.132145         3.5959 
*Only the first 10 virtual orbitals were printed.

                    ********************************
                    * MULLIKEN POPULATION ANALYSIS *
                    ********************************

-----------------------
MULLIKEN ATOMIC CHARGES
-----------------------
   0 C :   -0.260223
   1 C :   -0.216983
   2 C :   -0.197157
   3 C :   -0.086715
   4 C :   -0.273582
   5 N :    0.054751
   6 H :    0.099354
   7 H :    0.110253
   8 H :    0.103674
   9 H :    0.118607
  10 H :    0.087229
  11 H :    0.107852
  12 H :    0.098394
  13 H :    0.124648
  14 H :    0.129896
Sum of atomic charges:   -0.0000000

--------------------------------
MULLIKEN REDUCED ORBITAL CHARGES
--------------------------------
  0 C s       :     3.081479  s :     3.081479
      pz      :     1.061676  p :     3.149452
      px      :     1.027202
      py      :     1.060574
      dz2     :     0.003260  d :     0.029292
      dxz     :     0.005881
      dyz     :     0.008658
      dx2y2   :     0.003945
      dxy     :     0.007548

  1 C s       :     3.084723  s :     3.084723
      pz      :     1.028390  p :     3.095409
      px      :     1.024079
      py      :     1.042940
      dz2     :     0.005405  d :     0.036850
      dxz     :     0.006739
      dyz     :     0.010364
      dx2y2   :     0.005586
      dxy     :     0.008756

  2 C s       :     3.090245  s :     3.090245
      pz      :     1.065628  p :     3.070500
      px      :     0.973637
      py      :     1.031235
      dz2     :     0.006061  d :     0.036411
      dxz     :     0.006156
      dyz     :     0.010030
      dx2y2   :     0.005629
      dxy     :     0.008536

  3 C s       :     2.887258  s :     2.887258
      pz      :     1.053934  p :     3.161044
      px      :     1.010975
      py      :     1.096136
      dz2     :     0.005159  d :     0.038413
      dxz     :     0.007018
      dyz     :     0.010005
      dx2y2   :     0.006577
      dxy     :     0.009654

  4 C s       :     3.149829  s :     3.149829
      pz      :     0.974887  p :     3.077981
      px      :     1.033980
      py      :     1.069115
      dz2     :     0.004358  d :     0.045772
      dxz     :     0.006652
      dyz     :     0.010194
      dx2y2   :     0.015490
      dxy     :     0.009078

  5 N s       :     3.533037  s :     3.533037
      pz      :     1.059794  p :     3.381051
      px      :     1.147159
      py      :     1.174098
      dz2     :     0.003474  d :     0.031161
      dxz     :     0.004304
      dyz     :     0.005735
      dx2y2   :     0.009285
      dxy     :     0.008363

  6 H s       :     0.900646  s :     0.900646

  7 H s       :     0.889747  s :     0.889747

  8 H s       :     0.896326  s :     0.896326

  9 H s       :     0.881393  s :     0.881393

 10 H s       :     0.912771  s :     0.912771

 11 H s       :     0.892148  s :     0.892148

 12 H s       :     0.901606  s :     0.901606

 13 H s       :     0.875352  s :     0.875352

 14 H s       :     0.870104  s :     0.870104


------------------------
MULLIKEN OVERLAP CHARGES
------------------------
B(  0-C ,  1-C ) :   0.9019 B(  0-C ,  2-C ) :  -0.1150 B(  0-C ,  6-H ) :   0.7599 
B(  0-C ,  7-H ) :   0.7397 B(  0-C ,  8-H ) :   0.7604 B(  1-C ,  2-C ) :   0.8973 
B(  1-C ,  3-C ) :  -0.1133 B(  1-C ,  9-H ) :   0.7351 B(  1-C , 10-H ) :   0.7177 
B(  1-C , 11-H ) :  -0.0537 B(  2-C ,  3-C ) :   0.8275 B(  2-C ,  4-C ) :  -0.0908 
B(  2-C ,  9-H ) :  -0.0568 B(  2-C , 10-H ) :  -0.0632 B(  2-C , 11-H ) :   0.7165 
B(  2-C , 12-H ) :   0.6989 B(  3-C ,  4-C ) :   0.6804 B(  3-C ,  5-N ) :  -0.0879 
B(  3-C , 13-H ) :   0.6590 B(  3-C , 14-H ) :   0.6231 B(  4-C ,  5-N ) :   1.8799 
B(  6-H ,  8-H ) :  -0.0530 B(  9-H , 10-H ) :  -0.0646 B( 11-H , 12-H ) :  -0.0596 



                     *******************************
                     * LOEWDIN POPULATION ANALYSIS *
                     *******************************

----------------------
LOEWDIN ATOMIC CHARGES
----------------------
   0 C :   -0.338736
   1 C :   -0.237465
   2 C :   -0.214071
   3 C :   -0.241073
   4 C :   -0.057793
   5 N :   -0.069724
   6 H :    0.117425
   7 H :    0.123226
   8 H :    0.120317
   9 H :    0.125751
  10 H :    0.116477
  11 H :    0.126166
  12 H :    0.122121
  13 H :    0.152541
  14 H :    0.154838

-------------------------------
LOEWDIN REDUCED ORBITAL CHARGES
-------------------------------
  0 C s       :     2.944346  s :     2.944346
      pz      :     1.123439  p :     3.323588
      px      :     1.081611
      py      :     1.118539
      dz2     :     0.008184  d :     0.070802
      dxz     :     0.013775
      dyz     :     0.020721
      dx2y2   :     0.009750
      dxy     :     0.018372

  1 C s       :     2.907172  s :     2.907172
      pz      :     1.077006  p :     3.241835
      px      :     1.068520
      py      :     1.096309
      dz2     :     0.012817  d :     0.088458
      dxz     :     0.016765
      dyz     :     0.025244
      dx2y2   :     0.012794
      dxy     :     0.020838

  2 C s       :     2.912243  s :     2.912243
      pz      :     1.094273  p :     3.214244
      px      :     1.023972
      py      :     1.095998
      dz2     :     0.014159  d :     0.087585
      dxz     :     0.015306
      dyz     :     0.024249
      dx2y2   :     0.013213
      dxy     :     0.020657

  3 C s       :     2.892150  s :     2.892150
      pz      :     1.105908  p :     3.254111
      px      :     1.064758
      py      :     1.083445
      dz2     :     0.012424  d :     0.094812
      dxz     :     0.015175
      dyz     :     0.025228
      dx2y2   :     0.016201
      dxy     :     0.025784

  4 C s       :     2.913831  s :     2.913831
      pz      :     0.946135  p :     3.032721
      px      :     1.020305
      py      :     1.066281
      dz2     :     0.012027  d :     0.111240
      dxz     :     0.014880
      dyz     :     0.021830
      dx2y2   :     0.032851
      dxy     :     0.029652

  5 N s       :     3.418533  s :     3.418533
      pz      :     1.081300  p :     3.597004
      px      :     1.224314
      py      :     1.291390
      dz2     :     0.006691  d :     0.054187
      dxz     :     0.006753
      dyz     :     0.009037
      dx2y2   :     0.013557
      dxy     :     0.018149

  6 H s       :     0.882575  s :     0.882575

  7 H s       :     0.876774  s :     0.876774

  8 H s       :     0.879683  s :     0.879683

  9 H s       :     0.874249  s :     0.874249

 10 H s       :     0.883523  s :     0.883523

 11 H s       :     0.873834  s :     0.873834

 12 H s       :     0.877879  s :     0.877879

 13 H s       :     0.847459  s :     0.847459

 14 H s       :     0.845162  s :     0.845162


---------------------------------
LOEWDIN BOND ORDERS (THRESH 0.050000)
---------------------------------
B(  0-C ,  1-C ) :   1.1310 B(  0-C ,  2-C ) :   0.0571 B(  0-C ,  6-H ) :   0.9405 
B(  0-C ,  7-H ) :   0.9382 B(  0-C ,  8-H ) :   0.9405 B(  1-C ,  2-C ) :   1.0956 
B(  1-C ,  3-C ) :   0.0533 B(  1-C ,  9-H ) :   0.9018 B(  1-C , 10-H ) :   0.9066 
B(  2-C ,  3-C ) :   1.0639 B(  2-C ,  4-C ) :   0.0710 B(  2-C , 11-H ) :   0.9039 
B(  2-C , 12-H ) :   0.9006 B(  3-C ,  4-C ) :   1.1513 B(  3-C ,  5-N ) :   0.1239 
B(  3-C , 13-H ) :   0.8730 B(  3-C , 14-H ) :   0.8719 B(  4-C ,  5-N ) :   3.1901 


------------------------------------------
LOEWDIN REDUCED ORBITAL POPULATIONS PER MO
-------------------------------------------
THRESHOLD FOR PRINTING IS 0.1%%
                      0         1         2         3         4         5   
                 -13.97531  -9.93539  -9.92425  -9.91109  -9.89761  -9.88323
                   2.00000   2.00000   2.00000   2.00000   2.00000   2.00000
                  --------  --------  --------  --------  --------  --------
 0 C  s               0.0       0.0       0.0       0.0       0.0      99.7
 1 C  s               0.0       0.0       0.0       0.0      99.6       0.0
 2 C  s               0.0       0.0       0.0      99.6       0.0       0.0
 3 C  s               0.0      99.6       0.0       0.0       0.0       0.0
 4 C  s               0.0       0.0      99.3       0.0       0.0       0.0
 4 C  dxy             0.1       0.0       0.0       0.0       0.0       0.0
 5 N  s              99.7       0.0       0.1       0.0       0.0       0.0
 5 N  px              0.0       0.0       0.1       0.0       0.0       0.0
 5 N  py              0.0       0.0       0.2       0.0       0.0       0.0

                      6         7         8         9        10        11   
                  -0.81328  -0.74866  -0.68860  -0.60157  -0.53786  -0.47189
                   2.00000   2.00000   2.00000   2.00000   2.00000   2.00000
                  --------  --------  --------  --------  --------  --------
 0 C  s               0.0       3.9      18.8      17.2       6.4       0.0
 0 C  pz              0.0       0.0       0.1       0.0       2.0       0.6
 0 C  px              0.0       1.2       1.3       1.1       5.0       0.2
 0 C  py              0.0       0.2       0.2       0.3       0.4       0.7
 1 C  s               0.3      12.5      16.2       0.5      13.9       0.1
 1 C  pz              0.1       1.4       0.1       1.1       7.0       2.3
 1 C  px              0.1       0.2       2.7       6.6       2.4       1.0
 1 C  py              0.0       0.3       0.4       2.6       0.0       3.3
 1 C  dxz             0.0       0.0       0.0       0.1       0.0       0.0
 2 C  s               1.2      20.8       0.1      15.8       5.6       0.2
 2 C  pz              0.1       1.2       0.6       0.2      10.2       1.8
 2 C  px              0.5       0.5       6.4       1.1       0.1       0.4
 2 C  py              0.0       0.0       1.7       0.0       1.7      15.0
 2 C  dxz             0.0       0.0       0.1       0.0       0.0       0.0
 3 C  s               5.2      17.3      14.2       4.5       0.0       1.7
 3 C  pz              0.1       0.1       0.0       0.8       3.8       0.3
 3 C  px              0.6       1.8       0.8       9.4       2.4       3.9
 3 C  py              1.6       0.4       0.1       0.1       0.3      29.4
 3 C  dz2             0.0       0.0       0.0       0.0       0.0       0.2
 3 C  dxy             0.0       0.0       0.0       0.2       0.1       0.1
 4 C  s              30.3       0.2       1.5       2.3       0.6       4.5
 4 C  pz              0.4       0.6       0.5       0.2       0.1       1.5
 4 C  px              3.2       5.7       3.2       1.3       0.6       5.2
 4 C  py              4.7       6.2       5.5       4.9       0.9       1.7
 4 C  dz2             0.3       0.0       0.0       0.0       0.0       0.0
 4 C  dyz             0.1       0.0       0.0       0.0       0.0       0.0
 4 C  dxy             1.1       0.0       0.0       0.0       0.0       0.0
 5 N  s              37.3       4.2       1.3       0.6       0.2       1.4
 5 N  pz              0.5       0.0       0.0       0.0       0.0       0.2
 5 N  px              3.9       0.3       0.1       0.1       0.0       0.6
 5 N  py              5.4       0.5       0.2       0.2       0.0       0.3
 5 N  dxy             0.3       0.0       0.0       0.0       0.0       0.0
 6 H  s               0.0       0.7       3.8       4.6       4.0       0.1
 7 H  s               0.0       0.6       3.7       5.7       2.3       0.0
 8 H  s               0.0       0.7       3.8       4.6       3.9       0.4
 9 H  s               0.1       2.2       2.9       0.1       8.0       0.4
10 H  s               0.1       2.3       3.1       0.1       7.9       2.5
11 H  s               0.2       3.7       0.0       4.4       4.1       5.0
12 H  s               0.2       3.7       0.0       5.1       4.8       1.6
13 H  s               0.8       3.3       3.0       1.7       0.3       9.8
14 H  s               0.8       3.0       3.4       1.9       0.3       3.3

                     12        13        14        15        16        17   
                  -0.43109  -0.41643  -0.40454  -0.36428  -0.34463  -0.32161
                   2.00000   2.00000   2.00000   2.00000   2.00000   2.00000
                  --------  --------  --------  --------  --------  --------
 0 C  s               0.2       0.2       0.1       0.0       0.0       0.4
 0 C  pz              2.1       0.2       9.8      20.4       4.1       1.5
 0 C  px              3.1       0.3       9.4       0.4       1.9      24.9
 0 C  py              0.5      15.2       1.3       5.8      17.1       3.5
 0 C  dyz             0.0       0.0       0.1       0.0       0.2       0.0
 0 C  dx2y2           0.0       0.0       0.0       0.0       0.0       0.1
 0 C  dxy             0.0       0.0       0.0       0.1       0.0       0.1
 1 C  s               1.2       0.3       0.2       0.2       0.0       0.1
 1 C  pz              2.2       0.7      12.0       2.5       0.0       3.1
 1 C  px              0.4       7.5       0.2       1.9       0.5      22.6
 1 C  py              5.4      10.6       5.6       2.5       0.2       3.3
 1 C  dz2             0.0       0.1       0.0       0.0       0.0       0.2
 1 C  dx2y2           0.0       0.0       0.0       0.0       0.2       0.2
 1 C  dxy             0.0       0.0       0.0       0.0       0.1       0.2
 2 C  s               0.2       0.0       0.1       0.4       0.0       0.2
 2 C  pz              5.8       0.8       0.2      11.8       4.1       0.0
 2 C  px              0.9      15.1       7.5       3.2       2.4       1.9
 2 C  py              0.2       0.5       4.0       1.7      18.1       2.3
 2 C  dz2             0.0       0.0       0.0       0.0       0.1       0.3
 2 C  dxz             0.1       0.1       0.0       0.1       0.0       0.0
 2 C  dyz             0.0       0.0       0.0       0.0       0.4       0.0
 2 C  dx2y2           0.0       0.0       0.1       0.1       0.0       0.1
 2 C  dxy             0.0       0.1       0.0       0.3       0.1       0.1
 3 C  s               0.2       0.4       0.0       0.4       0.1       0.7
 3 C  pz             32.4       0.5       3.9       5.9       1.6       0.0
 3 C  px              2.7      14.9       4.3       1.4       0.0       4.5
 3 C  py              3.4       0.3      10.6       0.0       2.6       1.0
 3 C  dz2             0.0       0.0       0.1       0.0       0.1       0.0
 3 C  dxz             0.1       0.0       0.0       0.2       0.0       0.0
 3 C  dyz             0.1       0.1       0.0       0.0       0.1       0.0
 3 C  dx2y2           0.0       0.0       0.0       0.0       0.1       0.0
 3 C  dxy             0.1       0.3       0.0       0.2       0.2       0.0
 4 C  s               0.7       2.2       0.1       0.8       1.1       0.0
 4 C  pz              5.0       1.1       1.5       2.6       1.9       0.0
 4 C  px              2.5       0.6       1.9       0.1       0.1       5.4
 4 C  py              0.3       4.6       1.3       2.4       0.2       3.6
 5 N  s               0.2       0.5       0.0       0.4       0.5       0.1
 5 N  pz              0.9       0.2       0.4       1.0       1.2       0.0
 5 N  px              0.4       0.2       0.5       0.0       0.2       3.3
 5 N  py              0.1       1.1       0.3       1.3       0.4       3.6
 5 N  dx2y2           0.0       0.0       0.0       0.0       0.0       0.1
 6 H  s               2.1       2.0       1.5       7.0       5.5       1.7
 7 H  s               0.0       2.8       5.2       9.2       0.1       2.2
 8 H  s               0.2       2.9       3.7       1.5      10.5       1.4
 9 H  s               2.8       5.4       0.5       0.2       0.0       1.8
10 H  s               0.2       1.9       5.8       0.0       0.0       2.8
11 H  s               1.1       0.0       0.7       2.4      12.1       1.5
12 H  s               0.1       3.9       0.0       7.5       7.5       0.0
13 H  s               4.0       1.6       5.9       1.1       4.2       0.1
14 H  s              17.7       0.6       0.7       2.6       0.0       0.7

                     18        19        20        21        22        23   
                  -0.31080  -0.30305  -0.29272  -0.28527  -0.28145  -0.00183
                   2.00000   2.00000   2.00000   2.00000   2.00000   0.00000
                  --------  --------  --------  --------  --------  --------
 0 C  s               0.0       0.0       0.0       0.1       0.1       0.6
 0 C  pz             11.8       2.9       0.0       0.0       0.5       0.1
 0 C  px              0.0       3.3       0.1       0.9       0.9       0.3
 0 C  py              2.7       5.7       0.1       0.1       2.1       0.0
 0 C  dxz             0.3       0.0       0.0       0.0       0.1       0.1
 0 C  dyz             0.1       0.5       0.0       0.0       0.0       0.0
 0 C  dxy             0.3       0.1       0.0       0.0       0.1       0.0
 1 C  s               0.1       0.0       0.0       0.1       0.0       1.6
 1 C  pz             14.3       5.0       0.0       0.6       1.4       0.7
 1 C  px              0.1       5.8       0.3       0.5       0.5       0.1
 1 C  py              3.9      11.4       0.6       0.0       4.5       0.0
 1 C  dz2             0.0       0.2       0.0       0.0       0.1       0.0
 1 C  dxz             0.4       0.0       0.0       0.0       0.1       0.0
 1 C  dyz             0.1       0.9       0.0       0.0       0.0       0.1
 1 C  dxy             0.4       0.1       0.0       0.1       0.0       0.0
 2 C  s               0.8       0.0       0.0       0.3       0.0       6.9
 2 C  pz             12.7       3.1       0.0       1.4       0.6       0.2
 2 C  px              0.4       2.4       0.4       3.4       4.5       1.0
 2 C  py              4.3       2.5       0.9       0.1       1.8       1.1
 2 C  dz2             0.0       0.1       0.0       0.0       0.0       0.1
 2 C  dxz             0.1       0.0       0.0       0.0       0.1       0.0
 2 C  dyz             0.0       0.5       0.1       0.0       0.0       0.0
 2 C  dxy             0.1       0.0       0.0       0.1       0.0       0.1
 3 C  s               0.0       0.0       0.2       0.1       0.1       1.6
 3 C  pz              0.0       0.4       0.0       3.9       1.7       0.2
 3 C  px              0.0       0.1       1.0       1.3       4.0       1.2
 3 C  py              0.0       0.1       1.7       1.2       1.3       0.9
 3 C  dz2             0.0       0.0       0.0       0.0       0.0       0.1
 3 C  dxz             0.1       0.0       0.0       0.1       0.1       0.7
 3 C  dyz             0.0       0.1       0.0       0.3       0.4       0.0
 3 C  dx2y2           0.0       0.0       0.0       0.2       0.2       1.7
 3 C  dxy             0.0       0.0       0.0       0.1       0.0       0.1
 4 C  s               0.2       0.2       1.6       0.0       0.0       0.2
 4 C  pz              4.8       0.0       0.7      19.8       6.6       2.3
 4 C  px              2.9       0.2       3.7       2.8      11.4      10.5
 4 C  py              0.4       0.1       5.6       6.3       4.8      11.9
 4 C  dz2             0.0       0.0       0.0       0.1       0.1       0.2
 4 C  dxz             0.0       0.0       0.0       0.5       0.0       0.2
 4 C  dyz             0.0       0.0       0.0       0.4       0.4       0.0
 4 C  dx2y2           0.0       0.0       0.0       0.5       0.9       2.4
 5 N  s               0.6       1.2      22.4       0.2       0.0       0.1
 5 N  pz              3.7       0.1       6.3      28.5      11.1       2.7
 5 N  px              5.4       1.6      21.8       2.3      20.3      13.3
 5 N  py              0.0       1.0      27.8      14.9       7.5      11.8
 5 N  dxz             0.0       0.0       0.1       0.2       0.0       0.1
 5 N  dyz             0.0       0.0       0.1       0.1       0.1       0.0
 5 N  dx2y2           0.0       0.0       0.0       0.2       0.2       0.6
 5 N  dxy             0.0       0.0       0.4       0.0       0.0       0.0
 6 H  s               4.8       5.0       0.2       0.1       1.0       0.9
 7 H  s               8.8       0.9       0.0       0.1       2.1       0.4
 8 H  s               1.4       8.8       0.1       0.0       0.1       0.3
 9 H  s               7.2       9.3       0.9       0.6       1.1       0.7
10 H  s               1.7      15.2       0.3       0.2       0.2       2.6
11 H  s               0.6       6.3       0.5       0.8       0.0       2.1
12 H  s               3.6       3.3       1.3       1.1       0.0       6.9
13 H  s               0.0       0.7       0.6       4.9       0.5       6.2
14 H  s               0.1       0.4       0.0       0.5       6.3       3.9

                     24        25        26        27        28        29   
                   0.00767   0.04061   0.04778   0.06168   0.07340   0.10463
                   0.00000   0.00000   0.00000   0.00000   0.00000   0.00000
                  --------  --------  --------  --------  --------  --------
 0 C  s               0.3       2.2      15.6       0.5       0.2       3.6
 0 C  pz              0.0       0.8       0.1       2.1       1.3       5.0
 0 C  px              0.0       1.7       0.8       0.6       0.5       1.5
 0 C  py              0.1       0.1       0.5       1.1       4.2       0.6
 0 C  dz2             0.0       0.0       0.0       0.0       0.0       0.1
 0 C  dxz             0.0       0.0       0.0       0.0       0.2       0.0
 0 C  dyz             0.0       0.0       0.0       0.2       0.0       0.2
 0 C  dxy             0.0       0.1       0.0       0.0       0.1       0.1
 1 C  s               0.1       3.0       1.8       1.7       3.7       1.0
 1 C  pz              0.1       1.5       0.1       3.1       1.7       2.3
 1 C  px              0.4       0.0       1.0       0.1       1.3       0.1
 1 C  py              0.2       0.1       0.2       2.8       2.5       0.2
 1 C  dz2             0.0       0.3       0.1       0.4       0.0       0.4
 1 C  dxz             0.0       0.0       0.1       0.0       0.3       0.0
 1 C  dyz             0.0       0.1       0.1       0.2       0.2       0.1
 1 C  dx2y2           0.1       0.0       0.2       0.0       0.0       0.0
 1 C  dxy             0.0       0.0       0.2       0.0       0.2       0.0
 2 C  s               0.1       1.3       0.1       2.2       1.2       2.1
 2 C  pz              0.4       3.3       0.6       3.6       0.6       1.1
 2 C  px              0.0       4.2       1.1       0.3       2.4       1.8
 2 C  py              0.1       0.2       0.1       3.7       4.9       0.1
 2 C  dz2             0.1       0.0       0.2       0.5       0.0       0.1
 2 C  dxz             0.1       0.1       0.1       0.0       0.1       0.3
 2 C  dyz             0.0       0.0       0.3       0.3       0.2       0.0
 2 C  dx2y2           0.0       0.2       0.1       0.1       0.1       0.3
 2 C  dxy             0.0       0.1       0.2       0.0       0.2       0.0
 3 C  s               0.0       6.6       9.8       0.2       0.5       0.7
 3 C  pz              1.7       0.1       0.0       4.3       1.7       5.6
 3 C  px              0.4       1.6       0.1       0.4       0.4       1.9
 3 C  py              0.0       0.9       2.0       0.7       0.3       3.9
 3 C  dz2             0.2       0.0       0.0       0.1       0.0       0.2
 3 C  dxz             0.1       0.0       0.0       0.2       0.0       0.2
 3 C  dyz             2.3       0.0       0.1       0.1       0.0       0.0
 3 C  dx2y2           0.1       0.7       0.0       0.0       0.0       0.0
 3 C  dxy             0.2       0.0       0.0       0.1       0.2       0.1
 4 C  s               0.0       1.8       0.6       0.6       2.4       0.7
 4 C  pz             30.0       1.7       0.2       2.1       0.6       1.9
 4 C  px              5.3       7.6       0.6       0.1       0.2       0.8
 4 C  py              0.1       5.1       0.0       0.4       0.5       0.6
 4 C  dz2             0.4       0.1       0.2       0.0       0.2       0.0
 4 C  dxz             1.0       0.3       0.0       0.0       0.1       0.0
 4 C  dyz             1.4       0.1       0.0       0.0       0.1       0.0
 4 C  dx2y2           0.3       0.3       0.0       0.0       0.1       0.0
 4 C  dxy             0.2       0.7       0.3       0.1       0.5       0.1
 5 N  s               0.0       0.5       0.2       0.2       0.8       0.1
 5 N  pz             30.1       1.1       0.2       1.9       0.3       1.6
 5 N  px              5.2       4.2       0.1       0.0       0.8       0.5
 5 N  py              0.1       5.9       0.3       0.1       0.0       0.0
 5 N  dz2             0.1       0.0       0.0       0.0       0.0       0.0
 5 N  dxz             0.3       0.1       0.0       0.0       0.0       0.0
 5 N  dyz             0.5       0.0       0.0       0.0       0.0       0.0
 5 N  dx2y2           0.1       0.4       0.0       0.0       0.0       0.0
 6 H  s               0.2       3.7       8.5       2.3      12.7       0.4
 7 H  s               0.0       0.9      11.1       3.6       2.9      24.6
 8 H  s               0.0       2.7      13.4       4.5       0.2       0.1
 9 H  s               0.1       2.5       2.7       0.2      20.7       1.6
10 H  s               0.4       5.6       0.2      19.5       1.6       2.3
11 H  s               0.1       5.7       1.6      23.8       0.3       3.0
12 H  s               0.1       5.3       0.1       0.2      22.5       3.8
13 H  s               6.5       5.7      14.0       6.2       2.9       0.6
14 H  s              10.2       8.6      10.2       4.3       0.2      23.5

                     30        31        32        33        34        35   
                   0.11396   0.12367   0.12903   0.13215   0.15613   0.18573
                   0.00000   0.00000   0.00000   0.00000   0.00000   0.00000
                  --------  --------  --------  --------  --------  --------
 0 C  s               5.3       0.1       0.1       0.1       1.8       0.6
 0 C  pz              6.0       5.2       2.2       0.5       0.9       0.0
 0 C  px              1.4       0.1       0.5       3.3       5.6      10.3
 0 C  py              0.5       3.8       0.4      14.1       0.6       2.6
 0 C  dz2             0.1       0.1       0.0       0.4       0.3       2.0
 0 C  dxz             0.4       0.3       0.0       0.1       0.2       0.0
 0 C  dyz             0.6       0.1       0.1       0.8       0.1       0.1
 0 C  dx2y2           0.0       0.2       0.5       0.0       0.8       0.7
 0 C  dxy             0.0       0.4       0.4       0.1       0.2       1.2
 1 C  s               4.6       6.9       0.0       0.9       3.3       4.8
 1 C  pz              0.9       0.2       0.5       0.0       2.9      15.9
 1 C  px              0.9       2.4       2.3       0.2       1.3       2.8
 1 C  py              0.6       0.2      12.5       0.8       2.1       1.1
 1 C  dz2             0.0       0.0       0.1       0.1       0.1       0.2
 1 C  dxz             0.3       0.8       0.0       0.4       0.5       0.1
 1 C  dyz             0.3       0.3       0.0       0.0       0.3       0.4
 1 C  dx2y2           0.0       0.0       0.1       0.8       0.3       1.2
 1 C  dxy             0.1       0.1       0.2       0.3       0.4       2.4
 2 C  s               2.6       7.9       0.1       0.3       0.6       5.6
 2 C  pz              0.8       1.3       0.1       0.1       1.2       7.1
 2 C  px              0.4       0.6       4.2       1.4       4.4       0.4
 2 C  py              0.0       0.6       4.4       5.6       0.1       2.1
 2 C  dz2             0.0       0.0       0.0       0.3       0.1       0.1
 2 C  dxz             0.4       0.4       0.2       0.4       0.4       0.8
 2 C  dyz             0.2       0.4       0.0       0.2       0.1       0.5
 2 C  dx2y2           0.1       0.0       0.1       0.2       1.6       0.5
 2 C  dxy             0.1       0.3       0.3       0.2       0.1       1.0
 3 C  s               2.3       0.0       0.1       0.2       2.2       1.5
 3 C  pz              4.1       5.0       0.0       1.2       0.8       2.2
 3 C  px              1.1       0.7       1.1       0.1       1.3       1.2
 3 C  py              1.1       0.0       0.8       1.1      15.4       3.6
 3 C  dz2             0.0       0.1       0.1       0.2       1.8       1.4
 3 C  dxz             0.2       0.1       0.1       0.0       1.2       0.0
 3 C  dyz             0.2       0.0       0.2       0.0       0.2       0.1
 3 C  dx2y2           0.0       0.0       0.1       0.0       0.2       0.0
 3 C  dxy             0.1       0.4       0.3       0.2       1.6       0.2
 4 C  s               0.0       0.2       1.5       0.3      15.6       4.7
 4 C  pz              1.3       1.4       0.2       0.6       0.3       0.0
 4 C  px              0.6       0.0       0.3       0.5       3.5       1.0
 4 C  py              0.4       0.5       0.5       0.1       1.5       0.4
 4 C  dz2             0.0       0.1       0.0       0.2       0.8       0.2
 4 C  dxz             0.0       0.0       0.0       0.0       0.3       0.0
 4 C  dyz             0.0       0.0       0.0       0.0       0.9       0.1
 4 C  dxy             0.0       0.0       0.3       0.1       4.8       1.7
 5 N  s               0.0       0.0       0.4       0.2       2.4       0.8
 5 N  pz              0.7       0.8       0.0       0.3       0.4       0.0
 5 N  px              0.4       0.0       0.2       0.2       1.2       0.6
 5 N  py              0.0       0.2       0.0       0.0       1.0       0.2
 6 H  s               3.4       6.7       0.2      27.0       0.1       0.5
 7 H  s               1.7      17.3       2.1       0.0       1.4       1.7
 8 H  s              21.7       0.2       5.2      16.1       0.1       0.6
 9 H  s               0.4       8.7      19.8       0.0       2.5       5.5
10 H  s              10.8       2.7      16.5       2.2       1.9       1.3
11 H  s               4.2       6.9       6.0       7.1       0.9       0.3
12 H  s               1.6       3.9      13.7       8.5       0.1       0.9
13 H  s              16.4       4.3       0.3       1.3       3.3       2.1
14 H  s               0.4       6.6       0.7       0.9       1.8       2.6

                     36        37        38        39        40        41   
                   0.19567   0.19950   0.25039   0.37829   0.38923   0.39409
                   0.00000   0.00000   0.00000   0.00000   0.00000   0.00000
                  --------  --------  --------  --------  --------  --------
 0 C  s               0.8       0.2       0.0       1.4       0.6       0.0
 0 C  pz              3.9       2.9       0.7       0.4      13.6       0.2
 0 C  px              4.7       5.8       4.5      13.7       4.2       1.9
 0 C  py              1.4       1.0       0.1       1.6       2.5      17.9
 0 C  dz2             0.1       0.0       0.0       0.3       0.2       1.4
 0 C  dxz             1.1       0.5       0.1       1.4       0.0       1.6
 0 C  dyz             0.0       0.0       0.1       1.6       2.1       2.1
 0 C  dx2y2           0.5       0.4       0.8       0.1       1.5       0.2
 0 C  dxy             0.1       0.5       0.6       0.2       1.5       2.0
 1 C  s               0.0       0.1       0.7       0.5       0.1       0.3
 1 C  pz              0.2       5.1       0.2       5.8       1.5       2.2
 1 C  px             11.2       8.3       2.0       4.2      12.5       0.9
 1 C  py              2.3       2.7       2.4       2.6       1.1       6.3
 1 C  dz2             0.0       2.0       0.2       0.6       0.1       1.2
 1 C  dxz             1.3       0.6       0.1       0.1       1.4       0.8
 1 C  dyz             0.5       1.3       0.0       1.7       1.9       1.0
 1 C  dx2y2           0.8       0.3       0.0       1.2       0.1       0.1
 1 C  dxy             0.0       0.0       0.0       1.3       0.1       3.4
 2 C  s               2.5       0.2       0.0       0.6       0.7       0.4
 2 C  pz             11.9       2.8       0.5       1.0       4.4       4.1
 2 C  px              2.6      15.4       0.1       1.4       5.8       1.2
 2 C  py              1.0       5.4       1.3       6.4       3.2       1.1
 2 C  dz2             0.3       1.8       0.2       1.6       0.1       0.1
 2 C  dxz             0.3       1.1       0.2       0.1       1.0       0.0
 2 C  dyz             0.4       1.7       0.2       0.6       0.5       1.3
 2 C  dx2y2           0.5       0.7       0.7       0.4       0.2       0.1
 2 C  dxy             2.0       0.6       0.1       0.3       0.1       0.0
 3 C  s               2.0       0.8       4.2       1.7       0.0       0.2
 3 C  pz              0.3       2.6       0.7       0.1       3.0       0.1
 3 C  px             10.1      14.2      10.5       9.3       0.2       1.3
 3 C  py              3.2       1.6      16.6       4.7       2.0       0.5
 3 C  dz2             0.5       0.0       1.9       0.5       0.9       0.2
 3 C  dxz             0.1       0.3       0.5       1.1       0.1       0.0
 3 C  dyz             0.1       0.3       0.6       0.7       1.0       0.0
 3 C  dx2y2           0.3       0.4       0.1       0.0       0.3       0.0
 3 C  dxy             1.5       1.9       3.0       0.3       0.6       0.0
 4 C  s               6.0       1.6      20.8       0.3       0.1       0.0
 4 C  pz              2.1       0.3       0.6       2.5       3.6       0.0
 4 C  px              1.1       0.6       4.5       1.2       2.1       0.2
 4 C  py              1.0       2.7       3.4       0.4       0.0       0.0
 4 C  dz2             0.9       0.2       0.2       0.2       0.2       0.0
 4 C  dxz             0.4       0.0       0.0       0.2       0.0       0.0
 4 C  dx2y2           0.1       0.1       0.0       0.0       0.0       0.0
 4 C  dxy             1.2       0.1       0.2       0.0       0.0       0.0
 5 N  s               1.5       0.2       3.7       0.0       0.1       0.1
 5 N  pz              0.4       0.3       0.0       0.1       0.2       0.0
 5 N  px              0.3       0.5       0.1       0.0       0.1       0.0
 5 N  py              1.1       1.1       0.0       0.1       0.1       0.0
 5 N  dx2y2           0.1       0.2       0.0       0.1       0.0       0.0
 6 H  s               1.2       0.6       1.3       0.6       0.6      14.0
 7 H  s               2.7       1.1       0.0       6.8       3.1       2.0
 8 H  s               3.1       0.7       0.0       0.6      10.0       7.8
 9 H  s               0.2       0.1       0.6       0.0       0.3      14.9
10 H  s               0.1       1.0       0.5       9.0       2.3       3.9
11 H  s               5.7       0.3       2.9       4.5       1.0       1.8
12 H  s               1.0       2.1       2.6       0.3       0.6       0.7
13 H  s               1.2       2.3       2.7       0.1       5.0       0.5
14 H  s               0.0       0.1       1.9       3.6       1.6       0.1

                     42        43        44        45        46        47   
                   0.41030   0.43983   0.48167   0.50605   0.54523   0.56897
                   0.00000   0.00000   0.00000   0.00000   0.00000   0.00000
                  --------  --------  --------  --------  --------  --------
 0 C  s               0.2       0.1       0.5       1.2       3.3       1.5
 0 C  pz              7.6       0.0       9.5       1.5       0.9       0.0
 0 C  px              0.6       4.9       0.6       5.0       9.3       8.1
 0 C  py              3.7       6.1       1.5       0.2       0.8       2.4
 0 C  dz2             0.8       0.4       0.2       0.1       0.1       0.1
 0 C  dxz             0.0       0.1       0.0       0.0       0.1       0.2
 0 C  dyz             0.0       1.0       1.5       0.1       0.5       0.0
 0 C  dx2y2           0.4       0.2       0.0       0.0       0.0       0.1
 0 C  dxy             1.1       0.1       0.6       0.0       0.0       0.0
 1 C  s               1.6       0.1       0.4       1.4       0.2      11.4
 1 C  pz             19.4       0.2       0.8       1.2       2.6      12.9
 1 C  px              0.1       2.2       0.6       1.8       3.0       0.5
 1 C  py              1.0       2.8       0.6       0.3       5.0       2.1
 1 C  dz2             0.9       0.5       0.0       0.0       0.1       0.0
 1 C  dxz             0.0       0.3       0.5       0.1       0.2       0.0
 1 C  dyz             1.1       0.5       0.3       0.0       0.2       0.0
 1 C  dx2y2           0.4       1.2       0.0       0.4       0.5       0.0
 1 C  dxy             0.3       0.0       0.1       0.5       0.1       0.1
 2 C  s               3.3       0.0       0.5       0.1       4.1       7.6
 2 C  pz             16.1       1.2       1.0       0.7       0.0       9.7
 2 C  px              5.3       2.4       2.4       4.1       1.1       3.3
 2 C  py              0.8       5.1       0.4       0.0       0.7       1.9
 2 C  dz2             0.6       1.2       0.0       0.0       0.1       0.1
 2 C  dxz             0.3       0.6       0.4       0.0       0.2       0.3
 2 C  dyz             0.9       3.3       0.2       0.0       0.1       0.1
 2 C  dx2y2           0.2       0.0       0.0       0.0       0.0       0.3
 2 C  dxy             1.3       0.6       0.3       0.3       0.0       0.2
 3 C  s               0.1       0.3       2.3       8.3       0.4       1.2
 3 C  pz              0.1       0.6       1.9       0.3       4.7       1.8
 3 C  px              1.8       1.1       2.3       4.7      18.1       0.8
 3 C  py              2.3       0.6       3.7      12.4       0.4       2.2
 3 C  dz2             0.9       0.0       0.2       0.5       0.1       0.1
 3 C  dxz             1.7       0.0       0.0       0.1       0.0       0.5
 3 C  dyz             0.2       0.1       0.9       0.0       0.0       0.3
 3 C  dx2y2           0.2       0.5       0.0       0.1       0.1       0.1
 3 C  dxy             0.1       0.0       0.2       0.1       0.0       0.0
 4 C  s               1.4       0.0       1.4      14.4       1.6       0.1
 4 C  pz              4.3       1.0      44.9       2.3       2.7       0.6
 4 C  px              1.5      23.0       0.4       7.2       1.6       0.3
 4 C  py              1.2      10.8       1.9       5.0      15.3       0.4
 4 C  dz2             0.0       0.0       0.3       1.1       0.0       0.1
 4 C  dxz             0.0       0.0       0.0       0.5       0.0       0.0
 4 C  dyz             0.0       0.0       0.0       0.6       0.0       0.0
 4 C  dx2y2           0.2       0.1       0.0       0.1       0.0       0.2
 4 C  dxy             0.0       0.0       0.2       2.8       0.4       0.0
 5 N  s               0.1       0.3       0.0       2.1       3.1       0.2
 5 N  pz              0.1       0.1       3.0       0.3       0.3       0.0
 5 N  px              0.4       1.2       0.1       1.9       0.4       0.1
 5 N  py              0.1       0.7       0.1       2.0       1.8       0.2
 5 N  dz2             0.0       0.0       0.2       0.2       0.1       0.0
 5 N  dxz             0.1       0.0       0.2       0.2       0.0       0.0
 5 N  dyz             0.0       0.0       0.2       0.3       0.0       0.0
 5 N  dx2y2           0.2       0.5       0.0       0.1       0.0       0.1
 5 N  dxy             0.0       0.0       0.2       1.1       0.3       0.0
 6 H  s               2.4       2.0       0.6       0.2       0.9       0.6
 7 H  s               1.3       0.0       2.0       0.4       4.9       0.0
 8 H  s               0.0       1.2       2.6       0.0       0.2       0.6
 9 H  s               0.4       1.5       0.6       0.6       0.5       5.9
10 H  s               1.9       1.0       0.5       0.3       0.0       5.8
11 H  s               2.0       8.5       0.6       0.4       1.6       3.1
12 H  s               3.6       7.8       0.1       0.7       5.7       4.3
13 H  s               0.1       1.5       5.2       2.8       0.1       0.0
14 H  s               3.1       0.2       0.1       6.6       1.2       7.9

                     48        49        50        51        52        53   
                   0.57582   0.59603   0.60631   0.61493   0.62913   0.63237
                   0.00000   0.00000   0.00000   0.00000   0.00000   0.00000
                  --------  --------  --------  --------  --------  --------
 0 C  s               0.7       5.1       8.1       0.8       2.4      11.5
 0 C  pz              2.7       0.4       2.3       5.2       1.7       0.1
 0 C  px              2.2       0.2       0.3       0.6       1.0       6.6
 0 C  py              1.2       2.7       1.8       0.9       0.8       0.7
 0 C  dz2             1.1       0.0       0.0       0.1       0.1       0.0
 0 C  dxz             0.4       0.1       0.1       0.3       0.0       0.2
 0 C  dyz             0.6       0.1       0.2       1.0       0.1       0.1
 0 C  dx2y2           0.1       0.1       0.5       0.2       0.0       0.0
 0 C  dxy             0.2       0.0       0.0       0.0       0.0       0.0
 1 C  s               1.1       2.7       8.1       1.5       0.9       0.1
 1 C  pz              0.0       0.6       5.6       0.3       1.2       1.2
 1 C  px              5.5      17.2       0.5       0.9       1.9       2.1
 1 C  py              2.0       5.4       5.5       0.6       0.9       0.2
 1 C  dz2             0.0       0.1       0.0       0.1       0.1       0.0
 1 C  dyz             0.1       0.1       0.2       0.8       0.1       0.1
 1 C  dx2y2           0.0       0.0       0.1       0.0       0.0       0.0
 1 C  dxy             0.0       0.2       0.2       0.0       0.0       0.0
 2 C  s               2.4       0.7      11.1       4.8       2.3       3.9
 2 C  pz              2.3       0.1       4.3       0.8       0.7      13.3
 2 C  px              1.4       0.4       5.2       2.6       6.1       4.1
 2 C  py              0.6       2.3       0.6       1.7       0.5       0.5
 2 C  dz2             0.6       0.0       0.1       0.2       0.0       0.2
 2 C  dxz             0.7       0.2       0.2       0.5       0.2       0.2
 2 C  dyz             0.0       0.3       0.3       0.0       0.2       0.0
 2 C  dx2y2           1.0       0.4       0.0       0.1       0.2       0.0
 2 C  dxy             1.3       0.0       0.0       0.4       0.1       0.0
 3 C  s               1.6       0.0       8.2       9.6       1.1       2.2
 3 C  pz              8.0       1.1       0.9       4.1      29.1       1.5
 3 C  px              7.4       8.1       0.5       1.9       6.8       0.1
 3 C  py              0.8       1.8       8.0      16.8       0.7       0.6
 3 C  dz2             1.0       0.0       0.0       0.0       0.1       0.1
 3 C  dxz             0.0       0.1       0.0       0.2       0.0       0.0
 3 C  dyz             1.1       1.0       0.3       0.5       1.6       0.6
 3 C  dx2y2           0.6       0.1       0.2       0.0       0.0       0.0
 3 C  dxy             0.9       0.0       0.1       0.1       0.3       0.0
 4 C  s               0.6       3.4       2.9       0.8       0.0       4.9
 4 C  pz             13.4       5.0       0.1       1.2       0.3       0.2
 4 C  px              2.8       1.7       4.8       6.8       0.1       1.4
 4 C  py              4.5       9.4       0.0       0.1       0.0       2.5
 4 C  dxz             0.1       0.1       0.1       0.1       0.0       0.0
 4 C  dyz             0.0       0.1       0.0       0.0       0.4       0.0
 4 C  dxy             0.0       0.1       0.1       0.0       0.0       0.0
 5 N  s               0.1       2.9       0.2       1.7       0.0       8.7
 5 N  pz              6.8       3.1       0.1       1.5       0.2       0.2
 5 N  px              1.5       1.8       0.3       3.3       0.0       5.7
 5 N  py              2.0       4.4       0.0       0.0       0.0       9.8
 5 N  dz2             0.0       0.0       0.0       0.0       0.0       0.2
 5 N  dyz             0.0       0.0       0.0       0.0       0.0       0.1
 5 N  dxy             0.0       0.0       0.0       0.0       0.0       0.9
 6 H  s               1.0       1.3       2.4       2.6       0.2       0.4
 7 H  s               2.8       1.3       0.7       1.2       0.0       1.0
 8 H  s               1.2       1.2       2.2       0.1       0.1       1.5
 9 H  s               0.2       1.5       1.6       0.3       2.7       0.3
10 H  s               1.0       0.1       2.0       3.0       1.6       0.4
11 H  s               0.2       1.2       4.6       0.1       2.9       2.4
12 H  s               4.4       1.7       0.9       1.5       2.2       4.9
13 H  s               7.3       7.3       2.8       7.7       9.5       2.9
14 H  s               0.1       0.4       0.5      10.5      18.5       1.2

                     54        55        56        57        58        59   
                   0.64858   0.65616   0.66410   0.67041   0.67615   0.68020
                   0.00000   0.00000   0.00000   0.00000   0.00000   0.00000
                  --------  --------  --------  --------  --------  --------
 0 C  s               2.7       3.8       2.6       1.7      16.4       0.7
 0 C  pz              0.7       0.1       7.1       0.8       2.4      32.7
 0 C  px              0.7      13.7       0.7       0.9       7.9       1.3
 0 C  py              4.2      16.5       0.0       0.8      12.3       1.1
[...]
 3 C  py              0.0       0.0       0.0       0.2       0.1       0.1
 3 C  dz2             0.3       0.5       0.8       1.1       2.9       0.1
 3 C  dxz             0.2       0.3       0.6       0.0       2.5       2.8
 3 C  dyz             0.1       0.7       6.5       0.0       7.0       0.4
 3 C  dx2y2           1.5       0.1       0.6       1.6       9.0       3.5
 3 C  dxy             0.0       0.0       5.5       9.9       4.6       1.9
 4 C  s               0.1       0.0       0.3       0.1       0.2       0.1
 4 C  px              0.1       0.0       0.3       0.1       0.3       0.3
 4 C  py              0.0       0.0       1.0       0.5       0.0       0.1
 4 C  dz2             3.2       4.0       0.3       2.0       0.8       0.0
 4 C  dxz             1.2       4.7       0.1       1.0       1.7       0.1
 4 C  dyz             2.5       1.2       0.0       0.0       3.2       0.0
 4 C  dx2y2           0.8       0.1       0.0       0.3       0.0       0.0
 4 C  dxy             1.2       2.3       2.4       0.1       0.0       0.3
 5 N  s               0.0       0.0       1.1       0.2       0.1       0.2
 5 N  px              0.0       0.0       0.2       0.0       0.1       0.1
 5 N  py              0.0       0.0       0.4       0.3       0.0       0.0
 5 N  dz2            22.0      23.7       6.6       1.8       1.7       0.0
 5 N  dxz             8.1      27.7       0.3       1.1       7.2       0.2
 5 N  dyz            15.9       5.5       0.1       0.9       5.1       0.3
 5 N  dx2y2           5.9       1.1       0.4       2.7       0.3       3.1
 5 N  dxy             6.5      11.2       1.0       1.6       0.9       0.0
 6 H  s               0.2       0.5       0.6       0.3       0.8       0.2
 7 H  s               0.5       0.1       0.1       0.1       0.3       0.0
 8 H  s               0.4       0.2       0.0       1.2       0.1       0.2
 9 H  s               0.6       0.0       1.8       0.2       0.1       0.9
10 H  s               0.8       0.0       1.8       0.4       0.1       0.9
11 H  s               0.0       0.2       0.6       2.7       0.2       0.7
12 H  s               0.0       0.1       0.7       1.9       0.4       1.3
13 H  s               0.0       0.0       0.8       0.1       1.7       0.0
14 H  s               0.1       0.2       0.0       0.0       0.8       0.1

                     96        97        98        99       100       101   
                   2.52899   2.61478   2.88276   2.92214   2.96577   3.40996
                   0.00000   0.00000   0.00000   0.00000   0.00000   0.00000
                  --------  --------  --------  --------  --------  --------
 0 C  s               0.5       1.4       0.0       0.0       0.0       0.0
 0 C  pz              0.2       0.0       0.0       0.0       0.0       0.0
 0 C  px              1.1       1.9       0.0       0.0       0.0       0.0
 0 C  py              0.1       0.4       0.0       0.0       0.0       0.0
 0 C  dz2             0.5       3.7       0.0       0.0       0.0       0.0
 0 C  dxz             9.6       0.5       0.0       0.0       0.0       0.0
 0 C  dyz             1.4       0.2       0.0       0.0       0.0       0.0
 0 C  dx2y2           3.6       4.0       0.0       0.0       0.0       0.0
 0 C  dxy             0.7       4.5       0.0       0.0       0.0       0.0
 1 C  s               1.2       0.0       0.0       0.1       0.0       0.0
 1 C  pz              0.1       0.4       0.0       0.0       0.0       0.0
 1 C  px              0.3       3.5       0.0       0.0       0.0       0.0
 1 C  py              0.1       1.2       0.0       0.0       0.0       0.0
 1 C  dz2            10.4       5.6       0.0       0.0       0.1       0.0
 1 C  dxz             0.9      17.5       0.0       0.0       0.0       0.0
 1 C  dyz             0.0       7.6       0.0       0.0       0.0       0.0
 1 C  dx2y2           6.0       4.0       0.0       0.0       0.0       0.0
 1 C  dxy            11.9       0.1       0.0       0.0       0.0       0.0
 2 C  s               0.6       0.2       0.0       0.0       0.2       0.0
 2 C  pz              0.0       0.6       0.0       0.0       0.0       0.0
 2 C  px              0.6       2.8       0.1       0.0       0.1       0.1
 2 C  py              0.2       0.9       0.0       0.0       0.1       0.0
 2 C  dz2            14.2       3.1       0.0       0.0       0.2       0.0
 2 C  dxz             0.0      15.1       0.3       0.0       0.0       0.0
 2 C  dyz             0.7       6.9       0.0       0.1       0.1       0.0
 2 C  dx2y2           6.8       2.1       0.5       0.0       0.0       0.1
 2 C  dxy             6.3       0.1       0.0       0.0       2.0       0.0
 3 C  s               0.7       1.0       1.3       0.0       0.1       1.3
 3 C  pz              0.1       0.0       0.2       0.1       0.0       0.1
 3 C  px              1.3       0.9       1.4       0.0       0.1       0.8
 3 C  py              0.2       0.4       1.3       0.0       0.1       0.9
 3 C  dz2             1.1       3.1       1.0       0.9       0.0       0.4
 3 C  dxz             7.1       0.0       0.7       1.6       1.3       0.2
 3 C  dyz             1.7       0.0       1.1       3.6       0.0       0.3
 3 C  dx2y2           2.3       1.6       0.3       0.0       9.6       0.1
 3 C  dxy             1.4       2.1       8.1       0.6       0.0       2.4
 4 C  s               0.0       0.1       1.0       0.0       0.0      14.6
 4 C  pz              0.0       0.0       0.3       1.3       0.0       0.3
 4 C  px              0.1       0.1       1.9       0.1       0.5       2.7
 4 C  py              0.0       0.0       2.7       0.0       0.6       3.4
 4 C  dz2             0.1       0.2       5.0       4.6       0.2       5.1
 4 C  dxz             0.3       0.1       1.4      10.5       2.2       1.7
 4 C  dyz             0.0       0.1       1.8      17.2       0.1       2.3
 4 C  dx2y2           0.3       0.0       0.4       0.5      31.3       0.5
 4 C  dxy             0.0       0.6      17.9       1.6       0.5      17.6
 5 N  s               0.0       0.3      10.1       0.0       0.0       7.3
 5 N  pz              0.0       0.0       0.3       1.6       0.0       0.4
 5 N  px              0.0       0.1       2.4       0.1       0.9       3.2
 5 N  py              0.0       0.1       3.4       0.0       0.7       4.5
 5 N  dz2             0.1       0.0       6.7       6.9       0.1       5.5
 5 N  dxz             0.1       0.0       1.7      17.0       3.2       1.7
 5 N  dyz             0.1       0.0       2.3      27.7       0.1       2.3
 5 N  dx2y2           2.7       0.3       0.5       0.8      44.6       0.5
 5 N  dxy             0.1       0.3      23.2       2.5       0.7      19.6
 7 H  s               0.4       0.1       0.0       0.0       0.0       0.0
 9 H  s               0.3       0.0       0.0       0.0       0.0       0.0
10 H  s               0.2       0.0       0.0       0.0       0.0       0.0
11 H  s               0.2       0.0       0.0       0.0       0.0       0.0
14 H  s               0.4       0.0       0.1       0.1       0.0       0.0



                      *****************************
                      * MAYER POPULATION ANALYSIS *
                      *****************************

  NA   - Mulliken gross atomic population
  ZA   - Total nuclear charge
  QA   - Mulliken gross atomic charge
  VA   - Mayer's total valence
  BVA  - Mayer's bonded valence
  FA   - Mayer's free valence

  ATOM       NA         ZA         QA         VA         BVA        FA
  0 C      6.2602     6.0000    -0.2602     4.0173     4.0173    -0.0000
  1 C      6.2170     6.0000    -0.2170     4.1478     4.1478    -0.0000
  2 C      6.1972     6.0000    -0.1972     4.1038     4.1038     0.0000
  3 C      6.0867     6.0000    -0.0867     4.1027     4.1027    -0.0000
  4 C      6.2736     6.0000    -0.2736     4.3286     4.3286    -0.0000
  5 N      6.9452     7.0000     0.0548     3.1687     3.1687    -0.0000
  6 H      0.9006     1.0000     0.0994     0.9558     0.9558    -0.0000
  7 H      0.8897     1.0000     0.1103     0.9500     0.9500    -0.0000
  8 H      0.8963     1.0000     0.1037     0.9572     0.9572    -0.0000
  9 H      0.8814     1.0000     0.1186     0.9495     0.9495     0.0000
 10 H      0.9128     1.0000     0.0872     0.9463     0.9463    -0.0000
 11 H      0.8921     1.0000     0.1079     0.9495     0.9495     0.0000
 12 H      0.9016     1.0000     0.0984     0.9480     0.9480    -0.0000
 13 H      0.8754     1.0000     0.1246     0.9540     0.9540    -0.0000
 14 H      0.8701     1.0000     0.1299     0.9470     0.9470    -0.0000

  Mayer bond orders larger than 0.100000
B(  0-C ,  1-C ) :   1.1570 B(  0-C ,  6-H ) :   0.9543 B(  0-C ,  7-H ) :   0.9524 
B(  0-C ,  8-H ) :   0.9541 B(  1-C ,  2-C ) :   1.1283 B(  1-C ,  9-H ) :   0.9200 
B(  1-C , 10-H ) :   0.9257 B(  2-C ,  3-C ) :   1.1016 B(  2-C , 11-H ) :   0.9217 
B(  2-C , 12-H ) :   0.9195 B(  3-C ,  4-C ) :   1.1882 B(  3-C , 13-H ) :   0.8784 
B(  3-C , 14-H ) :   0.8761 B(  4-C ,  5-N ) :   3.0474 

-------
TIMINGS
-------

Total SCF time: 0 days 0 hours 0 min 4 sec 

Total time                  ....       4.674 sec
Sum of individual times     ....       4.150 sec  ( 88.8%)

SCF preparation             ....       0.152 sec  (  3.3%)
Fock matrix formation       ....       3.337 sec  ( 71.4%)
  Startup                   ....       0.077 sec  (  2.3% of F)
  Split-RI-J                ....       0.955 sec  ( 28.6% of F)
  XC integration            ....       1.895 sec  ( 56.8% of F)
    XC Preparation          ....       0.000 sec  (  0.0% of XC)
    Basis function eval.    ....       0.630 sec  ( 33.2% of XC)
    Density eval.           ....       0.191 sec  ( 10.1% of XC)
    XC-Functional eval.     ....       0.192 sec  ( 10.1% of XC)
    XC-Potential eval.      ....       0.354 sec  ( 18.7% of XC)
Diagonalization             ....       0.000 sec  (  0.0%)
Density matrix formation    ....       0.132 sec  (  2.8%)
Total Energy calculation    ....       0.030 sec  (  0.6%)
Population analysis         ....       0.067 sec  (  1.4%)
Orbital Transformation      ....       0.050 sec  (  1.1%)
Orbital Orthonormalization  ....       0.000 sec  (  0.0%)
DIIS solution               ....       0.311 sec  (  6.7%)
  MO trafo                  ....       0.000 sec  (  0.0 % of DIIS)
  Orb grad                  ....       0.000 sec  (  0.0 % of DIIS)
  Energy W gradient         ....       0.000 sec  (  0.0 % of DIIS)
  DIIS error                ....       0.003 sec  (  0.9 % of DIIS)
  DIIS work                 ....       0.263 sec  ( 84.7 % of DIIS)
  Form Q                    ....       0.000 sec  (  0.0 % of DIIS)
  Form QpQm                 ....       0.000 sec  (  0.0 % of DIIS)
  Exp/Cayley                ....       0.000 sec  (  0.0 % of DIIS)
  Orb update                ....       0.000 sec  (  0.0 % of DIIS)
  Wake-sleep                ....       0.017 sec  (  5.4 % of DIIS)
SOSCF solution              ....       0.071 sec  (  1.5%)
  MO trafo                  ....       0.040 sec  ( 56.3 % of SOSCF)
  Orb grad                  ....       0.001 sec  (  1.8 % of SOSCF)
  Rot update                ....       0.013 sec  ( 18.5 % of SOSCF)
  Step                      ....       0.017 sec  ( 23.2 % of SOSCF)
Finished LeanSCF after   4.7 sec

Maximum memory used throughout the entire LEANSCF-calculation: 9.6 MB


-------------------------------------------------------------------------------
                          DFT DISPERSION CORRECTION                            
                                                                               
                                DFTD4 V3.4.0                                   
-------------------------------------------------------------------------------
The PBE functional is recognized
Active option DFTDOPT                   ...         5   

-------------------------   ----------------
Dispersion correction           -0.010344806
-------------------------   ----------------

------------------   -----------------
gCP correction             0.058115148
------------------   -----------------

-------------------------   --------------------
FINAL SINGLE POINT ENERGY      -250.096343456479
-------------------------   --------------------


------------------------------------------------------------------------------
                              ORCA PROPERTY CALCULATIONS
------------------------------------------------------------------------------

GBWName                                 ... sp.gbw
Number of atoms                         ...     15
Number of basis functions               ...    102
Max core memory                         ...   1024 MB

Electric properties:
Dipole moment                           ... YES
Quadrupole moment                       ...  NO
Static polarizability (Dipole/Dipole)   ...  NO
Static polarizability (Dipole/Quad.)    ...  NO
Static polarizability (Quad./Quad.)     ...  NO
Static polarizability (Velocity)        ...  NO

Atomic electric properties:
Dipole moment                           ...  NO
Quadrupole moment                       ...  NO
Static polarizability                   ...  NO

Choice of electric origin               ... Center of mass
Position of electric origin             ...    -0.000010    -0.000002    -0.000001

General magnetic properties:
Magnetizability                         ...  NO

EPR properties:
g-Tensor (aka g-matrix)                 ...  NO
Zero-Field splitting spin-orbit         ...  NO
Zero-field splitting spin-spin          ...  NO
Hyperfine couplings                     ...  NO (   0 nuclei)
Quadrupole couplings                    ...  NO (   0 nuclei)
Contact density                         ...  NO (   0 nuclei)

NMR properties:
Chemical shifts                         ...  NO (   0 nuclei)
Spin-rotation constants                 ...  NO (   0 nuclei)
Spin-spin couplings                     ...  NO (   0 nuclei,    0 pairs)

Choice of magnetic origin               ... GIAO
Position of magnetic origin             ...     0.000000     0.000000     0.000000

Properties with geometric perturbations:
SCF Hessian                             ...  NO
IR spectrum                             ...  NO
VCD spectrum                            ...  NO
X-ray spectroscopy properties:
SCF XES/XAS/RIXS spectra                ...  NO


-------------
DIPOLE MOMENT
-------------

Method             : SCF
Type of density    : Electron Density
Multiplicity       :   1
Irrep              :   0
Energy             :  -250.1441137986251420 Eh
Relativity type    : 
Basis              : AO
                                X                 Y                 Z
Electronic contribution:      8.944105905       0.723592732       0.512606900
Nuclear contribution   :     -9.986606133      -1.682518462      -0.817607984
                        -----------------------------------------
Total Dipole Moment    :     -1.042500228      -0.958925730      -0.305001084
                        -----------------------------------------
Magnitude (a.u.)       :      1.448920613
Magnitude (Debye)      :      3.682863516



--------------------
Rotational spectrum 
--------------------
 
Rotational constants in cm-1:             0.261767             0.060046             0.052617 
Rotational constants in MHz :          7847.564539          1800.128719          1577.411315 

Dipole components along the rotational axes: 
x,y,z [a.u.] :    -0.998986    -1.037741     0.156498 
x,y,z [Debye]:    -2.539221    -2.637728     0.397785 

 

Dipole moment calculation done in   0.0 sec 

Maximum memory used throughout the entire PROP-calculation: 6.1 MB

--------------------------------
SUGGESTED CITATIONS FOR THIS RUN
--------------------------------

Below you find a list of papers that are relevant to this ORCA run
We neither can nor want to force you to cite these papers, but we appreciate if you do
You receive ORCA, which is the product of decades of hard work by many enthusiastic individuals, for free
The only thing we kindly ask in return is that you cite our papers,
We deeply appreciate it, if you show your appreciation for ORCA by not just citing the generic ORCA reference.

Please note that relegating all ORCA citations to the supporting information does *not* help us.
SI sections are not indexed - citations you put there will not count into any citation statistics
But we need these citations in order to attract the funding resources that allow us to do what we are doing

Therefore, if you are a happy ORCA user, please consider citing a few of the papers listed below in the main body of your paper

In addition to the list printed below, the program has created the file sp.bibtex that contains the list in bibtex format
You can import this file easily into all common literature databanks and citation aid programs


List of essential papers. We consider these as the minimum necessary citations

  1. Neese,F.
     Software update: the ORCA program system, version 5.0
     WIRES Comput. Molec. Sci., 2022 12(1)e1606
     doi.org/10.1002/wcms.1606

List of papers to cite with high priority. The work reported in these papers was absolutely
necessary for this run to complete.
Our perspective: the developers of density functionals and basis sets usually get cited in chemistry papers
Good! But without the algorithms to do something with them, the functionals or basis sets would not do anything.
Hence, in our opinion, the algorithm design and method developments papers are equally worthy of getting cited

  1. Neese,F.
     An improvement of the resolution of the identity approximation for the formation of the Coulomb matrix
     J. Comp. Chem., 2003 24(14)1740-1747
     doi.org/10.1002/jcc.10318
  2. Neese,F.
     The SHARK Integral Generation and Digestion System
     J. Comp. Chem., 2022  1-16
     doi.org/10.1002/jcc.26942
  3. Caldeweyher,E.; Bannwarth,C.; Grimme,S.
     Extension of the D3 dispersion coefficient model
     J. Chem. Phys., 2017 147 034112-XXXX
     doi.org/10.1063/1.4993215
  4. Caldeweyher,E.; Ehlert,S.; Hansen,A.; Neugebauer,H.; Spicher,S.; Bannwarth,C.; Grimme,S.
     A generally applicable atomic-charge dependent London dispersion correction
     J. Chem. Phys., 2019 150 154122-XXXX
     doi.org/10.1063/1.5090222
  5. Caldeweyher,E.; Mewes,J.; Ehlert,S.; Grimme,S.
     Extension and evaluation of the D4 London-dispersion model for periodic systems
     Phys. Chem. Chem. Phys., 2020 22(16)8499-8512
     doi.org/10.1039/D0CP00502A

List of suggested additional citations. These are papers that are important in the 'surrounding' of 
of this run, or papers that preceded the highly important papers. If you like your results we are grateful for a citation.

  1. Neese,F.
     The ORCA program system
     WIRES Comput. Molec. Sci., 2012 2(1)73-78
     doi.org/10.1002/wcms.81
  2. Neese,F.
     Software update: the ORCA program system, version 4.0
     WIRES Comput. Molec. Sci., 2018 8(1)1-6
     doi.org/10.1002/wcms.1327
  3. Neese,F.; Wennmohs,F.; Becker,U.; Riplinger,C.
     The ORCA quantum chemistry program package
     J. Chem. Phys., 2020 152 Art. No. L224108
     doi.org/10.1063/5.0004608

List of optional additional citations

  1. Neese,F.
     Approximate second-order SCF convergence for spin unrestricted wavefunctions
     Chem. Phys. Lett., 2000 325(1-3)93-98
     doi.org/10.1016/s0009-2614(00)00662-x

Timings for individual modules:

Sum of individual times          ...        6.022 sec (=   0.100 min)
Startup calculation              ...        0.559 sec (=   0.009 min)   9.3 %
SCF iterations                   ...        5.364 sec (=   0.089 min)  89.1 %
Property calculations            ...        0.100 sec (=   0.002 min)   1.7 %
                             ****ORCA TERMINATED NORMALLY****
TOTAL RUN TIME: 0 days 0 hours 0 minutes 6 seconds 690 msec
