      -----------------------------------------------------------      
     |                   =====================                   |     
     |                           x T B                           |     
     |                   =====================                   |     
     |                         S. Grimme                         |     
     |          Mulliken Center for Theoretical Chemistry        |     
     |                    University of Bonn                     |     
      -----------------------------------------------------------      

   * xtb version 6.7.1 (edcfbbe) compiled by 'albert@albert-system' on 2024-07-22

   xtb is free software: you can redistribute it and/or modify it under
   the terms of the GNU Lesser General Public License as published by
   the Free Software Foundation, either version 3 of the License, or
   (at your option) any later version.
   
   xtb is distributed in the hope that it will be useful,
   but WITHOUT ANY WARRANTY; without even the implied warranty of
   MERCHANTABILITY or FITNESS FOR A PARTICULAR PURPOSE.  See the
   GNU Lesser General Public License for more details.
   
   Cite this work as:
   * C. Bannwarth, E. Caldeweyher, S. Ehlert, A. Hansen, P. Pracht,
     J. Seibert, S. Spicher, S. Grimme, WIREs Comput. Mol. Sci., 2020, 11,
     e01493. DOI: 10.1002/wcms.1493
   
   for GFN2-xTB:
   * C. Bannwarth, S. Ehlert and S. Grimme., J. Chem. Theory Comput., 2019,
     15, 1652-1671. DOI: 10.1021/acs.jctc.8b01176
   for GFN1-xTB:
   * S. Grimme, C. Bannwarth, P. Shushkov, J. Chem. Theory Comput., 2017,
     13, 1989-2009. DOI: 10.1021/acs.jctc.7b00118
   for GFN0-xTB:
   * P. Pracht, E. Caldeweyher, S. Ehlert, S. Grimme, ChemRxiv, 2019, preprint.
     DOI: 10.26434/chemrxiv.8326202.v1
   for GFN-FF:
   * S. Spicher and S. Grimme, Angew. Chem. Int. Ed., 2020, 59, 15665-15673.
     DOI: 10.1002/anie.202004239
   
   for ALPB and GBSA implicit solvation:
   * S. Ehlert, M. Stahn, S. Spicher, S. Grimme, J. Chem. Theory Comput.,
     2021, 17, 4250-4261. DOI: 10.1021/acs.jctc.1c00471
   
   for ddCOSMO and CPCM-X implicit solvation:
   * M. Stahn, S. Ehlert, S. Grimme, J. Phys. Chem. A,
     2023, XX, XXXX-XXXX. DOI: 10.1021/acs.jpca.3c04382
   
   for DFT-D4:
   * E. Caldeweyher, C. Bannwarth and S. Grimme, J. Chem. Phys., 2017,
     147, 034112. DOI: 10.1063/1.4993215
   * E. Caldeweyher, S. Ehlert, A. Hansen, H. Neugebauer, S. Spicher,
     C. Bannwarth and S. Grimme, J. Chem. Phys., 2019, 150, 154122.
     DOI: 10.1063/1.5090222
   * E. Caldeweyher, J.-M. Mewes, S. Ehlert and S. Grimme, Phys. Chem. Chem. Phys.
     2020, 22, 8499-8512. DOI: 10.1039/D0CP00502A
   
   for sTDA-xTB:
   * S. Grimme and C. Bannwarth, J. Chem. Phys., 2016, 145, 054103.
     DOI: 10.1063/1.4959605
   
   in the mass-spec context:
   * V. Asgeirsson, C. Bauer and S. Grimme, Chem. Sci., 2017, 8, 4879.
     DOI: 10.1039/c7sc00601b
   * J. Koopman and S. Grimme, ACS Omega 2019, 4, 12, 15120-15133.
     DOI: 10.1021/acsomega.9b02011
   
   for metadynamics refer to:
   * S. Grimme, J. Chem. Theory Comput., 2019, 155, 2847-2862
     DOI: 10.1021/acs.jctc.9b00143
   
   for SPH calculations refer to:
   * S. Spicher and S. Grimme, J. Chem. Theory Comput., 2021, 17, 1701-1714
     DOI: 10.1021/acs.jctc.0c01306
   
   for ONIOM refer to:
   * C. Plett, A. Katbashev, S. Ehlert, S. Grimme, M. Bursch,
     Phys. Chem. Chem. Phys., 2023, 25, 17860-17868. DOI: 10.1039/D3CP02178E
   
   for DIPRO refer to:
   * J. Kohn, N. Gildemeister, S. Grimme, D. Fazzi, A. Hansen,
     J. Chem. Phys., 2023, just accepted.
   
   for PTB refer to:
   * S. Grimme, M. Mueller, A. Hansen, J. Chem. Phys., 2023, 158, 124111.
     DOI: 10.1063/5.0137838
   
   with help from (in alphabetical order)
   P. Atkinson, C. Bannwarth, F. Bohle, G. Brandenburg, E. Caldeweyher
   M. Checinski, S. Dohm, S. Ehlert, S. Ehrlich, I. Gerasimov, C. Hölzer
   A. Katbashev, J. Kohn, J. Koopman, C. Lavigne, S. Lehtola, F. März, M. Müller,
   F. Musil, H. Neugebauer, J. Pisarek, C. Plett, P. Pracht, F. Pultar,
   J. Seibert, P. Shushkov, S. Spicher, M. Stahn, M. Steiner, T. Strunk,
   J. Stückrath, T. Rose, and J. Unsleber
   
 * started run on 2025/04/11 at 11:37:56.370     
   ID    Z sym.   atoms
    1    6 C      1-3
    2    8 O      4-6
    3    1 H      7-14

           -------------------------------------------------
          |                Calculation Setup                |
           -------------------------------------------------

          program call               : /srv/scratch/z5358697/.xtb/bin/xtb xtb_opt.coord --opt normal --orca -I xtb_opt-xcontrol-inp
          hostname                   : k022
          coordinate file            : xtb_opt.coord
          omp threads                :                    16

           -------------------------------------------------
          |                   Orca driver                   |
           -------------------------------------------------
orca executable           : /apps/z_install_tree/linux-rocky8-ivybridge/gcc-12.2.0/orca-6.0.0-srtngmq3qlimg2qxbl6avaaiffipurdx/bin/orca
orca input file           : xtb_opt.inp
orca input line           : 
orca parallel             : true
orca number of threads    : 16
                         * ORCA takes the control...
  ------------------------------------------------------------------------

                                 *****************
                                 * O   R   C   A *
                                 *****************

                                            #,                                       
                                            ###                                      
                                            ####                                     
                                            #####                                    
                                            ######                                   
                                           ########,                                 
                                     ,,################,,,,,                         
                               ,,#################################,,                 
                          ,,##########################################,,             
                       ,#########################################, ''#####,          
                    ,#############################################,,   '####,        
                  ,##################################################,,,,####,       
                ,###########''''           ''''###############################       
              ,#####''   ,,,,##########,,,,          '''####'''          '####       
            ,##' ,,,,###########################,,,                        '##       
           ' ,,###''''                  '''############,,,                           
         ,,##''                                '''############,,,,        ,,,,,,###''
      ,#''                                            '''#######################'''  
     '                                                          ''''####''''         
             ,#######,   #######,   ,#######,      ##                                
            ,#'     '#,  ##    ##  ,#'     '#,    #''#        ,####,   ,####,        
            ##       ##  ##   ,#'  ##            #'  '#       #'       #'  '#        
            ##       ##  #######   ##           ,######,      #####,   #    #        
            '#,     ,#'  ##    ##  '#,     ,#' ,#      #,     #,   #   #,  ,#        
             '#######'   ##     ##  '#######'  #'      '#     '####' # '####'        



                #########################################################
                #                        -***-                          #
                #          Department of theory and spectroscopy        #
                #                                                       #
                #                      Frank Neese                      #
                #                                                       #
                #     Directorship, Architecture, Infrastructure        #
                #                    SHARK, DRIVERS                     #
                #        Core code/Algorithms in most modules           #
                #                                                       #
                #        Max Planck Institute fuer Kohlenforschung      #
                #                Kaiser Wilhelm Platz 1                 #
                #                 D-45470 Muelheim/Ruhr                 #
                #                      Germany                          #
                #                                                       #
                #                  All rights reserved                  #
                #                        -***-                          #
                #########################################################


                         Program Version 6.0.0  -   RELEASE  -


 With contributions from (in alphabetic order):
   Daniel Aravena         : Magnetic Suceptibility
   Michael Atanasov       : Ab Initio Ligand Field Theory (pilot matlab implementation)
   Alexander A. Auer      : GIAO ZORA, VPT2 properties, NMR spectrum
   Ute Becker             : All parallelization in ORCA, NUMFREQ, NUMCALC
   Giovanni Bistoni       : ED, misc. LED, open-shell LED, HFLD
   Martin Brehm           : Molecular dynamics
   Dmytro Bykov           : pre 5.0 version of the SCF Hessian
   Marcos Casanova-Páez   : Triplet and SCS-CIS(D). UHF-(DLPNO)-IP/EA/STEOM-CCSD. UHF-CVS-IP/STEOM-CCSD
   Vijay G. Chilkuri      : MRCI spin determinant printing, contributions to CSF-ICE
   Pauline Colinet        : FMM embedding
   Dipayan Datta          : RHF DLPNO-CCSD density
   Achintya Kumar Dutta   : EOM-CC, STEOM-CC
   Nicolas Foglia         : Exact transition moments, OPA infrastructure, MCD improvements
   Dmitry Ganyushin       : Spin-Orbit,Spin-Spin,Magnetic field MRCI
   Miquel Garcia          : C-PCM and meta-GGA Hessian, CCSD/C-PCM, Gaussian charge scheme
   Tiago L. C. Gouveia    : GS-ROHF, GS-ROCIS
   Yang Guo               : DLPNO-NEVPT2, F12-NEVPT2, CIM, IAO-localization
   Andreas Hansen         : Spin unrestricted coupled pair/coupled cluster methods
   Ingolf Harden          : AUTO-CI MPn and infrastructure 
   Benjamin Helmich-Paris : MC-RPA, TRAH-(SCF,CASSCF), AVAS, COSX integrals, SCF dyn. polar.
   Lee Huntington         : MR-EOM, pCC
   Robert Izsak           : Overlap fitted RIJCOSX, COSX-SCS-MP3, EOM
   Riya Kayal             : Wick's Theorem for AUTO-CI, AUTO-CI UHF-CCSDT
   Emily Kempfer          : AUTO-CI, RHF CISDT and CCSDT
   Christian Kollmar      : KDIIS, OOCD, Brueckner-CCSD(T), CCSD density, CASPT2, CASPT2-K, improved NEVPT2
   Axel Koslowski         : Symmetry handling
   Simone Kossmann        : Meta GGA functionals, TD-DFT gradient, OOMP2, (MP2 Hessian; deprecated post 5.0)
   Lucas Lang             : DCDCAS
   Marvin Lechner         : AUTO-CI (C++ implementation), FIC-MRCC
   Spencer Leger          : CASSCF response
   Dagmar Lenk            : GEPOL surface, SMD, ORCA-2-JSON
   Dimitrios Liakos       : Extrapolation schemes; Compound Job, initial MDCI parallelization
   Dimitrios Manganas     : Further ROCIS development; embedding schemes. LFT, Crystal Embedding
   Dimitrios Pantazis     : SARC Basis sets
   Anastasios Papadopoulos: AUTO-CI, single reference methods and gradients
   Taras Petrenko         : pre 6.0 DFT Hessian and TD-DFT gradient, (ASA, deprecated), ECA, 1-Electron XAS/XES, NRVS
   Peter Pinski           : DLPNO-MP2, DLPNO-MP2 Gradient
   Christoph Reimann      : Effective Core Potentials
   Marius Retegan         : Local ZFS, SOC
   Christoph Riplinger    : Optimizer, TS searches, QM/MM, DLPNO-CCSD(T), (RO)-DLPNO pert. Triples
   Michael Roemelt        : Original ROCIS implementation
   Masaaki Saitow         : Open-shell DLPNO-CCSD energy and density
   Barbara Sandhoefer     : DKH picture change effects
   Kantharuban Sivalingam : CASSCF convergence/infrastructure, NEVPT2 and variants, FIC-MRCI
   Bernardo de Souza      : ESD, SOC TD-DFT
   Georgi Stoychev        : AutoAux, RI-MP2 NMR, DLPNO-MP2 response, X2C
   Van Anh Tran           : RI-MP2 g-tensors
   Willem Van den Heuvel  : Paramagnetic NMR
   Zikuan Wang            : NOTCH, Electric field optimization 
   Frank Wennmohs         : Technical directorship and infrastructure
   Hang Xu                : AUTO-CI-Response properties 


 We gratefully acknowledge several colleagues who have allowed us to
 interface, adapt or use parts of their codes:
   Stefan Grimme, W. Hujo, H. Kruse, P. Pracht,  : VdW corrections, initial TS optimization,
                  C. Bannwarth, S. Ehlert,         DFT functionals, gCP, sTDA/sTD-DF
                  L. Wittmann, M. Mueller
   Ed Valeev, F. Pavosevic, A. Kumar             : LibInt (2-el integral package), F12 methods
   Garnet Chan, S. Sharma, J. Yang, R. Olivares  : DMRG
   Ulf Ekstrom                                   : XCFun DFT Library
   Mihaly Kallay                                 : mrcc  (arbitrary order and MRCC methods)
   Frank Weinhold                                : gennbo (NPA and NBO analysis)
   Simon Mueller                                 : openCOSMO-RS
   Christopher J. Cramer and Donald G. Truhlar   : smd solvation model
   Lars Goerigk                                  : TD-DFT with DH, B97 family of functionals
   V. Asgeirsson, H. Jonsson                     : NEB implementation
   FAccTs GmbH                                   : IRC, NEB, NEB-TS, DLPNO-Multilevel, CI-OPT
                                                   MM, QMMM, 2- and 3-layer-ONIOM, Crystal-QMMM,
                                                   LR-CPCM, SF, NACMEs, symmetry and pop. for TD-DFT,
                                                   nearIR, NL-DFT gradient (VV10), updates on ESD,
                                                   ML-optimized integration grids, MBIS, APM,
                                                   GOAT, DOCKER, SOLVATOR, interface openCOSMO-RS
   S Lehtola, MJT Oliveira, MAL Marques          : LibXC Library
   Liviu Ungur et al                             : ANISO software


 Your calculation uses the libint2 library for the computation of 2-el integrals
 For citations please refer to: http://libint.valeyev.net

 Your ORCA version has been built with support for libXC version: 6.2.2
 For citations please refer to: https://libxc.gitlab.io

 This ORCA versions uses:
   CBLAS   interface :  Fast vector & matrix operations
   LAPACKE interface :  Fast linear algebra routines
   SCALAPACK package :  Parallel linear algebra routines
   Shared memory     :  Shared parallel matrices
   BLAS/LAPACK       :  OpenBLAS 0.3.27  USE64BITINT DYNAMIC_ARCH NO_AFFINITY SkylakeX SINGLE_THREADED
        Core in use  :  SkylakeX
   Copyright (c) 2011-2014, The OpenBLAS Project




***************************************
The coordinates will be read from file: xtb_opt.xyz
***************************************


Your calculation utilizes the geometrical counterpoise correction gCP
Please cite in your paper:
H.Kruse, S. Grimme J.Chem.Phys., 136, (2012), 154101 
   

Your calculation utilizes the atom-pairwise dispersion correction
based on EEQ partial charges (D4)


Your calculation utilizes the SMD solvation module
Please cite in your paper:
A.V. Marenich, C.J. Cramer, D.G. Truhlar J. Phys. Chem. B, 113, (2009), 6378 

================================================================================

----- Orbital basis set information -----
Your calculation utilizes the basis: def2-mTZVPP
   Stefan Grimme, Andreas Hansen, Sebastian Ehlert, and Jan-Michael Mewes 
   J. Chem. Phys. 154, 064103 (2021). DOI: 10.1063/5.0040021

----- AuxJ basis set information -----
Your calculation utilizes the auxiliary basis: def2/J
   F. Weigend, Phys. Chem. Chem. Phys. 8, 1057 (2006).

================================================================================
                                        WARNINGS
                       Please study these warnings very carefully!
================================================================================

WARNING: Old DensityContainer found on disk!
         Will remove this file - 
         If you want to keep old densities, please start your calculation with a different basename. 

Using LibXC functional ID 497 : Re-regularized SCAN exchange by Furness et al
[ 1]  J. W. Furness, A. D. Kaplan, J. Ning, J. P. Perdew, and J. Sun.,  J. Phys. Chem. Lett. 11, 8208-8215 (2020)
[ 2]  J. W. Furness, A. D. Kaplan, J. Ning, J. P. Perdew, and J. Sun.,  J. Phys. Chem. Lett. 11, 9248-9248 (2020)
Using LibXC functional ID 498 : Re-regularized SCAN correlation by Furness et al
[ 1]  J. W. Furness, A. D. Kaplan, J. Ning, J. P. Perdew, and J. Sun.,  J. Phys. Chem. Lett. 11, 8208-8215 (2020)
[ 2]  J. W. Furness, A. D. Kaplan, J. Ning, J. P. Perdew, and J. Sun.,  J. Phys. Chem. Lett. 11, 9248-9248 (2020)
Using LibXC functional ID 497 : Re-regularized SCAN exchange by Furness et al
[ 1]  J. W. Furness, A. D. Kaplan, J. Ning, J. P. Perdew, and J. Sun.,  J. Phys. Chem. Lett. 11, 8208-8215 (2020)
[ 2]  J. W. Furness, A. D. Kaplan, J. Ning, J. P. Perdew, and J. Sun.,  J. Phys. Chem. Lett. 11, 9248-9248 (2020)
Using LibXC functional ID 498 : Re-regularized SCAN correlation by Furness et al
[ 1]  J. W. Furness, A. D. Kaplan, J. Ning, J. P. Perdew, and J. Sun.,  J. Phys. Chem. Lett. 11, 8208-8215 (2020)
[ 2]  J. W. Furness, A. D. Kaplan, J. Ning, J. P. Perdew, and J. Sun.,  J. Phys. Chem. Lett. 11, 9248-9248 (2020)

================================================================================
                                       INPUT FILE
================================================================================
NAME = xtb_opt.inp
|  1> ! r2scan-3c def2/J RI DEFGRID2 scfconv7 ENGRAD tightSCF miniprint
|  2> %cpcm
|  3>     smd true
|  4>     smdsolvent "water"
|  5> end
|  6> * xyzfile 0 1 xtb_opt.xyz
|  7> 
|  8>                          ****END OF INPUT****
================================================================================

                     *******************************
                     * Energy+Gradient Calculation *
                     *******************************

---------------------------------
CARTESIAN COORDINATES (ANGSTROEM)
---------------------------------
  C     -1.171900    0.246393   -0.507061
  C     -0.027634    0.505956    0.475745
  C      0.902777   -0.678888    0.648591
  O      1.487741   -0.982286   -0.631626
  O      0.693738    1.674267    0.050512
  O     -1.975807   -0.878650   -0.126284
  H     -0.768507    0.019397   -1.499359
  H     -1.782897    1.155348   -0.583395
  H     -0.448273    0.746690    1.459952
  H      0.337409   -1.538167    1.033893
  H      1.683920   -0.417329    1.373758
  H      2.188885   -1.628015   -0.480868
  H      1.184360    1.425675   -0.745908
  H     -2.420463   -0.651111    0.701318

----------------------------
CARTESIAN COORDINATES (A.U.)
----------------------------
  NO LB      ZA    FRAG     MASS         X           Y           Z
   0 C     6.0000    0    12.011   -2.214569    0.465615   -0.958206
   1 C     6.0000    0    12.011   -0.052220    0.956118    0.899028
   2 C     6.0000    0    12.011    1.706001   -1.282913    1.225660
   3 O     8.0000    0    15.999    2.811423   -1.856251   -1.193600
   4 O     8.0000    0    15.999    1.310976    3.163907    0.095454
   5 O     8.0000    0    15.999   -3.733734   -1.660408   -0.238643
   6 H     1.0000    0     1.008   -1.452268    0.036654   -2.833378
   7 H     1.0000    0     1.008   -3.369187    2.183291   -1.102456
   8 H     1.0000    0     1.008   -0.847112    1.411039    2.758910
   9 H     1.0000    0     1.008    0.637610   -2.906714    1.953775
  10 H     1.0000    0     1.008    3.182148   -0.788637    2.596027
  11 H     1.0000    0     1.008    4.136393   -3.076502   -0.908708
  12 H     1.0000    0     1.008    2.238116    2.694136   -1.409563
  13 H     1.0000    0     1.008   -4.574012   -1.230422    1.325299

------------------------------------------------------------------------------
                   ___                                                        
                  /   \      - P O W E R E D   B Y -                         
                 /     \                                                     
                 |  |  |   _    _      __       _____    __    __             
                 |  |  |  | |  | |    /  \     |  _  \  |  |  /  |          
                  \  \/   | |  | |   /    \    | | | |  |  | /  /          
                 / \  \   | |__| |  /  /\  \   | |_| |  |  |/  /          
                |  |  |   |  __  | /  /__\  \  |    /   |      \           
                |  |  |   | |  | | |   __   |  |    \   |  |\   \          
                \     /   | |  | | |  |  |  |  | |\  \  |  | \   \       
                 \___/    |_|  |_| |__|  |__|  |_| \__\ |__|  \__/        
                                                                              
                      - O R C A' S   B I G   F R I E N D -                    
                                      &                                       
                       - I N T E G R A L  F E E D E R -                       
                                                                              
 v1 FN, 2020, v2 2021, v3 2022-2024                                           
------------------------------------------------------------------------------


----------------------
SHARK INTEGRAL PACKAGE
----------------------

Number of atoms                             ...     14
Number of basis functions                   ...    169
Number of shells                            ...     81
Maximum angular momentum                    ...      2
Integral batch strategy                     ... SHARK/LIBINT Hybrid
RI-J (if used) integral strategy            ... SPLIT-RIJ (Revised 2003 algorithm where possible)
Printlevel                                  ...      1
Contraction scheme used                     ... SEGMENTED contraction
Prescreening option                         ... SCHWARTZ
   Thresh                                   ... 3.000e-11
   Tcut                                     ... 1.000e-12
   Tpresel                                  ... 1.000e-12 
Coulomb Range Separation                    ... NOT USED
Exchange Range Separation                   ... NOT USED
Multipole approximations                    ... NOT USED
Finite Nucleus Model                        ... NOT USED
CABS basis                                  ... NOT available
Auxiliary Coulomb fitting basis             ... AVAILABLE
   # of basis functions in Aux-J            ...    382
   # of shells in Aux-J                     ...    130
   Maximum angular momentum in Aux-J        ...      4
Auxiliary J/K fitting basis                 ... NOT available
Auxiliary Correlation fitting basis         ... NOT available
Auxiliary 'external' fitting basis          ... NOT available

Checking pre-screening integrals            ... done (  0.0 sec) Dimension = 81
Check shell pair data                       ... done (  0.0 sec)
Shell pair information
Shell pair cut-off parameter TPreSel        ...   1.0e-12
Total number of shell pairs                 ...      3321
Shell pairs after pre-screening             ...      3155
Total number of primitive shell pairs       ...     11632
Primitive shell pairs kept                  ...      8289
          la=0 lb=0:   1000 shell pairs
          la=1 lb=0:   1139 shell pairs
          la=1 lb=1:    339 shell pairs
          la=2 lb=0:    402 shell pairs
          la=2 lb=1:    230 shell pairs
          la=2 lb=2:     45 shell pairs

Calculating one electron integrals          ... done (  0.0 sec)
Calculating RI/J V-Matrix + Cholesky decomp.... done (  0.1 sec)
Calculating Nuclear repulsion               ... done (  0.0 sec) ENN=    263.600240303267 Eh

Diagonalization of the overlap matrix:
Smallest eigenvalue                        ... 1.785e-04
Time for diagonalization                   ...    0.003 sec
Threshold for overlap eigenvalues          ... 1.000e-07
Number of eigenvalues below threshold      ... 0
Time for construction of square roots      ...    0.017 sec
Total time needed                          ...    0.031 sec

-------------------
DFT GRID GENERATION
-------------------

General Integration Accuracy     IntAcc      ... 4.388
Radial Grid Type                 RadialGrid  ... OptM3 with GC (2021)
Angular Grid (max. ang.)         AngularGrid ... 4 (Lebedev-302)
Angular grid pruning method      GridPruning ... 4 (adaptive)
Weight generation scheme         WeightScheme... mBecke (2022)
Basis function cutoff            BFCut       ... 1.0000e-11
Integration weight cutoff        WCut        ... 1.0000e-14
Partially contracted basis set               ... off
Rotationally invariant grid construction     ... off
Angular grids for H and He will be reduced by one unit
Diffuse basis detected: some atoms will have their outermost
                        angular grid increased by 1.

Total number of grid points                  ...    63052
Total number of batches                      ...      991
Average number of points per batch           ...       63
Average number of grid points per atom       ...     4504
Initializing property integral containers    ... done (  0.0 sec)

SHARK setup successfully completed in   1.0 seconds

Maximum memory used throughout the entire STARTUP-calculation: 27.9 MB
Occupation numbers will be reassigned to an Aufbau configuration
             **** ENERGY FILE WAS UPDATED (xtb_opt.en.tmp) ****
Finished Guess after   0.4 sec
Maximum memory used throughout the entire GUESS-calculation: 11.5 MB
--------------------
CPCM SOLVATION MODEL
--------------------
CPCM parameters:
  Epsilon                                         ...      78.3550
  Refrac                                          ...       1.3328
  Rsolv                                           ...       1.3000
  Surface type                                    ... GAUSSIAN VDW
  Discretization scheme                           ... Constant charge density
    Threshold for H atoms                         ...       5.0000 (charges/Ang^2)
    Threshold for non-H atoms                     ...       5.0000 (charges/Ang^2)
  Epsilon function type                           ...         CPCM
Solvent:                                          ... WATER
SMD-CDS solvent descriptors:
  Soln                                            ...       1.3328
  Soln25                                          ...       1.3323
  Sola                                            ...       0.0000
  Solb                                            ...       0.0000
  Solg                                            ...       0.0000
  Solc                                            ...       0.0000
  Solh                                            ...       0.0000
Radii:
  Scheme                                          ... Element-dependent radii
  Radius for C  used is    3.4960 Bohr (=   1.8500 Ang.)
  Radius for O  used is    2.8724 Bohr (=   1.5200 Ang.)
  Radius for H  used is    2.2677 Bohr (=   1.2000 Ang.)
Calculating surface                               ...        done! (  0.0s)
Cavity surface points                             ...         1016
Cavity Volume                                     ...     607.7328
Cavity Surface-area                               ...     428.9171
Calculating surface distance matrix               ...        done! (  0.0s)
Performing Cholesky decomposition & store         ...        done! (  0.0s)
Overall time for CPCM initialization              ...                 0.1s

----------------------------------------D-I-I-S--------------------------------------------
Iteration    Energy (Eh)           Delta-E    RMSDP     MaxDP     DIISErr   Damp  Time(sec)
-------------------------------------------------------------------------------------------
               ***  Starting incremental Fock matrix formation  ***
                              *** Initializing SOSCF ***
---------------------------------------S-O-S-C-F--------------------------------------
Iteration    Energy (Eh)           Delta-E    RMSDP     MaxDP     MaxGrad    Time(sec)
--------------------------------------------------------------------------------------
    1    -344.7583065607448134     0.00e+00  5.95e-07  1.37e-05  1.50e-06     2.4
               *** Restarting incremental Fock matrix formation ***
    2    -344.7583065609633195    -2.19e-10  7.21e-07  1.98e-05  5.09e-06     2.3
                  *** Gradient check signals convergence ***

               *****************************************************
               *                     SUCCESS                       *
               *           SCF CONVERGED AFTER   2 CYCLES          *
               *****************************************************


SMD CDS free energy correction energy :                 3.00544     Kcal/mol
Total Energy after SMD CDS correction =              -344.753517087 Eh
             **** ENERGY FILE WAS UPDATED (xtb_opt.en.tmp) ****

----------------
TOTAL SCF ENERGY
----------------

Total Energy       :       -344.75351708692671 Eh           -9381.22013 eV

Components:
Nuclear Repulsion  :        263.60024030326701 Eh            7172.92720 eV
Electronic Energy  :       -608.32668270933698 Eh          -16553.41060 eV
One Electron Energy:       -994.21835861729335 Eh          -27054.05694 eV
Two Electron Energy:        385.89167590795637 Eh           10500.64634 eV
CPCM Dielectric    :         -0.03186415489334 Eh              -0.86707 eV
SMD CDS (Gcds)     :          0.00478947403662 Eh               0.13033 eV

Virial components:
Potential Energy   :       -687.99616627038893 Eh          -18721.32746 eV
Kinetic Energy     :        343.24264918346222 Eh            9340.10733 eV
Virial Ratio       :          2.00440174875430

DFT components:
N(Alpha)           :       24.999952217371 electrons
N(Beta)            :       24.999952217371 electrons
N(Total)           :       49.999904434741 electrons
E(X)               :      -43.299571009079 Eh       
E(C)               :       -1.626615780241 Eh       
E(XC)              :      -44.926186789320 Eh       

CPCM Solvation Model Properties:
Surface-charge          :         -0.04008182533579
Corrected charge        :         -0.00000000000000
Outlying charge corr.   :          0.00014274356839 Eh               0.00388 eV
Free-energy (cav+disp)  :          0.00478947403662 Eh               0.13033 eV

---------------
SCF CONVERGENCE
---------------

  Last Energy change         ...    2.1851e-10  Tolerance :   1.0000e-07
  Last MAX-Density change    ...    1.9767e-05  Tolerance :   1.0000e-07
  Last RMS-Density change    ...    7.2064e-07  Tolerance :   5.0000e-09
  Last DIIS Error            ...    2.1363e-05  Tolerance :   1.0000e-07
  Last Orbital Gradient      ...    5.0871e-06  Tolerance :   1.0000e-04
  Last Orbital Rotation      ...    7.5289e-06  Tolerance :   1.0000e-04


----------------
ORBITAL ENERGIES
----------------

  NO   OCC          E(Eh)            E(eV) 
   0   2.0000     -18.956422      -515.8305 
   1   2.0000     -18.956161      -515.8234 
   2   2.0000     -18.955675      -515.8101 
   3   2.0000     -10.082086      -274.3475 
   4   2.0000     -10.073528      -274.1146 
   5   2.0000     -10.073051      -274.1016 
   6   2.0000      -0.999182       -27.1891 
   7   2.0000      -0.983010       -26.7491 
   8   2.0000      -0.975224       -26.5372 
   9   2.0000      -0.722106       -19.6495 
  10   2.0000      -0.643153       -17.5011 
  11   2.0000      -0.567754       -15.4494 
  12   2.0000      -0.489161       -13.3107 
  13   2.0000      -0.469900       -12.7866 
  14   2.0000      -0.461065       -12.5462 
  15   2.0000      -0.424505       -11.5514 
  16   2.0000      -0.414931       -11.2908 
  17   2.0000      -0.379547       -10.3280 
  18   2.0000      -0.355824        -9.6825 
  19   2.0000      -0.337274        -9.1777 
  20   2.0000      -0.321636        -8.7522 
  21   2.0000      -0.292622        -7.9627 
  22   2.0000      -0.270178        -7.3519 
  23   2.0000      -0.247504        -6.7349 
  24   2.0000      -0.233024        -6.3409 
  25   0.0000       0.053468         1.4549 
  26   0.0000       0.061956         1.6859 
  27   0.0000       0.111078         3.0226 
  28   0.0000       0.123297         3.3551 
  29   0.0000       0.136580         3.7165 
  30   0.0000       0.149656         4.0723 
  31   0.0000       0.162128         4.4117 
  32   0.0000       0.169293         4.6067 
  33   0.0000       0.176466         4.8019 
  34   0.0000       0.194431         5.2907 
  35   0.0000       0.204954         5.5771 
*Only the first 10 virtual orbitals were printed.
Total SCF time: 0 days 0 hours 0 min 5 sec 
Finished LeanSCF after   5.5 sec

Maximum memory used throughout the entire LEANSCF-calculation: 17.7 MB


-------------------------------------------------------------------------------
                          DFT DISPERSION CORRECTION                            
                                                                               
                                DFTD4 V3.4.0                                   
-------------------------------------------------------------------------------
-------------------------   ----------------
Dispersion correction           -0.003050130
-------------------------   ----------------

------------------   -----------------
gCP correction             0.010220416
------------------   -----------------

-------------------------   --------------------
FINAL SINGLE POINT ENERGY      -344.746346800628
-------------------------   --------------------

------------------------------------------------------------------------------
                         ORCA SCF GRADIENT CALCULATION
------------------------------------------------------------------------------

Nuc. rep. gradient        (SHARK) ... done (  0.0 sec)
HCore & Overlap gradient  (SHARK) ... done (  0.2 sec)
Split-RIJ-J gradient      (SHARK) ... done (  1.0 sec)
XC gradient                       ... done (  4.4 sec)
CPCM gradient                     ... done (  0.5 sec)
SMD gradient                      ... done (  0.0 sec)
Dispersion correction             ... done (  0.0 sec)

-------------------
DISPERSION GRADIENT
-------------------

   1   C   :   -0.000033766    0.000015378   -0.000013723
   2   C   :   -0.000002543    0.000011116    0.000007713
   3   C   :    0.000029529   -0.000016712    0.000022238
   4   O   :    0.000060881   -0.000038355   -0.000009528
   5   O   :    0.000028359    0.000048902   -0.000013139
   6   O   :   -0.000074615   -0.000014075    0.000006664
   7   H   :   -0.000016694   -0.000000223   -0.000012206
   8   H   :   -0.000023298    0.000008789   -0.000007965
   9   H   :   -0.000001540    0.000013731    0.000010913
  10   H   :    0.000011669   -0.000017593    0.000007587
  11   H   :    0.000022363   -0.000006736    0.000010988
  12   H   :    0.000020841   -0.000015432   -0.000008893
  13   H   :    0.000004834    0.000023969    0.000009268
  14   H   :   -0.000026018   -0.000012760   -0.000009916

Difference to translation invariance:
           :   -0.0000000000    0.0000000000    0.0000000000

Difference to rotation invariance:
           :    0.0000000000    0.0000000000   -0.0000000000

Norm of the Dispersion gradient    ...    0.0001510327
RMS gradient                       ...    0.0000233048
MAX gradient                       ...    0.0000746154
gCP correction                   ... done

------------------
CARTESIAN GRADIENT
------------------

   1   C   :    0.000073791    0.000300259   -0.000016678
   2   C   :    0.000010799    0.000896448   -0.000070487
   3   C   :    0.000273509   -0.000376761    0.000505725
   4   O   :   -0.000069840    0.000484996   -0.000711338
   5   O   :   -0.000280339   -0.000604112    0.000111865
   6   O   :    0.000114520   -0.000192602   -0.000120676
   7   H   :    0.000122247   -0.000076572   -0.000175668
   8   H   :   -0.000048507   -0.000069905    0.000083951
   9   H   :    0.000042827    0.000017563    0.000007866
  10   H   :   -0.000083490   -0.000106212    0.000011448
  11   H   :   -0.000045663    0.000035482   -0.000181724
  12   H   :    0.000093829   -0.000359974    0.000320437
  13   H   :    0.000077940    0.000020744   -0.000057968
  14   H   :   -0.000281622    0.000030647    0.000293247

Difference to translation invariance:
           :    0.0000000000    0.0000000000   -0.0000000000

Difference to rotation invariance:
           :   -0.0000854769    0.0005289715   -0.0005213986

Norm of the Cartesian gradient     ...    0.0017844066
RMS gradient                       ...    0.0002753399
MAX gradient                       ...    0.0008964480

-------
TIMINGS
-------

Total SCF gradient time     ....        6.656 sec

Densities                   ....       0.000 sec  (  0.0%)
One electron gradient       ....       0.168 sec  (  2.5%)
RI-J Coulomb gradient       ....       1.038 sec  ( 15.6%)
XC gradient                 ....       4.391 sec  ( 66.0%)
CPCM gradient               ....       0.509 sec  (  7.7%)
   A-Matrix (El+Nuc)        ....       0.041 sec  (  0.6%)
   Potential                ....       0.469 sec  (  7.0%)
SMD gradient                ....       0.014 sec  (  0.2%)

Maximum memory used throughout the entire SCFGRAD-calculation: 31.6 MB

------------------------------------------------------------------------------
                              ORCA PROPERTY CALCULATIONS
------------------------------------------------------------------------------

GBWName                                 ... xtb_opt.gbw
Number of atoms                         ...     14
Number of basis functions               ...    169
Max core memory                         ...   1024 MB

Electric properties:
Dipole moment                           ... YES
Quadrupole moment                       ...  NO
Static polarizability (Dipole/Dipole)   ...  NO
Static polarizability (Dipole/Quad.)    ...  NO
Static polarizability (Quad./Quad.)     ...  NO
Static polarizability (Velocity)        ...  NO

Atomic electric properties:
Dipole moment                           ...  NO
Quadrupole moment                       ...  NO
Static polarizability                   ...  NO

Choice of electric origin               ... Center of mass
Position of electric origin             ...    -0.006147    -0.061534    -0.054050

General magnetic properties:
Magnetizability                         ...  NO

EPR properties:
g-Tensor (aka g-matrix)                 ...  NO
Zero-Field splitting spin-orbit         ...  NO
Zero-field splitting spin-spin          ...  NO
Hyperfine couplings                     ...  NO (   0 nuclei)
Quadrupole couplings                    ...  NO (   0 nuclei)
Contact density                         ...  NO (   0 nuclei)

NMR properties:
Chemical shifts                         ...  NO (   0 nuclei)
Spin-rotation constants                 ...  NO (   0 nuclei)
Spin-spin couplings                     ...  NO (   0 nuclei,    0 pairs)

Choice of magnetic origin               ... GIAO
Position of magnetic origin             ...     0.000000     0.000000     0.000000

Properties with geometric perturbations:
SCF Hessian                             ...  NO
IR spectrum                             ...  NO
VCD spectrum                            ...  NO
X-ray spectroscopy properties:
SCF XES/XAS/RIXS spectra                ...  NO


-------------
DIPOLE MOMENT
-------------

Method             : SCF
Type of density    : Electron Density
Multiplicity       :   1
Irrep              :   0
Energy             :  -344.7535170869267063 Eh
Relativity type    : 
Basis              : AO
                                X                 Y                 Z
Electronic contribution:      0.319226544       0.167969712      -0.525148652
Nuclear contribution   :      0.003614339      -0.589565488       1.387010676
                        -----------------------------------------
Total Dipole Moment    :      0.322840883      -0.421595775       0.861862024
                        -----------------------------------------
Magnitude (a.u.)       :      1.012311900
Magnitude (Debye)      :      2.573092363



--------------------
Rotational spectrum 
--------------------
 
Rotational constants in cm-1:             0.144412             0.094711             0.069311 
Rotational constants in MHz :          4329.375169          2839.371205          2077.889972 

Dipole components along the rotational axes: 
x,y,z [a.u.] :     0.296647    -0.381681     0.889436 
x,y,z [Debye]:     0.754016    -0.970156     2.260766 

 

Dipole moment calculation done in   0.0 sec 

Maximum memory used throughout the entire PROP-calculation: 9.9 MB

--------------------------------
SUGGESTED CITATIONS FOR THIS RUN
--------------------------------

Below you find a list of papers that are relevant to this ORCA run
We neither can nor want to force you to cite these papers, but we appreciate if you do
You receive ORCA, which is the product of decades of hard work by many enthusiastic individuals, for free
The only thing we kindly ask in return is that you cite our papers,
We deeply appreciate it, if you show your appreciation for ORCA by not just citing the generic ORCA reference.

Please note that relegating all ORCA citations to the supporting information does *not* help us.
SI sections are not indexed - citations you put there will not count into any citation statistics
But we need these citations in order to attract the funding resources that allow us to do what we are doing

Therefore, if you are a happy ORCA user, please consider citing a few of the papers listed below in the main body of your paper

In addition to the list printed below, the program has created the file xtb_opt.bibtex that contains the list in bibtex format
You can import this file easily into all common literature databanks and citation aid programs


List of essential papers. We consider these as the minimum necessary citations

  1. Neese,F.
     Software update: the ORCA program system, version 5.0
     WIRES Comput. Molec. Sci., 2022 12(1)e1606
     doi.org/10.1002/wcms.1606
  2. Grimme,S.; Hansen,A.; Ehlert,S.; Mewes,J.
     r2SCAN-3c: A 'Swiss army knife' composite electronic-structure method
     J. Chem. Phys., 2021 154 064103
     doi.org/10.1063/5.0040021

List of papers to cite with high priority. The work reported in these papers was absolutely
necessary for this run to complete.
Our perspective: the developers of density functionals and basis sets usually get cited in chemistry papers
Good! But without the algorithms to do something with them, the functionals or basis sets would not do anything.
Hence, in our opinion, the algorithm design and method developments papers are equally worthy of getting cited

  1. Neese,F.
     An improvement of the resolution of the identity approximation for the formation of the Coulomb matrix
     J. Comp. Chem., 2003 24(14)1740-1747
     doi.org/10.1002/jcc.10318
  2. Garcia-Rates,M.; Neese,F.
     Effect of the Solute Cavity on the Solvation Energy and its Derivatives within the Framework of the Gaussian Charge Scheme
     J. Comput. Chem., 2020 41 922-939
     doi.org/10.1002/jcc.26139
  3. Neese,F.
     The SHARK Integral Generation and Digestion System
     J. Comp. Chem., 2022  1-16
     doi.org/10.1002/jcc.26942
  4. Lehtola,S.; Steigemann,C.; Oliveira,M.; Marques,M.
     Recent developments in Libxc - A comprehensive library of functionals for density functional theory
     Software X, 2018 7 
     doi.org/10.1016/j.softx.2017.11.002
  5. Caldeweyher,E.; Bannwarth,C.; Grimme,S.
     Extension of the D3 dispersion coefficient model
     J. Chem. Phys., 2017 147 034112-XXXX
     doi.org/10.1063/1.4993215
  6. Caldeweyher,E.; Ehlert,S.; Hansen,A.; Neugebauer,H.; Spicher,S.; Bannwarth,C.; Grimme,S.
     A generally applicable atomic-charge dependent London dispersion correction
     J. Chem. Phys., 2019 150 154122-XXXX
     doi.org/10.1063/1.5090222
  7. Caldeweyher,E.; Mewes,J.; Ehlert,S.; Grimme,S.
     Extension and evaluation of the D4 London-dispersion model for periodic systems
     Phys. Chem. Chem. Phys., 2020 22(16)8499-8512
     doi.org/10.1039/D0CP00502A

List of suggested additional citations. These are papers that are important in the 'surrounding' of 
of this run, or papers that preceded the highly important papers. If you like your results we are grateful for a citation.

  1. Neese,F.
     The ORCA program system
     WIRES Comput. Molec. Sci., 2012 2(1)73-78
     doi.org/10.1002/wcms.81
  2. Neese,F.
     Software update: the ORCA program system, version 4.0
     WIRES Comput. Molec. Sci., 2018 8(1)1-6
     doi.org/10.1002/wcms.1327
  3. Neese,F.; Wennmohs,F.; Becker,U.; Riplinger,C.
     The ORCA quantum chemistry program package
     J. Chem. Phys., 2020 152 Art. No. L224108
     doi.org/10.1063/5.0004608

List of optional additional citations

  1. Neese,F.
     Approximate second-order SCF convergence for spin unrestricted wavefunctions
     Chem. Phys. Lett., 2000 325(1-3)93-98
     doi.org/10.1016/s0009-2614(00)00662-x

Timings for individual modules:

Sum of individual times          ...       13.818 sec (=   0.230 min)
Startup calculation              ...        1.055 sec (=   0.018 min)   7.6 %
SCF iterations                   ...        5.894 sec (=   0.098 min)  42.7 %
Property calculations            ...        0.114 sec (=   0.002 min)   0.8 %
SCF Gradient evaluation          ...        6.755 sec (=   0.113 min)  48.9 %
                             ****ORCA TERMINATED NORMALLY****
TOTAL RUN TIME: 0 days 0 hours 0 minutes 14 seconds 773 msec
  ------------------------------------------------------------------------
          * successful ORCA run, taking over control again...

         :::::::::::::::::::::::::::::::::::::::::::::::::::::
         ::                  ORCA SUMMARY                   ::
         :::::::::::::::::::::::::::::::::::::::::::::::::::::
         :: total energy            -344.746346800628 Eh    ::
         :: gradient norm              0.001784406646 Eh/a0 ::
         :: HOMO-LUMO gap              0.000000000000 eV    ::
         :::::::::::::::::::::::::::::::::::::::::::::::::::::

      ----------------------------------------------------------- 
     |                       L-ANC optimizer                     |
      ----------------------------------------------------------- 
          low memory version by Sebastian Ehlert

          ...................................................
          :                      SETUP                      :
          :.................................................:
          :   energy convergence        0.5000000E-05 Eh    :
          :   grad. convergence         0.1000000E-02 Eh/a0 :
          :   optimization log               true           :
          :   writing optlog all                1     steps :
          :   Hessian reset                     8     steps :
          :   maximium step len.        1.0000000     a0    :
          :   LBFGS images                      8           :
          ...................................................
 * calculating model hessian...
Using Lindh-Hessian (1995)
 Shifting diagonal of input Hessian by   1.000000000000000E-002
 Lowest  eigenvalues of input Hessian
    0.000000    0.000000    0.000000    0.000000    0.000000    0.000000
    0.014506    0.017509    0.019866    0.023402    0.026496    0.034038
    0.048053    0.057583    0.062013    0.067442    0.069103    0.075017
 Highest eigenvalues
    1.203454    1.284906    1.290750    1.390668    1.433034    1.464231
 

........................................................................
.............................. CYCLE    1 ..............................
........................................................................
                         * ORCA takes the control...
  ------------------------------------------------------------------------

                                 *****************
                                 * O   R   C   A *
                                 *****************

                                            #,                                       
                                            ###                                      
                                            ####                                     
                                            #####                                    
                                            ######                                   
                                           ########,                                 
                                     ,,################,,,,,                         
                               ,,#################################,,                 
                          ,,##########################################,,             
                       ,#########################################, ''#####,          
                    ,#############################################,,   '####,        
                  ,##################################################,,,,####,       
                ,###########''''           ''''###############################       
              ,#####''   ,,,,##########,,,,          '''####'''          '####       
            ,##' ,,,,###########################,,,                        '##       
           ' ,,###''''                  '''############,,,                           
         ,,##''                                '''############,,,,        ,,,,,,###''
      ,#''                                            '''#######################'''  
     '                                                          ''''####''''         
             ,#######,   #######,   ,#######,      ##                                
            ,#'     '#,  ##    ##  ,#'     '#,    #''#        ,####,   ,####,        
            ##       ##  ##   ,#'  ##            #'  '#       #'       #'  '#        
            ##       ##  #######   ##           ,######,      #####,   #    #        
            '#,     ,#'  ##    ##  '#,     ,#' ,#      #,     #,   #   #,  ,#        
             '#######'   ##     ##  '#######'  #'      '#     '####' # '####'        



                #########################################################
                #                        -***-                          #
                #          Department of theory and spectroscopy        #
                #                                                       #
                #                      Frank Neese                      #
                #                                                       #
                #     Directorship, Architecture, Infrastructure        #
                #                    SHARK, DRIVERS                     #
                #        Core code/Algorithms in most modules           #
                #                                                       #
                #        Max Planck Institute fuer Kohlenforschung      #
                #                Kaiser Wilhelm Platz 1                 #
                #                 D-45470 Muelheim/Ruhr                 #
                #                      Germany                          #
                #                                                       #
                #                  All rights reserved                  #
                #                        -***-                          #
                #########################################################


                         Program Version 6.0.0  -   RELEASE  -


 With contributions from (in alphabetic order):
   Daniel Aravena         : Magnetic Suceptibility
   Michael Atanasov       : Ab Initio Ligand Field Theory (pilot matlab implementation)
   Alexander A. Auer      : GIAO ZORA, VPT2 properties, NMR spectrum
   Ute Becker             : All parallelization in ORCA, NUMFREQ, NUMCALC
   Giovanni Bistoni       : ED, misc. LED, open-shell LED, HFLD
   Martin Brehm           : Molecular dynamics
   Dmytro Bykov           : pre 5.0 version of the SCF Hessian
   Marcos Casanova-Páez   : Triplet and SCS-CIS(D). UHF-(DLPNO)-IP/EA/STEOM-CCSD. UHF-CVS-IP/STEOM-CCSD
   Vijay G. Chilkuri      : MRCI spin determinant printing, contributions to CSF-ICE
   Pauline Colinet        : FMM embedding
   Dipayan Datta          : RHF DLPNO-CCSD density
   Achintya Kumar Dutta   : EOM-CC, STEOM-CC
   Nicolas Foglia         : Exact transition moments, OPA infrastructure, MCD improvements
   Dmitry Ganyushin       : Spin-Orbit,Spin-Spin,Magnetic field MRCI
   Miquel Garcia          : C-PCM and meta-GGA Hessian, CCSD/C-PCM, Gaussian charge scheme
   Tiago L. C. Gouveia    : GS-ROHF, GS-ROCIS
   Yang Guo               : DLPNO-NEVPT2, F12-NEVPT2, CIM, IAO-localization
   Andreas Hansen         : Spin unrestricted coupled pair/coupled cluster methods
   Ingolf Harden          : AUTO-CI MPn and infrastructure 
   Benjamin Helmich-Paris : MC-RPA, TRAH-(SCF,CASSCF), AVAS, COSX integrals, SCF dyn. polar.
   Lee Huntington         : MR-EOM, pCC
   Robert Izsak           : Overlap fitted RIJCOSX, COSX-SCS-MP3, EOM
   Riya Kayal             : Wick's Theorem for AUTO-CI, AUTO-CI UHF-CCSDT
   Emily Kempfer          : AUTO-CI, RHF CISDT and CCSDT
   Christian Kollmar      : KDIIS, OOCD, Brueckner-CCSD(T), CCSD density, CASPT2, CASPT2-K, improved NEVPT2
   Axel Koslowski         : Symmetry handling
   Simone Kossmann        : Meta GGA functionals, TD-DFT gradient, OOMP2, (MP2 Hessian; deprecated post 5.0)
   Lucas Lang             : DCDCAS
   Marvin Lechner         : AUTO-CI (C++ implementation), FIC-MRCC
   Spencer Leger          : CASSCF response
   Dagmar Lenk            : GEPOL surface, SMD, ORCA-2-JSON
   Dimitrios Liakos       : Extrapolation schemes; Compound Job, initial MDCI parallelization
   Dimitrios Manganas     : Further ROCIS development; embedding schemes. LFT, Crystal Embedding
   Dimitrios Pantazis     : SARC Basis sets
   Anastasios Papadopoulos: AUTO-CI, single reference methods and gradients
   Taras Petrenko         : pre 6.0 DFT Hessian and TD-DFT gradient, (ASA, deprecated), ECA, 1-Electron XAS/XES, NRVS
   Peter Pinski           : DLPNO-MP2, DLPNO-MP2 Gradient
   Christoph Reimann      : Effective Core Potentials
   Marius Retegan         : Local ZFS, SOC
   Christoph Riplinger    : Optimizer, TS searches, QM/MM, DLPNO-CCSD(T), (RO)-DLPNO pert. Triples
   Michael Roemelt        : Original ROCIS implementation
   Masaaki Saitow         : Open-shell DLPNO-CCSD energy and density
   Barbara Sandhoefer     : DKH picture change effects
   Kantharuban Sivalingam : CASSCF convergence/infrastructure, NEVPT2 and variants, FIC-MRCI
   Bernardo de Souza      : ESD, SOC TD-DFT
   Georgi Stoychev        : AutoAux, RI-MP2 NMR, DLPNO-MP2 response, X2C
   Van Anh Tran           : RI-MP2 g-tensors
   Willem Van den Heuvel  : Paramagnetic NMR
   Zikuan Wang            : NOTCH, Electric field optimization 
   Frank Wennmohs         : Technical directorship and infrastructure
   Hang Xu                : AUTO-CI-Response properties 


 We gratefully acknowledge several colleagues who have allowed us to
 interface, adapt or use parts of their codes:
   Stefan Grimme, W. Hujo, H. Kruse, P. Pracht,  : VdW corrections, initial TS optimization,
                  C. Bannwarth, S. Ehlert,         DFT functionals, gCP, sTDA/sTD-DF
                  L. Wittmann, M. Mueller
   Ed Valeev, F. Pavosevic, A. Kumar             : LibInt (2-el integral package), F12 methods
   Garnet Chan, S. Sharma, J. Yang, R. Olivares  : DMRG
   Ulf Ekstrom                                   : XCFun DFT Library
   Mihaly Kallay                                 : mrcc  (arbitrary order and MRCC methods)
   Frank Weinhold                                : gennbo (NPA and NBO analysis)
   Simon Mueller                                 : openCOSMO-RS
   Christopher J. Cramer and Donald G. Truhlar   : smd solvation model
   Lars Goerigk                                  : TD-DFT with DH, B97 family of functionals
   V. Asgeirsson, H. Jonsson                     : NEB implementation
   FAccTs GmbH                                   : IRC, NEB, NEB-TS, DLPNO-Multilevel, CI-OPT
                                                   MM, QMMM, 2- and 3-layer-ONIOM, Crystal-QMMM,
                                                   LR-CPCM, SF, NACMEs, symmetry and pop. for TD-DFT,
                                                   nearIR, NL-DFT gradient (VV10), updates on ESD,
                                                   ML-optimized integration grids, MBIS, APM,
                                                   GOAT, DOCKER, SOLVATOR, interface openCOSMO-RS
   S Lehtola, MJT Oliveira, MAL Marques          : LibXC Library
   Liviu Ungur et al                             : ANISO software


 Your calculation uses the libint2 library for the computation of 2-el integrals
 For citations please refer to: http://libint.valeyev.net

 Your ORCA version has been built with support for libXC version: 6.2.2
 For citations please refer to: https://libxc.gitlab.io

 This ORCA versions uses:
   CBLAS   interface :  Fast vector & matrix operations
   LAPACKE interface :  Fast linear algebra routines
   SCALAPACK package :  Parallel linear algebra routines
   Shared memory     :  Shared parallel matrices
   BLAS/LAPACK       :  OpenBLAS 0.3.27  USE64BITINT DYNAMIC_ARCH NO_AFFINITY SkylakeX SINGLE_THREADED
        Core in use  :  SkylakeX
   Copyright (c) 2011-2014, The OpenBLAS Project




***************************************
The coordinates will be read from file: xtb_opt.xyz
***************************************


Your calculation utilizes the geometrical counterpoise correction gCP
Please cite in your paper:
H.Kruse, S. Grimme J.Chem.Phys., 136, (2012), 154101 
   

Your calculation utilizes the atom-pairwise dispersion correction
based on EEQ partial charges (D4)


Your calculation utilizes the SMD solvation module
Please cite in your paper:
A.V. Marenich, C.J. Cramer, D.G. Truhlar J. Phys. Chem. B, 113, (2009), 6378 

================================================================================

----- Orbital basis set information -----
Your calculation utilizes the basis: def2-mTZVPP
   Stefan Grimme, Andreas Hansen, Sebastian Ehlert, and Jan-Michael Mewes 
   J. Chem. Phys. 154, 064103 (2021). DOI: 10.1063/5.0040021

----- AuxJ basis set information -----
Your calculation utilizes the auxiliary basis: def2/J
   F. Weigend, Phys. Chem. Chem. Phys. 8, 1057 (2006).

================================================================================
                                        WARNINGS
                       Please study these warnings very carefully!
================================================================================

WARNING: Old DensityContainer found on disk!
         Will remove this file - 
         If you want to keep old densities, please start your calculation with a different basename. 

Using LibXC functional ID 497 : Re-regularized SCAN exchange by Furness et al
[ 1]  J. W. Furness, A. D. Kaplan, J. Ning, J. P. Perdew, and J. Sun.,  J. Phys. Chem. Lett. 11, 8208-8215 (2020)
[ 2]  J. W. Furness, A. D. Kaplan, J. Ning, J. P. Perdew, and J. Sun.,  J. Phys. Chem. Lett. 11, 9248-9248 (2020)
Using LibXC functional ID 498 : Re-regularized SCAN correlation by Furness et al
[ 1]  J. W. Furness, A. D. Kaplan, J. Ning, J. P. Perdew, and J. Sun.,  J. Phys. Chem. Lett. 11, 8208-8215 (2020)
[ 2]  J. W. Furness, A. D. Kaplan, J. Ning, J. P. Perdew, and J. Sun.,  J. Phys. Chem. Lett. 11, 9248-9248 (2020)
Using LibXC functional ID 497 : Re-regularized SCAN exchange by Furness et al
[ 1]  J. W. Furness, A. D. Kaplan, J. Ning, J. P. Perdew, and J. Sun.,  J. Phys. Chem. Lett. 11, 8208-8215 (2020)
[ 2]  J. W. Furness, A. D. Kaplan, J. Ning, J. P. Perdew, and J. Sun.,  J. Phys. Chem. Lett. 11, 9248-9248 (2020)
Using LibXC functional ID 498 : Re-regularized SCAN correlation by Furness et al
[ 1]  J. W. Furness, A. D. Kaplan, J. Ning, J. P. Perdew, and J. Sun.,  J. Phys. Chem. Lett. 11, 8208-8215 (2020)
[ 2]  J. W. Furness, A. D. Kaplan, J. Ning, J. P. Perdew, and J. Sun.,  J. Phys. Chem. Lett. 11, 9248-9248 (2020)

================================================================================
                                       INPUT FILE
================================================================================
NAME = xtb_opt.inp
|  1> ! r2scan-3c def2/J RI DEFGRID2 scfconv7 ENGRAD tightSCF miniprint
|  2> %cpcm
|  3>     smd true
|  4>     smdsolvent "water"
|  5> end
|  6> * xyzfile 0 1 xtb_opt.xyz
|  7> 
|  8>                          ****END OF INPUT****
================================================================================

                     *******************************
                     * Energy+Gradient Calculation *
                     *******************************

---------------------------------
CARTESIAN COORDINATES (ANGSTROEM)
---------------------------------
  C     -1.172251    0.246221   -0.507357
  C     -0.027640    0.504739    0.475238
  C      0.902730   -0.679127    0.648642
  O      1.486871   -0.984718   -0.630831
  O      0.693432    1.674598    0.050757
  O     -1.977233   -0.877712   -0.126934
  H     -0.769864    0.019538   -1.499661
  H     -1.781789    1.156237   -0.583759
  H     -0.448591    0.745282    1.459389
  H      0.337787   -1.537863    1.035066
  H      1.683790   -0.417408    1.374218
  H      2.191213   -1.626550   -0.481427
  H      1.183623    1.426437   -0.745970
  H     -2.418729   -0.650394    0.701900

----------------------------
CARTESIAN COORDINATES (A.U.)
----------------------------
  NO LB      ZA    FRAG     MASS         X           Y           Z
   0 C     6.0000    0    12.011   -2.215234    0.465290   -0.958766
   1 C     6.0000    0    12.011   -0.052231    0.953818    0.898069
   2 C     6.0000    0    12.011    1.705912   -1.283365    1.225756
   3 O     8.0000    0    15.999    2.809780   -1.860847   -1.192098
   4 O     8.0000    0    15.999    1.310397    3.164532    0.095917
   5 O     8.0000    0    15.999   -3.736428   -1.658635   -0.239870
   6 H     1.0000    0     1.008   -1.454832    0.036922   -2.833949
   7 H     1.0000    0     1.008   -3.367094    2.184971   -1.103145
   8 H     1.0000    0     1.008   -0.847714    1.408379    2.757845
   9 H     1.0000    0     1.008    0.638324   -2.906141    1.955991
  10 H     1.0000    0     1.008    3.181902   -0.788787    2.596896
  11 H     1.0000    0     1.008    4.140793   -3.073733   -0.909766
  12 H     1.0000    0     1.008    2.236724    2.695576   -1.409679
  13 H     1.0000    0     1.008   -4.570736   -1.229067    1.326398

------------------------------------------------------------------------------
                   ___                                                        
                  /   \      - P O W E R E D   B Y -                         
                 /     \                                                     
                 |  |  |   _    _      __       _____    __    __             
                 |  |  |  | |  | |    /  \     |  _  \  |  |  /  |          
                  \  \/   | |  | |   /    \    | | | |  |  | /  /          
                 / \  \   | |__| |  /  /\  \   | |_| |  |  |/  /          
                |  |  |   |  __  | /  /__\  \  |    /   |      \           
                |  |  |   | |  | | |   __   |  |    \   |  |\   \          
                \     /   | |  | | |  |  |  |  | |\  \  |  | \   \       
                 \___/    |_|  |_| |__|  |__|  |_| \__\ |__|  \__/        
                                                                              
                      - O R C A' S   B I G   F R I E N D -                    
                                      &                                       
                       - I N T E G R A L  F E E D E R -                       
                                                                              
 v1 FN, 2020, v2 2021, v3 2022-2024                                           
------------------------------------------------------------------------------


----------------------
SHARK INTEGRAL PACKAGE
----------------------

Number of atoms                             ...     14
Number of basis functions                   ...    169
Number of shells                            ...     81
Maximum angular momentum                    ...      2
Integral batch strategy                     ... SHARK/LIBINT Hybrid
RI-J (if used) integral strategy            ... SPLIT-RIJ (Revised 2003 algorithm where possible)
Printlevel                                  ...      1
Contraction scheme used                     ... SEGMENTED contraction
Prescreening option                         ... SCHWARTZ
   Thresh                                   ... 3.000e-11
   Tcut                                     ... 1.000e-12
   Tpresel                                  ... 1.000e-12 
Coulomb Range Separation                    ... NOT USED
Exchange Range Separation                   ... NOT USED
Multipole approximations                    ... NOT USED
Finite Nucleus Model                        ... NOT USED
CABS basis                                  ... NOT available
Auxiliary Coulomb fitting basis             ... AVAILABLE
   # of basis functions in Aux-J            ...    382
   # of shells in Aux-J                     ...    130
   Maximum angular momentum in Aux-J        ...      4
Auxiliary J/K fitting basis                 ... NOT available
Auxiliary Correlation fitting basis         ... NOT available
Auxiliary 'external' fitting basis          ... NOT available

Checking pre-screening integrals            ... done (  0.0 sec) Dimension = 81
Check shell pair data                       ... done (  0.0 sec)
Shell pair information
Shell pair cut-off parameter TPreSel        ...   1.0e-12
Total number of shell pairs                 ...      3321
Shell pairs after pre-screening             ...      3155
Total number of primitive shell pairs       ...     11632
Primitive shell pairs kept                  ...      8290
          la=0 lb=0:   1000 shell pairs
          la=1 lb=0:   1139 shell pairs
          la=1 lb=1:    339 shell pairs
          la=2 lb=0:    402 shell pairs
          la=2 lb=1:    230 shell pairs
          la=2 lb=2:     45 shell pairs

Calculating one electron integrals          ... done (  0.0 sec)
Calculating RI/J V-Matrix + Cholesky decomp.... done (  0.1 sec)
Calculating Nuclear repulsion               ... done (  0.0 sec) ENN=    263.589866459854 Eh

Diagonalization of the overlap matrix:
Smallest eigenvalue                        ... 1.785e-04
Time for diagonalization                   ...    0.003 sec
Threshold for overlap eigenvalues          ... 1.000e-07
Number of eigenvalues below threshold      ... 0
Time for construction of square roots      ...    0.016 sec
Total time needed                          ...    0.027 sec

-------------------
DFT GRID GENERATION
-------------------

General Integration Accuracy     IntAcc      ... 4.388
Radial Grid Type                 RadialGrid  ... OptM3 with GC (2021)
Angular Grid (max. ang.)         AngularGrid ... 4 (Lebedev-302)
Angular grid pruning method      GridPruning ... 4 (adaptive)
Weight generation scheme         WeightScheme... mBecke (2022)
Basis function cutoff            BFCut       ... 1.0000e-11
Integration weight cutoff        WCut        ... 1.0000e-14
Partially contracted basis set               ... off
Rotationally invariant grid construction     ... off
Angular grids for H and He will be reduced by one unit
Diffuse basis detected: some atoms will have their outermost
                        angular grid increased by 1.

Total number of grid points                  ...    63050
Total number of batches                      ...      990
Average number of points per batch           ...       63
Average number of grid points per atom       ...     4504
Initializing property integral containers    ... done (  0.0 sec)

SHARK setup successfully completed in   0.9 seconds

Maximum memory used throughout the entire STARTUP-calculation: 27.9 MB
Occupation numbers will be reassigned to an Aufbau configuration
             **** ENERGY FILE WAS UPDATED (xtb_opt.en.tmp) ****
Finished Guess after   0.3 sec
Maximum memory used throughout the entire GUESS-calculation: 11.5 MB
--------------------
CPCM SOLVATION MODEL
--------------------
CPCM parameters:
  Epsilon                                         ...      78.3550
  Refrac                                          ...       1.3328
  Rsolv                                           ...       1.3000
  Surface type                                    ... GAUSSIAN VDW
  Discretization scheme                           ... Constant charge density
    Threshold for H atoms                         ...       5.0000 (charges/Ang^2)
    Threshold for non-H atoms                     ...       5.0000 (charges/Ang^2)
  Epsilon function type                           ...         CPCM
Solvent:                                          ... WATER
SMD-CDS solvent descriptors:
  Soln                                            ...       1.3328
  Soln25                                          ...       1.3323
  Sola                                            ...       0.0000
  Solb                                            ...       0.0000
  Solg                                            ...       0.0000
  Solc                                            ...       0.0000
  Solh                                            ...       0.0000
Radii:
  Scheme                                          ... Element-dependent radii
  Radius for C  used is    3.4960 Bohr (=   1.8500 Ang.)
  Radius for O  used is    2.8724 Bohr (=   1.5200 Ang.)
  Radius for H  used is    2.2677 Bohr (=   1.2000 Ang.)
Calculating surface                               ...        done! (  0.0s)
Cavity surface points                             ...         1014
Cavity Volume                                     ...     607.6540
Cavity Surface-area                               ...     428.9377
Calculating surface distance matrix               ...        done! (  0.0s)
Performing Cholesky decomposition & store         ...        done! (  0.1s)
Overall time for CPCM initialization              ...                 0.1s

----------------------------------------D-I-I-S--------------------------------------------
Iteration    Energy (Eh)           Delta-E    RMSDP     MaxDP     DIISErr   Damp  Time(sec)
-------------------------------------------------------------------------------------------
               ***  Starting incremental Fock matrix formation  ***
                              *** Initializing SOSCF ***
---------------------------------------S-O-S-C-F--------------------------------------
Iteration    Energy (Eh)           Delta-E    RMSDP     MaxDP     MaxGrad    Time(sec)
--------------------------------------------------------------------------------------
    1    -344.7582990322945307     0.00e+00  4.80e-05  1.46e-03  7.11e-05     2.6
               *** Restarting incremental Fock matrix formation ***
    2    -344.7583065025519318    -7.47e-06  1.63e-05  4.34e-04  6.61e-05     2.4
    3    -344.7583068142619140    -3.12e-07  7.46e-06  2.48e-04  3.33e-05     2.0
    4    -344.7583068206839698    -6.42e-09  4.18e-06  1.09e-04  2.76e-05     1.9
                 **** Energy Check signals convergence ****

               *****************************************************
               *                     SUCCESS                       *
               *           SCF CONVERGED AFTER   4 CYCLES          *
               *****************************************************


SMD CDS free energy correction energy :                 3.00443     Kcal/mol
Total Energy after SMD CDS correction =              -344.753518953 Eh
             **** ENERGY FILE WAS UPDATED (xtb_opt.en.tmp) ****

----------------
TOTAL SCF ENERGY
----------------

Total Energy       :       -344.75351895254357 Eh           -9381.22018 eV

Components:
Nuclear Repulsion  :        263.58986645985431 Eh            7172.64492 eV
Electronic Energy  :       -608.31628581236100 Eh          -16553.12768 eV
One Electron Energy:       -994.19543910375967 Eh          -27053.43327 eV
Two Electron Energy:        385.87915329139861 Eh           10500.30559 eV
CPCM Dielectric    :         -0.03188746817725 Eh              -0.86770 eV
SMD CDS (Gcds)     :          0.00478786814040 Eh               0.13028 eV

Virial components:
Potential Energy   :       -687.99965482201526 Eh          -18721.42239 eV
Kinetic Energy     :        343.24613586947169 Eh            9340.20220 eV
Virial Ratio       :          2.00439155150066

DFT components:
N(Alpha)           :       24.999952432100 electrons
N(Beta)            :       24.999952432100 electrons
N(Total)           :       49.999904864200 electrons
E(X)               :      -43.300427839371 Eh       
E(C)               :       -1.626632867277 Eh       
E(XC)              :      -44.927060706648 Eh       

CPCM Solvation Model Properties:
Surface-charge          :         -0.04008125905814
Corrected charge        :          0.00000000000000
Outlying charge corr.   :          0.00014273811545 Eh               0.00388 eV
Free-energy (cav+disp)  :          0.00478786814040 Eh               0.13028 eV

---------------
SCF CONVERGENCE
---------------

  Last Energy change         ...    6.4221e-09  Tolerance :   1.0000e-07
  Last MAX-Density change    ...    1.0928e-04  Tolerance :   1.0000e-07
  Last RMS-Density change    ...    4.1753e-06  Tolerance :   5.0000e-09
  Last DIIS Error            ...    9.8339e-04  Tolerance :   1.0000e-07
  Last Orbital Gradient      ...    2.7607e-05  Tolerance :   1.0000e-04
  Last Orbital Rotation      ...    3.5698e-05  Tolerance :   1.0000e-04


----------------
ORBITAL ENERGIES
----------------

  NO   OCC          E(Eh)            E(eV) 
   0   2.0000     -18.956661      -515.8370 
   1   2.0000     -18.955982      -515.8185 
   2   2.0000     -18.955430      -515.8035 
   3   2.0000     -10.082101      -274.3479 
   4   2.0000     -10.073529      -274.1146 
   5   2.0000     -10.073013      -274.1006 
   6   2.0000      -0.999142       -27.1880 
   7   2.0000      -0.983157       -26.7531 
   8   2.0000      -0.975239       -26.5376 
   9   2.0000      -0.722278       -19.6542 
  10   2.0000      -0.643285       -17.5047 
  11   2.0000      -0.567778       -15.4500 
  12   2.0000      -0.489270       -13.3137 
  13   2.0000      -0.469928       -12.7874 
  14   2.0000      -0.461096       -12.5471 
  15   2.0000      -0.424701       -11.5567 
  16   2.0000      -0.414809       -11.2875 
  17   2.0000      -0.379582       -10.3290 
  18   2.0000      -0.355766        -9.6809 
  19   2.0000      -0.337428        -9.1819 
  20   2.0000      -0.321409        -8.7460 
  21   2.0000      -0.292777        -7.9669 
  22   2.0000      -0.270125        -7.3505 
  23   2.0000      -0.247445        -6.7333 
  24   2.0000      -0.233115        -6.3434 
  25   0.0000       0.053471         1.4550 
  26   0.0000       0.062021         1.6877 
  27   0.0000       0.111102         3.0232 
  28   0.0000       0.123380         3.3573 
  29   0.0000       0.136485         3.7139 
  30   0.0000       0.149730         4.0744 
  31   0.0000       0.162144         4.4122 
  32   0.0000       0.169447         4.6109 
  33   0.0000       0.176602         4.8056 
  34   0.0000       0.194382         5.2894 
  35   0.0000       0.205061         5.5800 
*Only the first 10 virtual orbitals were printed.
Total SCF time: 0 days 0 hours 0 min 9 sec 
Finished LeanSCF after   9.5 sec

Maximum memory used throughout the entire LEANSCF-calculation: 17.7 MB


-------------------------------------------------------------------------------
                          DFT DISPERSION CORRECTION                            
                                                                               
                                DFTD4 V3.4.0                                   
-------------------------------------------------------------------------------
-------------------------   ----------------
Dispersion correction           -0.003049927
-------------------------   ----------------

------------------   -----------------
gCP correction             0.010216782
------------------   -----------------

-------------------------   --------------------
FINAL SINGLE POINT ENERGY      -344.746352097777
-------------------------   --------------------

------------------------------------------------------------------------------
                         ORCA SCF GRADIENT CALCULATION
------------------------------------------------------------------------------

Nuc. rep. gradient        (SHARK) ... done (  0.0 sec)
HCore & Overlap gradient  (SHARK) ... done (  0.2 sec)
Split-RIJ-J gradient      (SHARK) ... done (  1.0 sec)
XC gradient                       ... done (  4.4 sec)
CPCM gradient                     ... done (  0.5 sec)
SMD gradient                      ... done (  0.0 sec)
Dispersion correction             ... done (  0.0 sec)

-------------------
DISPERSION GRADIENT
-------------------

   1   C   :   -0.000033787    0.000015422   -0.000013711
   2   C   :   -0.000002550    0.000011167    0.000007700
   3   C   :    0.000029573   -0.000016711    0.000022315
   4   O   :    0.000060925   -0.000038382   -0.000009563
   5   O   :    0.000028320    0.000048899   -0.000013131
   6   O   :   -0.000074597   -0.000014056    0.000006672
   7   H   :   -0.000016711   -0.000000238   -0.000012254
   8   H   :   -0.000023281    0.000008797   -0.000007966
   9   H   :   -0.000001541    0.000013711    0.000010894
  10   H   :    0.000011678   -0.000017626    0.000007604
  11   H   :    0.000022356   -0.000006750    0.000010990
  12   H   :    0.000020832   -0.000015486   -0.000008876
  13   H   :    0.000004834    0.000023995    0.000009272
  14   H   :   -0.000026051   -0.000012742   -0.000009944

Difference to translation invariance:
           :    0.0000000000    0.0000000000    0.0000000000

Difference to rotation invariance:
           :   -0.0000000000   -0.0000000000    0.0000000000

Norm of the Dispersion gradient    ...    0.0001510909
RMS gradient                       ...    0.0000233138
MAX gradient                       ...    0.0000745967
gCP correction                   ... done

------------------
CARTESIAN GRADIENT
------------------

   1   C   :    0.000008266    0.000086877    0.000023904
   2   C   :    0.000102451    0.000261093   -0.000138573
   3   C   :   -0.000058612   -0.000060894    0.000279456
   4   O   :    0.000170274    0.000008639   -0.000212326
   5   O   :   -0.000085212   -0.000193020    0.000004717
   6   O   :   -0.000043389   -0.000075340    0.000105212
   7   H   :   -0.000037822    0.000020445    0.000057140
   8   H   :   -0.000006691   -0.000024279    0.000009618
   9   H   :    0.000023914    0.000020075   -0.000001855
  10   H   :    0.000076284    0.000006754   -0.000084846
  11   H   :    0.000015615    0.000003241   -0.000011988
  12   H   :   -0.000159772   -0.000066889    0.000028081
  13   H   :    0.000009825   -0.000001215    0.000018585
[...]
Two Electron Energy:        385.88314510443689 Eh           10500.41421 eV
CPCM Dielectric    :         -0.03191977154894 Eh              -0.86858 eV
SMD CDS (Gcds)     :          0.00478786625005 Eh               0.13028 eV

Virial components:
Potential Energy   :       -687.99966545847474 Eh          -18721.42268 eV
Kinetic Energy     :        343.24614547156085 Eh            9340.20246 eV
Virial Ratio       :          2.00439152641695

DFT components:
N(Alpha)           :       24.999952478362 electrons
N(Beta)            :       24.999952478362 electrons
N(Total)           :       49.999904956725 electrons
E(X)               :      -43.300384937299 Eh       
E(C)               :       -1.626641221410 Eh       
E(XC)              :      -44.927026158709 Eh       

CPCM Solvation Model Properties:
Surface-charge          :         -0.04008618180207
Corrected charge        :          0.00000000000000
Outlying charge corr.   :          0.00014277447946 Eh               0.00389 eV
Free-energy (cav+disp)  :          0.00478786625005 Eh               0.13028 eV

---------------
SCF CONVERGENCE
---------------

  Last Energy change         ...    1.6951e-10  Tolerance :   1.0000e-07
  Last MAX-Density change    ...    5.6088e-06  Tolerance :   1.0000e-07
  Last RMS-Density change    ...    2.3204e-07  Tolerance :   5.0000e-09
  Last DIIS Error            ...    9.1707e-06  Tolerance :   1.0000e-07
  Last Orbital Gradient      ...    1.0484e-06  Tolerance :   1.0000e-04
  Last Orbital Rotation      ...    1.2284e-06  Tolerance :   1.0000e-04


----------------
ORBITAL ENERGIES
----------------

  NO   OCC          E(Eh)            E(eV) 
   0   2.0000     -18.956408      -515.8301 
   1   2.0000     -18.956195      -515.8243 
   2   2.0000     -18.955614      -515.8085 
   3   2.0000     -10.082078      -274.3473 
   4   2.0000     -10.073564      -274.1156 
   5   2.0000     -10.073053      -274.1017 
   6   2.0000      -0.999064       -27.1859 
   7   2.0000      -0.983321       -26.7575 
   8   2.0000      -0.975199       -26.5365 
   9   2.0000      -0.722361       -19.6564 
  10   2.0000      -0.643357       -17.5066 
  11   2.0000      -0.567745       -15.4491 
  12   2.0000      -0.489401       -13.3173 
  13   2.0000      -0.469951       -12.7880 
  14   2.0000      -0.461050       -12.5458 
  15   2.0000      -0.424884       -11.5617 
  16   2.0000      -0.414665       -11.2836 
  17   2.0000      -0.379700       -10.3322 
  18   2.0000      -0.355662        -9.6781 
  19   2.0000      -0.337579        -9.1860 
  20   2.0000      -0.321223        -8.7409 
  21   2.0000      -0.292942        -7.9714 
  22   2.0000      -0.269994        -7.3469 
  23   2.0000      -0.247526        -6.7355 
  24   2.0000      -0.233130        -6.3438 
  25   0.0000       0.053491         1.4556 
  26   0.0000       0.061986         1.6867 
  27   0.0000       0.111021         3.0210 
  28   0.0000       0.123367         3.3570 
  29   0.0000       0.136408         3.7119 
  30   0.0000       0.149793         4.0761 
  31   0.0000       0.162115         4.4114 
  32   0.0000       0.169523         4.6130 
  33   0.0000       0.176637         4.8065 
  34   0.0000       0.194233         5.2853 
  35   0.0000       0.205139         5.5821 
*Only the first 10 virtual orbitals were printed.
Total SCF time: 0 days 0 hours 0 min 5 sec 
Finished LeanSCF after   5.3 sec

Maximum memory used throughout the entire LEANSCF-calculation: 17.8 MB


-------------------------------------------------------------------------------
                          DFT DISPERSION CORRECTION                            
                                                                               
                                DFTD4 V3.4.0                                   
-------------------------------------------------------------------------------
-------------------------   ----------------
Dispersion correction           -0.003050086
-------------------------   ----------------

------------------   -----------------
gCP correction             0.010215394
------------------   -----------------

-------------------------   --------------------
FINAL SINGLE POINT ENERGY      -344.746354679411
-------------------------   --------------------

------------------------------------------------------------------------------
                         ORCA SCF GRADIENT CALCULATION
------------------------------------------------------------------------------

Nuc. rep. gradient        (SHARK) ... done (  0.0 sec)
HCore & Overlap gradient  (SHARK) ... done (  0.2 sec)
Split-RIJ-J gradient      (SHARK) ... done (  1.0 sec)
XC gradient                       ... done (  4.4 sec)
CPCM gradient                     ... done (  0.5 sec)
SMD gradient                      ... done (  0.0 sec)
Dispersion correction             ... done (  0.0 sec)

-------------------
DISPERSION GRADIENT
-------------------

   1   C   :   -0.000033759    0.000015448   -0.000013729
   2   C   :   -0.000002562    0.000011192    0.000007690
   3   C   :    0.000029558   -0.000016722    0.000022379
   4   O   :    0.000060985   -0.000038376   -0.000009610
   5   O   :    0.000028292    0.000048876   -0.000013128
   6   O   :   -0.000074557   -0.000014023    0.000006717
   7   H   :   -0.000016721   -0.000000247   -0.000012275
   8   H   :   -0.000023258    0.000008805   -0.000007971
   9   H   :   -0.000001548    0.000013690    0.000010888
  10   H   :    0.000011679   -0.000017643    0.000007622
  11   H   :    0.000022350   -0.000006760    0.000010983
  12   H   :    0.000020789   -0.000015527   -0.000008871
  13   H   :    0.000004838    0.000024008    0.000009287
  14   H   :   -0.000026087   -0.000012722   -0.000009981

Difference to translation invariance:
           :    0.0000000000    0.0000000000    0.0000000000

Difference to rotation invariance:
           :    0.0000000000    0.0000000000    0.0000000000

Norm of the Dispersion gradient    ...    0.0001510979
RMS gradient                       ...    0.0000233149
MAX gradient                       ...    0.0000745569
gCP correction                   ... done

------------------
CARTESIAN GRADIENT
------------------

   1   C   :   -0.000025175   -0.000124134   -0.000078210
   2   C   :   -0.000007785   -0.000242360    0.000107116
   3   C   :   -0.000162196    0.000049142   -0.000105362
   4   O   :    0.000105921    0.000033538    0.000096608
   5   O   :    0.000036265    0.000103904   -0.000074422
   6   O   :    0.000047528    0.000066604    0.000095040
   7   H   :   -0.000060878    0.000042927    0.000026903
   8   H   :    0.000008613    0.000027207    0.000035660
   9   H   :    0.000041243    0.000026008    0.000024928
  10   H   :    0.000046052    0.000052335   -0.000000032
  11   H   :    0.000017622    0.000023474    0.000041970
  12   H   :   -0.000090078   -0.000088674   -0.000090343
  13   H   :    0.000019046   -0.000007742   -0.000014990
  14   H   :    0.000023822    0.000037771   -0.000064867

Difference to translation invariance:
           :   -0.0000000000   -0.0000000000   -0.0000000000

Difference to rotation invariance:
           :   -0.0001159544    0.0005364478   -0.0005258367

Norm of the Cartesian gradient     ...    0.0004869689
RMS gradient                       ...    0.0000751409
MAX gradient                       ...    0.0002423595

-------
TIMINGS
-------

Total SCF gradient time     ....        6.635 sec

Densities                   ....       0.000 sec  (  0.0%)
One electron gradient       ....       0.170 sec  (  2.6%)
RI-J Coulomb gradient       ....       1.037 sec  ( 15.6%)
XC gradient                 ....       4.405 sec  ( 66.4%)
CPCM gradient               ....       0.508 sec  (  7.6%)
   A-Matrix (El+Nuc)        ....       0.041 sec  (  0.6%)
   Potential                ....       0.466 sec  (  7.0%)
SMD gradient                ....       0.012 sec  (  0.2%)

Maximum memory used throughout the entire SCFGRAD-calculation: 31.6 MB

------------------------------------------------------------------------------
                              ORCA PROPERTY CALCULATIONS
------------------------------------------------------------------------------

GBWName                                 ... xtb_opt.gbw
Number of atoms                         ...     14
Number of basis functions               ...    169
Max core memory                         ...   1024 MB

Electric properties:
Dipole moment                           ... YES
Quadrupole moment                       ...  NO
Static polarizability (Dipole/Dipole)   ...  NO
Static polarizability (Dipole/Quad.)    ...  NO
Static polarizability (Quad./Quad.)     ...  NO
Static polarizability (Velocity)        ...  NO

Atomic electric properties:
Dipole moment                           ...  NO
Quadrupole moment                       ...  NO
Static polarizability                   ...  NO

Choice of electric origin               ... Center of mass
Position of electric origin             ...    -0.008245    -0.063127    -0.054260

General magnetic properties:
Magnetizability                         ...  NO

EPR properties:
g-Tensor (aka g-matrix)                 ...  NO
Zero-Field splitting spin-orbit         ...  NO
Zero-field splitting spin-spin          ...  NO
Hyperfine couplings                     ...  NO (   0 nuclei)
Quadrupole couplings                    ...  NO (   0 nuclei)
Contact density                         ...  NO (   0 nuclei)

NMR properties:
Chemical shifts                         ...  NO (   0 nuclei)
Spin-rotation constants                 ...  NO (   0 nuclei)
Spin-spin couplings                     ...  NO (   0 nuclei,    0 pairs)

Choice of magnetic origin               ... GIAO
Position of magnetic origin             ...     0.000000     0.000000     0.000000

Properties with geometric perturbations:
SCF Hessian                             ...  NO
IR spectrum                             ...  NO
VCD spectrum                            ...  NO
X-ray spectroscopy properties:
SCF XES/XAS/RIXS spectra                ...  NO


-------------
DIPOLE MOMENT
-------------

Method             : SCF
Type of density    : Electron Density
Multiplicity       :   1
Irrep              :   0
Energy             :  -344.7535199869138296 Eh
Relativity type    : 
Basis              : AO
                                X                 Y                 Z
Electronic contribution:      0.317298962       0.159781656      -0.526944331
Nuclear contribution   :      0.018658564      -0.577435171       1.388931778
                        -----------------------------------------
Total Dipole Moment    :      0.335957526      -0.417653515       0.861987448
                        -----------------------------------------
Magnitude (a.u.)       :      1.015048904
Magnitude (Debye)      :      2.580049275



--------------------
Rotational spectrum 
--------------------
 
Rotational constants in cm-1:             0.144317             0.094715             0.069287 
Rotational constants in MHz :          4326.520121          2839.490933          2077.163937 

Dipole components along the rotational axes: 
x,y,z [a.u.] :     0.311655    -0.378980     0.888577 
x,y,z [Debye]:     0.792164    -0.963290     2.258584 

 

Dipole moment calculation done in   0.0 sec 

Maximum memory used throughout the entire PROP-calculation: 9.9 MB

--------------------------------
SUGGESTED CITATIONS FOR THIS RUN
--------------------------------

Below you find a list of papers that are relevant to this ORCA run
We neither can nor want to force you to cite these papers, but we appreciate if you do
You receive ORCA, which is the product of decades of hard work by many enthusiastic individuals, for free
The only thing we kindly ask in return is that you cite our papers,
We deeply appreciate it, if you show your appreciation for ORCA by not just citing the generic ORCA reference.

Please note that relegating all ORCA citations to the supporting information does *not* help us.
SI sections are not indexed - citations you put there will not count into any citation statistics
But we need these citations in order to attract the funding resources that allow us to do what we are doing

Therefore, if you are a happy ORCA user, please consider citing a few of the papers listed below in the main body of your paper

In addition to the list printed below, the program has created the file xtb_opt.bibtex that contains the list in bibtex format
You can import this file easily into all common literature databanks and citation aid programs


List of essential papers. We consider these as the minimum necessary citations

  1. Neese,F.
     Software update: the ORCA program system, version 5.0
     WIRES Comput. Molec. Sci., 2022 12(1)e1606
     doi.org/10.1002/wcms.1606
  2. Grimme,S.; Hansen,A.; Ehlert,S.; Mewes,J.
     r2SCAN-3c: A 'Swiss army knife' composite electronic-structure method
     J. Chem. Phys., 2021 154 064103
     doi.org/10.1063/5.0040021

List of papers to cite with high priority. The work reported in these papers was absolutely
necessary for this run to complete.
Our perspective: the developers of density functionals and basis sets usually get cited in chemistry papers
Good! But without the algorithms to do something with them, the functionals or basis sets would not do anything.
Hence, in our opinion, the algorithm design and method developments papers are equally worthy of getting cited

  1. Neese,F.
     An improvement of the resolution of the identity approximation for the formation of the Coulomb matrix
     J. Comp. Chem., 2003 24(14)1740-1747
     doi.org/10.1002/jcc.10318
  2. Garcia-Rates,M.; Neese,F.
     Effect of the Solute Cavity on the Solvation Energy and its Derivatives within the Framework of the Gaussian Charge Scheme
     J. Comput. Chem., 2020 41 922-939
     doi.org/10.1002/jcc.26139
  3. Neese,F.
     The SHARK Integral Generation and Digestion System
     J. Comp. Chem., 2022  1-16
     doi.org/10.1002/jcc.26942
  4. Lehtola,S.; Steigemann,C.; Oliveira,M.; Marques,M.
     Recent developments in Libxc - A comprehensive library of functionals for density functional theory
     Software X, 2018 7 
     doi.org/10.1016/j.softx.2017.11.002
  5. Caldeweyher,E.; Bannwarth,C.; Grimme,S.
     Extension of the D3 dispersion coefficient model
     J. Chem. Phys., 2017 147 034112-XXXX
     doi.org/10.1063/1.4993215
  6. Caldeweyher,E.; Ehlert,S.; Hansen,A.; Neugebauer,H.; Spicher,S.; Bannwarth,C.; Grimme,S.
     A generally applicable atomic-charge dependent London dispersion correction
     J. Chem. Phys., 2019 150 154122-XXXX
     doi.org/10.1063/1.5090222
  7. Caldeweyher,E.; Mewes,J.; Ehlert,S.; Grimme,S.
     Extension and evaluation of the D4 London-dispersion model for periodic systems
     Phys. Chem. Chem. Phys., 2020 22(16)8499-8512
     doi.org/10.1039/D0CP00502A

List of suggested additional citations. These are papers that are important in the 'surrounding' of 
of this run, or papers that preceded the highly important papers. If you like your results we are grateful for a citation.

  1. Neese,F.
     The ORCA program system
     WIRES Comput. Molec. Sci., 2012 2(1)73-78
     doi.org/10.1002/wcms.81
  2. Neese,F.
     Software update: the ORCA program system, version 4.0
     WIRES Comput. Molec. Sci., 2018 8(1)1-6
     doi.org/10.1002/wcms.1327
  3. Neese,F.; Wennmohs,F.; Becker,U.; Riplinger,C.
     The ORCA quantum chemistry program package
     J. Chem. Phys., 2020 152 Art. No. L224108
     doi.org/10.1063/5.0004608

List of optional additional citations

  1. Neese,F.
     Approximate second-order SCF convergence for spin unrestricted wavefunctions
     Chem. Phys. Lett., 2000 325(1-3)93-98
     doi.org/10.1016/s0009-2614(00)00662-x

Timings for individual modules:

Sum of individual times          ...       13.491 sec (=   0.225 min)
Startup calculation              ...        0.991 sec (=   0.017 min)   7.3 %
SCF iterations                   ...        5.658 sec (=   0.094 min)  41.9 %
Property calculations            ...        0.105 sec (=   0.002 min)   0.8 %
SCF Gradient evaluation          ...        6.737 sec (=   0.112 min)  49.9 %
                             ****ORCA TERMINATED NORMALLY****
TOTAL RUN TIME: 0 days 0 hours 0 minutes 14 seconds 342 msec
  ------------------------------------------------------------------------
          * successful ORCA run, taking over control again...

         :::::::::::::::::::::::::::::::::::::::::::::::::::::
         ::                  ORCA SUMMARY                   ::
         :::::::::::::::::::::::::::::::::::::::::::::::::::::
         :: total energy            -344.746354679411 Eh    ::
         :: gradient norm              0.000486968857 Eh/a0 ::
         :: HOMO-LUMO gap              0.000000000000 eV    ::
         :::::::::::::::::::::::::::::::::::::::::::::::::::::

           -------------------------------------------------
          |                Property Printout                |
           -------------------------------------------------
           -------------------------------------------------
          |                Geometry Summary                 |
           -------------------------------------------------

      molecular mass/u    :       92.0939485
   center of mass at/Å    :       -0.0043613      -0.0334058      -0.0287186
  moments of inertia/u·Å² :        0.1168099E+03   0.1779830E+03   0.2433048E+03
rotational constants/cm⁻¹ :        0.1443168E+00   0.9471485E-01   0.6928607E-01

 * 13 selected distances

     #   Z          #   Z                                           value/Å
     1   6 C        2   6 C                                       1.5304710 (max)
     2   6 C        3   6 C                                       1.5151712
     3   6 C        4   8 O                                       1.4387650
     2   6 C        5   8 O                                       1.4390576
     1   6 C        6   8 O                                       1.4335595
     1   6 C        7   1 H                                       1.0945223
     1   6 C        8   1 H                                       1.0980496
     2   6 C        9   1 H                                       1.0971047
     3   6 C       10   1 H                                       1.0982471
     3   6 C       11   1 H                                       1.0978117
     4   8 O       12   1 H                                       0.9645823 (min)
     5   8 O       13   1 H                                       0.9678326
     6   8 O       14   1 H                                       0.9662259

 * 4 distinct bonds (by element types)

   Z      Z             #   av. dist./Å        max./Å        min./Å
   1 H    6 C           5     1.0971471     1.0982471     1.0945223
   6 C    6 C           2     1.5228211     1.5304710     1.5151712
   1 H    8 O           3     0.9662136     0.9678326     0.9645823
   6 C    8 O           3     1.4371274     1.4390576     1.4335595


optimized geometry written to: xtbopt.coord


           -------------------------------------------------
          | TOTAL ENERGY             -344.746354679411 Eh   |
          | GRADIENT NORM               0.000486968857 Eh/α |
           -------------------------------------------------

------------------------------------------------------------------------
 * finished run on 2025/04/11 at 11:39:03.518     
------------------------------------------------------------------------
 total:
 * wall-time:     0 d,  0 h,  1 min,  7.147 sec
 *  cpu-time:     0 d,  0 h,  0 min,  2.139 sec
 * ratio c/w:     0.032 speedup
 SCF:
 * wall-time:     0 d,  0 h,  0 min, 14.860 sec
 *  cpu-time:     0 d,  0 h,  0 min,  1.445 sec
 * ratio c/w:     0.097 speedup
 ANC optimizer:
 * wall-time:     0 d,  0 h,  0 min, 52.215 sec
 *  cpu-time:     0 d,  0 h,  0 min,  0.509 sec
 * ratio c/w:     0.010 speedup

