
                                 *****************
                                 * O   R   C   A *
                                 *****************

                                            #,                                       
                                            ###                                      
                                            ####                                     
                                            #####                                    
                                            ######                                   
                                           ########,                                 
                                     ,,################,,,,,                         
                               ,,#################################,,                 
                          ,,##########################################,,             
                       ,#########################################, ''#####,          
                    ,#############################################,,   '####,        
                  ,##################################################,,,,####,       
                ,###########''''           ''''###############################       
              ,#####''   ,,,,##########,,,,          '''####'''          '####       
            ,##' ,,,,###########################,,,                        '##       
           ' ,,###''''                  '''############,,,                           
         ,,##''                                '''############,,,,        ,,,,,,###''
      ,#''                                            '''#######################'''  
     '                                                          ''''####''''         
             ,#######,   #######,   ,#######,      ##                                
            ,#'     '#,  ##    ##  ,#'     '#,    #''#        ,####,   ,####,        
            ##       ##  ##   ,#'  ##            #'  '#       #'       #'  '#        
            ##       ##  #######   ##           ,######,      #####,   #    #        
            '#,     ,#'  ##    ##  '#,     ,#' ,#      #,     #,   #   #,  ,#        
             '#######'   ##     ##  '#######'  #'      '#     '####' # '####'        



                #########################################################
                #                        -***-                          #
                #          Department of theory and spectroscopy        #
                #                                                       #
                #                      Frank Neese                      #
                #                                                       #
                #     Directorship, Architecture, Infrastructure        #
                #                    SHARK, DRIVERS                     #
                #        Core code/Algorithms in most modules           #
                #                                                       #
                #        Max Planck Institute fuer Kohlenforschung      #
                #                Kaiser Wilhelm Platz 1                 #
                #                 D-45470 Muelheim/Ruhr                 #
                #                      Germany                          #
                #                                                       #
                #                  All rights reserved                  #
                #                        -***-                          #
                #########################################################


                         Program Version 6.0.0  -   RELEASE  -


 With contributions from (in alphabetic order):
   Daniel Aravena         : Magnetic Suceptibility
   Michael Atanasov       : Ab Initio Ligand Field Theory (pilot matlab implementation)
   Alexander A. Auer      : GIAO ZORA, VPT2 properties, NMR spectrum
   Ute Becker             : All parallelization in ORCA, NUMFREQ, NUMCALC
   Giovanni Bistoni       : ED, misc. LED, open-shell LED, HFLD
   Martin Brehm           : Molecular dynamics
   Dmytro Bykov           : pre 5.0 version of the SCF Hessian
   Marcos Casanova-Páez   : Triplet and SCS-CIS(D). UHF-(DLPNO)-IP/EA/STEOM-CCSD. UHF-CVS-IP/STEOM-CCSD
   Vijay G. Chilkuri      : MRCI spin determinant printing, contributions to CSF-ICE
   Pauline Colinet        : FMM embedding
   Dipayan Datta          : RHF DLPNO-CCSD density
   Achintya Kumar Dutta   : EOM-CC, STEOM-CC
   Nicolas Foglia         : Exact transition moments, OPA infrastructure, MCD improvements
   Dmitry Ganyushin       : Spin-Orbit,Spin-Spin,Magnetic field MRCI
   Miquel Garcia          : C-PCM and meta-GGA Hessian, CCSD/C-PCM, Gaussian charge scheme
   Tiago L. C. Gouveia    : GS-ROHF, GS-ROCIS
   Yang Guo               : DLPNO-NEVPT2, F12-NEVPT2, CIM, IAO-localization
   Andreas Hansen         : Spin unrestricted coupled pair/coupled cluster methods
   Ingolf Harden          : AUTO-CI MPn and infrastructure 
   Benjamin Helmich-Paris : MC-RPA, TRAH-(SCF,CASSCF), AVAS, COSX integrals, SCF dyn. polar.
   Lee Huntington         : MR-EOM, pCC
   Robert Izsak           : Overlap fitted RIJCOSX, COSX-SCS-MP3, EOM
   Riya Kayal             : Wick's Theorem for AUTO-CI, AUTO-CI UHF-CCSDT
   Emily Kempfer          : AUTO-CI, RHF CISDT and CCSDT
   Christian Kollmar      : KDIIS, OOCD, Brueckner-CCSD(T), CCSD density, CASPT2, CASPT2-K, improved NEVPT2
   Axel Koslowski         : Symmetry handling
   Simone Kossmann        : Meta GGA functionals, TD-DFT gradient, OOMP2, (MP2 Hessian; deprecated post 5.0)
   Lucas Lang             : DCDCAS
   Marvin Lechner         : AUTO-CI (C++ implementation), FIC-MRCC
   Spencer Leger          : CASSCF response
   Dagmar Lenk            : GEPOL surface, SMD, ORCA-2-JSON
   Dimitrios Liakos       : Extrapolation schemes; Compound Job, initial MDCI parallelization
   Dimitrios Manganas     : Further ROCIS development; embedding schemes. LFT, Crystal Embedding
   Dimitrios Pantazis     : SARC Basis sets
   Anastasios Papadopoulos: AUTO-CI, single reference methods and gradients
   Taras Petrenko         : pre 6.0 DFT Hessian and TD-DFT gradient, (ASA, deprecated), ECA, 1-Electron XAS/XES, NRVS
   Peter Pinski           : DLPNO-MP2, DLPNO-MP2 Gradient
   Christoph Reimann      : Effective Core Potentials
   Marius Retegan         : Local ZFS, SOC
   Christoph Riplinger    : Optimizer, TS searches, QM/MM, DLPNO-CCSD(T), (RO)-DLPNO pert. Triples
   Michael Roemelt        : Original ROCIS implementation
   Masaaki Saitow         : Open-shell DLPNO-CCSD energy and density
   Barbara Sandhoefer     : DKH picture change effects
   Kantharuban Sivalingam : CASSCF convergence/infrastructure, NEVPT2 and variants, FIC-MRCI
   Bernardo de Souza      : ESD, SOC TD-DFT
   Georgi Stoychev        : AutoAux, RI-MP2 NMR, DLPNO-MP2 response, X2C
   Van Anh Tran           : RI-MP2 g-tensors
   Willem Van den Heuvel  : Paramagnetic NMR
   Zikuan Wang            : NOTCH, Electric field optimization 
   Frank Wennmohs         : Technical directorship and infrastructure
   Hang Xu                : AUTO-CI-Response properties 


 We gratefully acknowledge several colleagues who have allowed us to
 interface, adapt or use parts of their codes:
   Stefan Grimme, W. Hujo, H. Kruse, P. Pracht,  : VdW corrections, initial TS optimization,
                  C. Bannwarth, S. Ehlert,         DFT functionals, gCP, sTDA/sTD-DF
                  L. Wittmann, M. Mueller
   Ed Valeev, F. Pavosevic, A. Kumar             : LibInt (2-el integral package), F12 methods
   Garnet Chan, S. Sharma, J. Yang, R. Olivares  : DMRG
   Ulf Ekstrom                                   : XCFun DFT Library
   Mihaly Kallay                                 : mrcc  (arbitrary order and MRCC methods)
   Frank Weinhold                                : gennbo (NPA and NBO analysis)
   Simon Mueller                                 : openCOSMO-RS
   Christopher J. Cramer and Donald G. Truhlar   : smd solvation model
   Lars Goerigk                                  : TD-DFT with DH, B97 family of functionals
   V. Asgeirsson, H. Jonsson                     : NEB implementation
   FAccTs GmbH                                   : IRC, NEB, NEB-TS, DLPNO-Multilevel, CI-OPT
                                                   MM, QMMM, 2- and 3-layer-ONIOM, Crystal-QMMM,
                                                   LR-CPCM, SF, NACMEs, symmetry and pop. for TD-DFT,
                                                   nearIR, NL-DFT gradient (VV10), updates on ESD,
                                                   ML-optimized integration grids, MBIS, APM,
                                                   GOAT, DOCKER, SOLVATOR, interface openCOSMO-RS
   S Lehtola, MJT Oliveira, MAL Marques          : LibXC Library
   Liviu Ungur et al                             : ANISO software


 Your calculation uses the libint2 library for the computation of 2-el integrals
 For citations please refer to: http://libint.valeyev.net

 Your ORCA version has been built with support for libXC version: 6.2.2
 For citations please refer to: https://libxc.gitlab.io

 This ORCA versions uses:
   CBLAS   interface :  Fast vector & matrix operations
   LAPACKE interface :  Fast linear algebra routines
   SCALAPACK package :  Parallel linear algebra routines
   Shared memory     :  Shared parallel matrices
   BLAS/LAPACK       :  OpenBLAS 0.3.27  USE64BITINT DYNAMIC_ARCH NO_AFFINITY SkylakeX SINGLE_THREADED
        Core in use  :  SkylakeX
   Copyright (c) 2011-2014, The OpenBLAS Project


Your calculation utilizes the geometrical counterpoise correction gCP
Please cite in your paper:
H.Kruse, S. Grimme J.Chem.Phys., 136, (2012), 154101 
   

Your calculation utilizes the atom-pairwise dispersion correction
based on EEQ partial charges (D4)


================================================================================

----- Orbital basis set information -----
Your calculation utilizes the basis: def2-mTZVPP
   Stefan Grimme, Andreas Hansen, Sebastian Ehlert, and Jan-Michael Mewes 
   J. Chem. Phys. 154, 064103 (2021). DOI: 10.1063/5.0040021

----- AuxJ basis set information -----
Your calculation utilizes the auxiliary basis: def2/J
   F. Weigend, Phys. Chem. Chem. Phys. 8, 1057 (2006).

================================================================================
                                        WARNINGS
                       Please study these warnings very carefully!
================================================================================

Using LibXC functional ID 497 : Re-regularized SCAN exchange by Furness et al
[ 1]  J. W. Furness, A. D. Kaplan, J. Ning, J. P. Perdew, and J. Sun.,  J. Phys. Chem. Lett. 11, 8208-8215 (2020)
[ 2]  J. W. Furness, A. D. Kaplan, J. Ning, J. P. Perdew, and J. Sun.,  J. Phys. Chem. Lett. 11, 9248-9248 (2020)
Using LibXC functional ID 498 : Re-regularized SCAN correlation by Furness et al
[ 1]  J. W. Furness, A. D. Kaplan, J. Ning, J. P. Perdew, and J. Sun.,  J. Phys. Chem. Lett. 11, 8208-8215 (2020)
[ 2]  J. W. Furness, A. D. Kaplan, J. Ning, J. P. Perdew, and J. Sun.,  J. Phys. Chem. Lett. 11, 9248-9248 (2020)
Using LibXC functional ID 497 : Re-regularized SCAN exchange by Furness et al
[ 1]  J. W. Furness, A. D. Kaplan, J. Ning, J. P. Perdew, and J. Sun.,  J. Phys. Chem. Lett. 11, 8208-8215 (2020)
[ 2]  J. W. Furness, A. D. Kaplan, J. Ning, J. P. Perdew, and J. Sun.,  J. Phys. Chem. Lett. 11, 9248-9248 (2020)
Using LibXC functional ID 498 : Re-regularized SCAN correlation by Furness et al
[ 1]  J. W. Furness, A. D. Kaplan, J. Ning, J. P. Perdew, and J. Sun.,  J. Phys. Chem. Lett. 11, 8208-8215 (2020)
[ 2]  J. W. Furness, A. D. Kaplan, J. Ning, J. P. Perdew, and J. Sun.,  J. Phys. Chem. Lett. 11, 9248-9248 (2020)

================================================================================
                                       INPUT FILE
================================================================================
NAME = sp_gas.inp
|  1> ! r2scan-3c def2/J RI DEFGRID2 scfconv6 printgap
|  2> %output
|  3>     printlevel normal
|  4> end
|  5> * xyz 0 1
|  6> C -2.6951018148 -1.1343085002 -0.0234684007
|  7> C -2.4090276799 0.3616145764 -0.0786976214
|  8> C -0.9649612575 0.7057379288 -0.450344802
|  9> C 0.0684125952 0.2481113376 0.5912823566
| 10> C 0.6927532378 -1.1197334999 0.2512981137
| 11> C 2.0677626261 -0.834403046 -0.3848090204
| 12> C 2.1609421667 0.6885545573 -0.5034906089
| 13> C 1.2824773288 1.1835811433 0.6394863652
| 14> H -2.4680471918 -1.6021793182 -0.9789398039
| 15> H -2.1005816799 -1.614685184 0.748848661
| 16> H -3.7459768195 -1.306338467 0.1985879913
| 17> H -3.0723819108 0.8197277348 -0.8166501989
| 18> H -2.6416501969 0.8072067287 0.89165267
| 19> H -0.7299510905 0.2691632835 -1.4224460933
| 20> H -0.9041602253 1.7914589973 -0.5573988489
| 21> H -0.4225348323 0.2194723263 1.5678622591
| 22> H 0.8131171362 -1.7162309936 1.1560616133
| 23> H 0.0566241943 -1.6811251156 -0.4294663459
| 24> H 2.8641821682 -1.2040829285 0.2617865478
| 25> H 2.1756859657 -1.3208907541 -1.3532732177
| 26> H 3.1867568047 1.0470464658 -0.4299041209
| 27> H 1.7491045306 1.0231307171 -1.456126141
| 28> H 1.8082234882 1.0535246368 1.5873392859
| 29> H 1.0094026776 2.2331919245 0.5404193418
| 30> *
| 31> 
| 32>                          ****END OF INPUT****
================================================================================

                       ****************************
                       * Single Point Calculation *
                       ****************************

---------------------------------
CARTESIAN COORDINATES (ANGSTROEM)
---------------------------------
  C     -2.695102   -1.134309   -0.023468
  C     -2.409028    0.361615   -0.078698
  C     -0.964961    0.705738   -0.450345
  C      0.068413    0.248111    0.591282
  C      0.692753   -1.119733    0.251298
  C      2.067763   -0.834403   -0.384809
  C      2.160942    0.688555   -0.503491
  C      1.282477    1.183581    0.639486
  H     -2.468047   -1.602179   -0.978940
  H     -2.100582   -1.614685    0.748849
  H     -3.745977   -1.306338    0.198588
  H     -3.072382    0.819728   -0.816650
  H     -2.641650    0.807207    0.891653
  H     -0.729951    0.269163   -1.422446
  H     -0.904160    1.791459   -0.557399
  H     -0.422535    0.219472    1.567862
  H      0.813117   -1.716231    1.156062
  H      0.056624   -1.681125   -0.429466
  H      2.864182   -1.204083    0.261787
  H      2.175686   -1.320891   -1.353273
  H      3.186757    1.047046   -0.429904
  H      1.749105    1.023131   -1.456126
  H      1.808223    1.053525    1.587339
  H      1.009403    2.233192    0.540419

----------------------------
CARTESIAN COORDINATES (A.U.)
----------------------------
  NO LB      ZA    FRAG     MASS         X           Y           Z
   0 C     6.0000    0    12.011   -5.093004   -2.143532   -0.044349
   1 C     6.0000    0    12.011   -4.552403    0.683353   -0.148717
   2 C     6.0000    0    12.011   -1.823513    1.333651   -0.851028
   3 C     6.0000    0    12.011    0.129281    0.468862    1.117362
   4 C     6.0000    0    12.011    1.309114   -2.115990    0.474885
   5 C     6.0000    0    12.011    3.907505   -1.576793   -0.727184
   6 C     6.0000    0    12.011    4.083589    1.301180   -0.951459
   7 C     6.0000    0    12.011    2.423531    2.236644    1.208454
   8 H     1.0000    0     1.008   -4.663933   -3.027680   -1.849928
   9 H     1.0000    0     1.008   -3.969524   -3.051313    1.415119
  10 H     1.0000    0     1.008   -7.078870   -2.468622    0.375277
  11 H     1.0000    0     1.008   -5.805960    1.549061   -1.543245
  12 H     1.0000    0     1.008   -4.991995    1.525400    1.684979
  13 H     1.0000    0     1.008   -1.379408    0.508645   -2.688034
  14 H     1.0000    0     1.008   -1.708615    3.385367   -1.053331
  15 H     1.0000    0     1.008   -0.798475    0.414743    2.962830
  16 H     1.0000    0     1.008    1.536569   -3.243207    2.184640
  17 H     1.0000    0     1.008    0.107004   -3.176866   -0.811574
  18 H     1.0000    0     1.008    5.412520   -2.275387    0.494705
  19 H     1.0000    0     1.008    4.111451   -2.496122   -2.557316
  20 H     1.0000    0     1.008    6.022098    1.978631   -0.812401
  21 H     1.0000    0     1.008    3.305329    1.933437   -2.751680
  22 H     1.0000    0     1.008    3.417047    1.990873    2.999637
  23 H     1.0000    0     1.008    1.907495    4.220121    1.021245

--------------------------------
INTERNAL COORDINATES (ANGSTROEM)
--------------------------------
 C      0   0   0     0.000000000000     0.00000000     0.00000000
 C      1   0   0     1.524032325308     0.00000000     0.00000000
 C      2   1   0     1.530317071988   113.99476357     0.00000000
 C      3   2   1     1.536968039339   113.76019269   295.08187641
 C      4   3   2     1.541554417754   112.76994832    95.45813388
 C      5   4   3     1.541653843082   106.73846801   100.00853581
 C      6   5   4     1.530414194813   105.69285751   355.52958455
 C      7   6   5     1.524187703531   103.29435540    28.22117106
 H      1   2   3     1.087833859785   110.55785092   302.24134017
 H      1   2   3     1.086595413635   110.91569444    62.84775400
 H      1   2   3     1.087769105191   110.11907750   182.68291049
 H      2   1   3     1.092922919602   108.78213379   120.99732011
 H      2   1   3     1.092815304444   109.15300939   237.92860787
 H      3   2   1     1.091241549823   109.24447726    58.23895340
 H      3   2   1     1.092679080544   107.44199335   174.39558779
 H      4   3   2     1.093415691996   108.13229092   332.55293285
 H      5   4   3     1.090364030146   110.31126958   219.72185698
 H      5   4   3     1.087777990041   111.04570126   338.85987807
 H      6   5   4     1.090427957905   110.12126788   114.07272778
 H      6   5   4     1.089146748062   111.87623637   233.76711038
 H      7   6   5     1.089140528679   112.31219843   149.88172442
 H      7   6   5     1.090442984403   110.49246341   270.90788950
 H      8   7   6     1.091672514212   109.56274352    75.24443146
 H      8   7   6     1.089066954904   112.91187948   196.08246130

---------------------------
INTERNAL COORDINATES (A.U.)
---------------------------
 C      0   0   0     0.000000000000     0.00000000     0.00000000
 C      1   0   0     2.880003714074     0.00000000     0.00000000
 C      2   1   0     2.891880164122   113.99476357     0.00000000
 C      3   2   1     2.904448670941   113.76019269   295.08187641
 C      4   3   2     2.913115670092   112.76994832    95.45813388
 C      5   4   3     2.913303556732   106.73846801   100.00853581
 C      6   5   4     2.892063699662   105.69285751   355.52958455
 C      7   6   5     2.880297336365   103.29435540    28.22117106
 H      1   2   3     2.055708074200   110.55785092   302.24134017
 H      1   2   3     2.053367750145   110.91569444    62.84775400
 H      1   2   3     2.055585705752   110.11907750   182.68291049
 H      2   1   3     2.065325003533   108.78213379   120.99732011
 H      2   1   3     2.065121640357   109.15300939   237.92860787
 H      3   2   1     2.062147675121   109.24447726    58.23895340
 H      3   2   1     2.064864214494   107.44199335   174.39558779
 H      4   3   2     2.066256208405   108.13229092   332.55293285
 H      5   4   3     2.060489403255   110.31126958   219.72185698
 H      5   4   3     2.055602495684   111.04570126   338.85987807
 H      6   5   4     2.060610209211   110.12126788   114.07272778
 H      6   5   4     2.058189073489   111.87623637   233.76711038
 H      7   6   5     2.058177320558   112.31219843   149.88172442
 H      7   6   5     2.060638605178   110.49246341   270.90788950
 H      8   7   6     2.062962079790   109.56274352    75.24443146
 H      8   7   6     2.058038286273   112.91187948   196.08246130

---------------------
BASIS SET INFORMATION
---------------------
There are 2 groups of distinct atoms

 Group   1 Type C   : 11s6p1d contracted to 5s3p1d pattern {62111/411/1}
 Group   2 Type H   : 4s1p contracted to 2s1p pattern {31/1}

Atom   0C    basis set group =>   1
Atom   1C    basis set group =>   1
Atom   2C    basis set group =>   1
Atom   3C    basis set group =>   1
Atom   4C    basis set group =>   1
Atom   5C    basis set group =>   1
Atom   6C    basis set group =>   1
Atom   7C    basis set group =>   1
Atom   8H    basis set group =>   2
Atom   9H    basis set group =>   2
Atom  10H    basis set group =>   2
Atom  11H    basis set group =>   2
Atom  12H    basis set group =>   2
Atom  13H    basis set group =>   2
Atom  14H    basis set group =>   2
Atom  15H    basis set group =>   2
Atom  16H    basis set group =>   2
Atom  17H    basis set group =>   2
Atom  18H    basis set group =>   2
Atom  19H    basis set group =>   2
Atom  20H    basis set group =>   2
Atom  21H    basis set group =>   2
Atom  22H    basis set group =>   2
Atom  23H    basis set group =>   2
---------------------------------
AUXILIARY/J BASIS SET INFORMATION
---------------------------------
There are 2 groups of distinct atoms

 Group   1 Type C   : 12s5p4d2f1g contracted to 6s4p3d1f1g pattern {711111/2111/211/2/1}
 Group   2 Type H   : 5s2p1d contracted to 3s1p1d pattern {311/2/1}

Atom   0C    basis set group =>   1
Atom   1C    basis set group =>   1
Atom   2C    basis set group =>   1
Atom   3C    basis set group =>   1
Atom   4C    basis set group =>   1
Atom   5C    basis set group =>   1
Atom   6C    basis set group =>   1
Atom   7C    basis set group =>   1
Atom   8H    basis set group =>   2
Atom   9H    basis set group =>   2
Atom  10H    basis set group =>   2
Atom  11H    basis set group =>   2
Atom  12H    basis set group =>   2
Atom  13H    basis set group =>   2
Atom  14H    basis set group =>   2
Atom  15H    basis set group =>   2
Atom  16H    basis set group =>   2
Atom  17H    basis set group =>   2
Atom  18H    basis set group =>   2
Atom  19H    basis set group =>   2
Atom  20H    basis set group =>   2
Atom  21H    basis set group =>   2
Atom  22H    basis set group =>   2
Atom  23H    basis set group =>   2

Checking for AutoStart:
The File: sp_gas.gbw exists
Trying to determine its content:
     ... Fine, the file contains calculation information
     ... Fine, the calculation information was read
     ... Fine, the file contains a basis set
     ... Fine, the basis set was read
     ... Fine, the file contains a geometry
     ... Fine, the geometry was read
     ... Fine, the file contains a set of orbitals
     ... Fine, the orbitals can be read
     => possible old guess file was deleted
     => GBW file was renamed to GES file
     => GES file is set as startup file
     => Guess is set to MORead
     ... now leaving AutoStart

------------------------------------------------------------------------------
                             ORCA STARTUP CALCULATIONS
                           -- RI-GTO INTEGRALS CHOSEN --
------------------------------------------------------------------------------
------------------------------------------------------------------------------
                   ___                                                        
                  /   \      - P O W E R E D   B Y -                         
                 /     \                                                     
                 |  |  |   _    _      __       _____    __    __             
                 |  |  |  | |  | |    /  \     |  _  \  |  |  /  |          
                  \  \/   | |  | |   /    \    | | | |  |  | /  /          
                 / \  \   | |__| |  /  /\  \   | |_| |  |  |/  /          
                |  |  |   |  __  | /  /__\  \  |    /   |      \           
                |  |  |   | |  | | |   __   |  |    \   |  |\   \          
                \     /   | |  | | |  |  |  |  | |\  \  |  | \   \       
                 \___/    |_|  |_| |__|  |__|  |_| \__\ |__|  \__/        
                                                                              
                      - O R C A' S   B I G   F R I E N D -                    
                                      &                                       
                       - I N T E G R A L  F E E D E R -                       
                                                                              
 v1 FN, 2020, v2 2021, v3 2022-2024                                           
------------------------------------------------------------------------------


----------------------
SHARK INTEGRAL PACKAGE
----------------------

Number of atoms                             ...     24
Number of basis functions                   ...    232
Number of shells                            ...    120
Maximum angular momentum                    ...      2
Integral batch strategy                     ... SHARK/LIBINT Hybrid
RI-J (if used) integral strategy            ... SPLIT-RIJ (Revised 2003 algorithm where possible)
Printlevel                                  ...      1
Contraction scheme used                     ... SEGMENTED contraction
Prescreening option                         ... SCHWARTZ
   Thresh                                   ... 1.000e-10
   Tcut                                     ... 1.000e-11
   Tpresel                                  ... 1.000e-11 
Coulomb Range Separation                    ... NOT USED
Exchange Range Separation                   ... NOT USED
Multipole approximations                    ... NOT USED
Finite Nucleus Model                        ... NOT USED
CABS basis                                  ... NOT available
Auxiliary Coulomb fitting basis             ... AVAILABLE
   # of basis functions in Aux-J            ...    568
   # of shells in Aux-J                     ...    200
   Maximum angular momentum in Aux-J        ...      4
Auxiliary J/K fitting basis                 ... NOT available
Auxiliary Correlation fitting basis         ... NOT available
Auxiliary 'external' fitting basis          ... NOT available

Checking pre-screening integrals            ... done (  0.0 sec) Dimension = 120
Check shell pair data                       ... done (  0.0 sec)
Shell pair information
Shell pair cut-off parameter TPreSel        ...   1.0e-11
Total number of shell pairs                 ...      7260
Shell pairs after pre-screening             ...      6553
Total number of primitive shell pairs       ...     25424
Primitive shell pairs kept                  ...     16404
          la=0 lb=0:   2373 shell pairs
          la=1 lb=0:   2595 shell pairs
          la=1 lb=1:    741 shell pairs
          la=2 lb=0:    525 shell pairs
          la=2 lb=1:    285 shell pairs
          la=2 lb=2:     34 shell pairs

Calculating one electron integrals          ... done (  0.0 sec)
Calculating RI/J V-Matrix + Cholesky decomp.... done (  0.1 sec)
Calculating Nuclear repulsion               ... done (  0.0 sec) ENN=    403.671422233979 Eh

Diagonalization of the overlap matrix:
Smallest eigenvalue                        ... 6.195e-05
Time for diagonalization                   ...    0.005 sec
Threshold for overlap eigenvalues          ... 1.000e-07
Number of eigenvalues below threshold      ... 0
Time for construction of square roots      ...    0.015 sec
Total time needed                          ...    0.033 sec

-------------------
DFT GRID GENERATION
-------------------

General Integration Accuracy     IntAcc      ... 4.388
Radial Grid Type                 RadialGrid  ... OptM3 with GC (2021)
Angular Grid (max. ang.)         AngularGrid ... 4 (Lebedev-302)
Angular grid pruning method      GridPruning ... 4 (adaptive)
Weight generation scheme         WeightScheme... mBecke (2022)
Basis function cutoff            BFCut       ... 1.0000e-10
Integration weight cutoff        WCut        ... 1.0000e-14
Partially contracted basis set               ... off
Rotationally invariant grid construction     ... off
Angular grids for H and He will be reduced by one unit

Total number of grid points                  ...    98573
Total number of batches                      ...     1552
Average number of points per batch           ...       63
Average number of grid points per atom       ...     4107
Initializing property integral containers    ... done (  0.0 sec)

SHARK setup successfully completed in   1.4 seconds

Maximum memory used throughout the entire STARTUP-calculation: 42.1 MB
-------------------------------------------------------------------------------
                                 ORCA GUESS
                   Start orbitals & Density for SCF / CASSCF
-------------------------------------------------------------------------------

------------
SCF SETTINGS
------------
Hamiltonian:
 Density Functional     Method          .... DFT(GTOs)
  Functional kind                       .... Exchange
  Functional name                       .... Re-regularized SCAN exchange by Furness et al
  Functional family                     .... MGGA
  Functional refs                              
    [ 0] J. W. Furness, A. D. Kaplan, J. Ning, J. P. Perdew, and J. Sun.,  J. Phys. Chem. Lett. 11, 8208-8215 (2020), doi: 10.1021/acs.jpclett.0c02405
    [ 1] J. W. Furness, A. D. Kaplan, J. Ning, J. P. Perdew, and J. Sun.,  J. Phys. Chem. Lett. 11, 9248-9248 (2020), doi: 10.1021/acs.jpclett.0c03077
  Functional external parameters        .... 6
    Parameter  0 _c1        =  6.670000e-01 : c1 parameter        
    Parameter  1 _c2        =  8.000000e-01 : c2 parameter        
    Parameter  2 _d         =  1.240000e+00 : d parameter         
    Parameter  3 _k1        =  6.500000e-02 : k1 parameter        
    Parameter  4 _eta       =  1.000000e-03 : eta parameter       
    Parameter  5 _dp2       =  3.610000e-01 : dp2 parameter       
  Functional kind                       .... Correlation
  Functional name                       .... Re-regularized SCAN correlation by Furness et al
  Functional family                     .... MGGA
  Functional refs                              
    [ 0] J. W. Furness, A. D. Kaplan, J. Ning, J. P. Perdew, and J. Sun.,  J. Phys. Chem. Lett. 11, 8208-8215 (2020), doi: 10.1021/acs.jpclett.0c02405
    [ 1] J. W. Furness, A. D. Kaplan, J. Ning, J. P. Perdew, and J. Sun.,  J. Phys. Chem. Lett. 11, 9248-9248 (2020), doi: 10.1021/acs.jpclett.0c03077
  Functional external parameters        .... 1
    Parameter  0 _eta       =  1.000000e-03 : Regularization parameter
 Gradients option       PostSCFGGA      .... off
 RI-approximation to the Coulomb term is turned on
   Number of AuxJ basis functions       .... 568


General Settings:
 Integral files         IntName         .... sp_gas
 Hartree-Fock type      HFTyp           .... RHF
 Total Charge           Charge          ....    0
 Multiplicity           Mult            ....    1
 Number of Electrons    NEL             ....   64
 Basis Dimension        Dim             ....  232
 Nuclear Repulsion      ENuc            ....    403.6714222340 Eh

Convergence Acceleration:
 AO-DIIS                CNVDIIS         .... on
   Start iteration      DIISMaxIt       ....    12
   Startup error        DIISStart       ....  0.200000
   # of expansion vecs  DIISMaxEq       ....     5
   Bias factor          DIISBfac        ....   1.050
   Max. coefficient     DIISMaxC        ....  10.000
 MO-DIIS                CNVKDIIS        .... off
 Trust-Rad. Augm. Hess. CNVTRAH         .... auto
   Auto Start mean grad. ratio tolernc. ....  1.125000
   Auto Start start iteration           ....     1
   Auto Start num. interpolation iter.  ....    10
   Max. Number of Micro iterations      ....    24
   Max. Number of Macro iterations      .... Maxiter - #DIIS iter
   Number of Davidson start vectors     ....     2
   Converg. threshold    (grad. norm)   ....   3.330e-04
   Grad. Scal. Fac. for Micro threshold ....   0.100
   Minimum threshold for Micro iter.    ....   1.000e-02
   NR start threshold (gradient norm)   ....   1.000e-04
   Initial trust radius                 ....   0.400
   Minimum AH scaling param. (alpha)    ....   1.000
   Maximum AH scaling param. (alpha)    .... 1000.000
   Quad. conv. algorithm                .... NR
   White noise on init. David. guess    .... on
   Maximum white noise                  ....   0.010
   Pseudo random numbers                .... off
   Inactive MOs                         .... canonical
   Orbital update algorithm             .... Taylor
   Preconditioner                       .... Diag
   Full preconditioner red. dimension   ....   250
   COSX micro iterations for RIJONX calc.... off
 SOSCF                  CNVSOSCF        .... on
   Start iteration      SOSCFMaxIt      ....   150
   Startup grad/error   SOSCFStart      ....  0.003300
   Hessian update       SOSCFHessUp     .... L-BFGS
 Level Shifting         CNVShift        .... on
   Level shift para.    LevelShift      ....    0.2500
   Turn off err/grad.   ShiftErr        ....    0.0010
 Zerner damping         CNVZerner       .... off
 Static damping         CNVDamp         .... on
   Fraction old density DampFac         ....    0.7000
   Max. Damping (<1)    DampMax         ....    0.9800
   Min. Damping (>=0)   DampMin         ....    0.0000
   Turn off err/grad.   DampErr         ....    0.1000

SCF Procedure:
 Maximum # iterations   MaxIter         ....   125
 SCF integral mode      SCFMode         .... Direct
   Integral package                     .... SHARK and LIBINT hybrid scheme
 Reset frequency        DirectResetFreq ....    20
 Integral Threshold     Thresh          ....  1.000e-10 Eh
 Primitive CutOff       TCut            ....  1.000e-11 Eh

Convergence Tolerance:
 Convergence Check Mode ConvCheckMode   .... Total+1el-Energy
 Convergence forced     ConvForced      .... 0
 Energy Change          TolE            ....  1.000e-06 Eh
 1-El. energy change                    ....  1.000e-03 Eh
 Orbital Gradient       TolG            ....  3.330e-04
 Orbital Rotation angle TolX            ....  3.330e-04
 DIIS Error             TolErr          ....  1.000e-06

---------------------
INITIAL GUESS: MOREAD
---------------------
Guess MOs are being read from file: sp_gas.ges
Input Geometry matches current geometry (good)
Atom 0: N(Shells)= 9 and 6 - projection required
Input basis set needs projection
NBasis(read)= 144
NBasis(calc)= 232
Basis set overlap was calculated
Using GuessMode=FMatrix for the initial guess
C*T matrix was formed
Effective Fockian was calculated
Effective Fockian was diagonalized
Initial density was built
                      ------------------
                      INITIAL GUESS DONE (   0.0 sec)
                      ------------------
             **** ENERGY FILE WAS UPDATED (sp_gas.en.tmp) ****
Finished Guess after   0.3 sec
Maximum memory used throughout the entire GUESS-calculation: 16.7 MB

-------------------------------------------------------------------------------------------
                                      ORCA LEAN-SCF
                              memory conserving SCF solver
-------------------------------------------------------------------------------------------

----------------------------------------D-I-I-S--------------------------------------------
Iteration    Energy (Eh)           Delta-E    RMSDP     MaxDP     DIISErr   Damp  Time(sec)
-------------------------------------------------------------------------------------------
               ***  Starting incremental Fock matrix formation  ***
    1    -314.2180531214880261     0.00e+00  7.31e-03  3.75e-01  2.82e-01  0.700   3.4
    2    -314.2665959202192312    -4.85e-02  5.59e-03  2.68e-01  1.98e-01  0.700   3.2
                               ***Turning on AO-DIIS***
    3    -314.3009372184089329    -3.43e-02  4.04e-03  1.88e-01  1.39e-01  0.700   3.0
    4    -314.3250428940004326    -2.41e-02  2.87e-03  1.31e-01  9.72e-02  0.700   3.0
    5    -314.3419488031387914    -1.69e-02  6.73e-03  3.06e-01  6.80e-02  0.000   3.0
                              *** Initializing SOSCF ***
---------------------------------------S-O-S-C-F--------------------------------------
Iteration    Energy (Eh)           Delta-E    RMSDP     MaxDP     MaxGrad    Time(sec)
--------------------------------------------------------------------------------------
    6    -314.3815160681658085    -3.96e-02  5.69e-05  1.33e-03  1.98e-04     3.1
               *** Restarting incremental Fock matrix formation ***
    7    -314.3815167445994234    -6.76e-07  1.91e-05  3.42e-04  2.22e-05     3.4
                  *** Gradient check signals convergence ***

               *****************************************************
               *                     SUCCESS                       *
               *           SCF CONVERGED AFTER   7 CYCLES          *
               *****************************************************

             **** ENERGY FILE WAS UPDATED (sp_gas.en.tmp) ****

----------------
TOTAL SCF ENERGY
----------------

Total Energy       :       -314.38151674459942 Eh           -8554.75599 eV

Components:
Nuclear Repulsion  :        403.67142223397883 Eh           10984.45784 eV
Electronic Energy  :       -718.05293897857825 Eh          -19539.21382 eV
One Electron Energy:      -1222.31988495251335 Eh          -33261.01503 eV
Two Electron Energy:        504.26694597393509 Eh           13721.80120 eV

Virial components:
Potential Energy   :       -627.31127316774825 Eh          -17070.00757 eV
Kinetic Energy     :        312.92975642314883 Eh            8515.25158 eV
Virial Ratio       :          2.00463925303252

DFT components:
N(Alpha)           :       32.000141888044 electrons
N(Beta)            :       32.000141888044 electrons
N(Total)           :       64.000283776088 electrons
E(X)               :      -47.377776294754 Eh       
E(C)               :       -1.993587992844 Eh       
E(XC)              :      -49.371364287597 Eh       

---------------
SCF CONVERGENCE
---------------

  Last Energy change         ...    6.7643e-07  Tolerance :   1.0000e-06
  Last MAX-Density change    ...    3.4153e-04  Tolerance :   1.0000e-05
  Last RMS-Density change    ...    1.9101e-05  Tolerance :   1.0000e-06
  Last DIIS Error            ...    1.9763e-04  Tolerance :   1.0000e-06
  Last Orbital Gradient      ...    2.2241e-05  Tolerance :   3.3300e-04
  Last Orbital Rotation      ...    4.3083e-05  Tolerance :   3.3300e-04


----------------
ORBITAL ENERGIES
----------------

  NO   OCC          E(Eh)            E(eV) 
   0   2.0000     -10.024412      -272.7781 
   1   2.0000     -10.021793      -272.7068 
   2   2.0000     -10.017674      -272.5948 
   3   2.0000     -10.017508      -272.5903 
   4   2.0000     -10.017362      -272.5863 
   5   2.0000     -10.016424      -272.5607 
   6   2.0000     -10.016116      -272.5524 
   7   2.0000     -10.012810      -272.4624 
   8   2.0000      -0.805607       -21.9217 
   9   2.0000      -0.747782       -20.3482 
  10   2.0000      -0.682980       -18.5848 
  11   2.0000      -0.670309       -18.2400 
  12   2.0000      -0.628050       -17.0901 
  13   2.0000      -0.551581       -15.0093 
  14   2.0000      -0.527209       -14.3461 
  15   2.0000      -0.508308       -13.8318 
  16   2.0000      -0.451595       -12.2885 
  17   2.0000      -0.439199       -11.9512 
  18   2.0000      -0.414446       -11.2776 
  19   2.0000      -0.406596       -11.0640 
  20   2.0000      -0.376491       -10.2448 
  21   2.0000      -0.371869       -10.1191 
  22   2.0000      -0.355194        -9.6653 
  23   2.0000      -0.327378        -8.9084 
  24   2.0000      -0.314795        -8.5660 
  25   2.0000      -0.304477        -8.2852 
  26   2.0000      -0.301187        -8.1957 
  27   2.0000      -0.299576        -8.1519 
  28   2.0000      -0.289612        -7.8808 
  29   2.0000      -0.278915        -7.5897 
  30   2.0000      -0.272243        -7.4081 
  31   2.0000      -0.266611        -7.2549 
  32   0.0000       0.080231         2.1832 
  33   0.0000       0.088985         2.4214 
  34   0.0000       0.100363         2.7310 
  35   0.0000       0.113840         3.0977 
  36   0.0000       0.123833         3.3697 
  37   0.0000       0.126272         3.4360 
  38   0.0000       0.130191         3.5427 
  39   0.0000       0.144346         3.9279 
  40   0.0000       0.146439         3.9848 
  41   0.0000       0.154170         4.1952 
  42   0.0000       0.161696         4.4000 
*Only the first 10 virtual orbitals were printed.

                    ********************************
                    * MULLIKEN POPULATION ANALYSIS *
                    ********************************

-----------------------
MULLIKEN ATOMIC CHARGES
-----------------------
   0 C :   -0.498792
   1 C :   -0.243885
   2 C :   -0.337734
   3 C :    0.031174
   4 C :   -0.421549
   5 C :   -0.322806
   6 C :   -0.287549
   7 C :   -0.359054
   8 H :    0.146236
   9 H :    0.156800
  10 H :    0.143748
  11 H :    0.140110
  12 H :    0.143312
  13 H :    0.153333
  14 H :    0.146575
  15 H :    0.162153
  16 H :    0.157965
  17 H :    0.166178
  18 H :    0.150587
  19 H :    0.153855
  20 H :    0.152480
  21 H :    0.156515
  22 H :    0.157722
  23 H :    0.152625
Sum of atomic charges:   -0.0000000

--------------------------------
MULLIKEN REDUCED ORBITAL CHARGES
--------------------------------
  0 C s       :     3.336368  s :     3.336368
      pz      :     1.082954  p :     3.135220
      px      :     1.107495
      py      :     0.944771
      dz2     :     0.004715  d :     0.027205
      dxz     :     0.003221
      dyz     :     0.007128
      dx2y2   :     0.007451
      dxy     :     0.004690

  1 C s       :     3.231839  s :     3.231839
      pz      :     1.083953  p :     2.974513
      px      :     0.964215
      py      :     0.926345
      dz2     :     0.006027  d :     0.037533
      dxz     :     0.006952
      dyz     :     0.007153
      dx2y2   :     0.009550
      dxy     :     0.007851

  2 C s       :     3.248549  s :     3.248549
      pz      :     0.994684  p :     3.052734
      px      :     0.950653
      py      :     1.107397
      dz2     :     0.008478  d :     0.036451
      dxz     :     0.008340
      dyz     :     0.004065
      dx2y2   :     0.010440
      dxy     :     0.005128

  3 C s       :     3.035117  s :     3.035117
      pz      :     1.039149  p :     2.889322
      px      :     0.961763
      py      :     0.888410
      dz2     :     0.008665  d :     0.044386
      dxz     :     0.010537
      dyz     :     0.005603
      dx2y2   :     0.008419
      dxy     :     0.011162

  4 C s       :     3.333006  s :     3.333006
      pz      :     1.096573  p :     3.053695
      px      :     0.952080
      py      :     1.005042
      dz2     :     0.004425  d :     0.034848
      dxz     :     0.006894
      dyz     :     0.008353
      dx2y2   :     0.007409
      dxy     :     0.007766

  5 C s       :     3.279026  s :     3.279026
      pz      :     1.098206  p :     3.008437
      px      :     0.960433
      py      :     0.949798
      dz2     :     0.005424  d :     0.035343
      dxz     :     0.007088
      dyz     :     0.006988
      dx2y2   :     0.009597
      dxy     :     0.006247

  6 C s       :     3.214303  s :     3.214303
      pz      :     0.993393  p :     3.036570
      px      :     1.113805
      py      :     0.929372
      dz2     :     0.008589  d :     0.036677
      dxz     :     0.006085
      dyz     :     0.006441
      dx2y2   :     0.009101
      dxy     :     0.006460

  7 C s       :     3.290931  s :     3.290931
      pz      :     1.001582  p :     3.031236
      px      :     0.964680
      py      :     1.064974
      dz2     :     0.008563  d :     0.036886
      dxz     :     0.009293
      dyz     :     0.003330
      dx2y2   :     0.008028
      dxy     :     0.007673

  8 H s       :     0.835538  s :     0.835538
      pz      :     0.009173  p :     0.018226
      px      :     0.004007
      py      :     0.005046

  9 H s       :     0.824845  s :     0.824845
      pz      :     0.007266  p :     0.018354
      px      :     0.005991
      py      :     0.005098

 10 H s       :     0.837967  s :     0.837967
      pz      :     0.004020  p :     0.018285
      px      :     0.010395
      py      :     0.003871

 11 H s       :     0.842092  s :     0.842092
      pz      :     0.006781  p :     0.017798
      px      :     0.006246
      py      :     0.004771

 12 H s       :     0.838895  s :     0.838895
      pz      :     0.009326  p :     0.017793
      px      :     0.003765
      py      :     0.004702

 13 H s       :     0.828688  s :     0.828688
      pz      :     0.009404  p :     0.017979
      px      :     0.003898
      py      :     0.004676

 14 H s       :     0.835488  s :     0.835488
      pz      :     0.003610  p :     0.017937
      px      :     0.003501
      py      :     0.010825

 15 H s       :     0.820093  s :     0.820093
      pz      :     0.009372  p :     0.017754
      px      :     0.004844
      py      :     0.003538

 16 H s       :     0.823913  s :     0.823913
      pz      :     0.008584  p :     0.018122
      px      :     0.003711
      py      :     0.005827

 17 H s       :     0.815433  s :     0.815433
      pz      :     0.006521  p :     0.018389
      px      :     0.006311
      py      :     0.005557

 18 H s       :     0.831351  s :     0.831351
      pz      :     0.006155  p :     0.018062
      px      :     0.007490
      py      :     0.004418

 19 H s       :     0.827938  s :     0.827938
      pz      :     0.009396  p :     0.018207
      px      :     0.003687
      py      :     0.005124

 20 H s       :     0.829384  s :     0.829384
      pz      :     0.003599  p :     0.018136
      px      :     0.010125
      py      :     0.004412

 21 H s       :     0.825566  s :     0.825566
      pz      :     0.009111  p :     0.017918
      px      :     0.004572
      py      :     0.004235

 22 H s       :     0.824494  s :     0.824494
      pz      :     0.009011  p :     0.017784
      px      :     0.005286
      py      :     0.003487

 23 H s       :     0.829216  s :     0.829216
      pz      :     0.003609  p :     0.018158
      px      :     0.004006
      py      :     0.010542


------------------------
MULLIKEN OVERLAP CHARGES
------------------------
B(  0-C ,  1-C ) :   0.3801 B(  0-C ,  2-C ) :  -0.1855 B(  0-C ,  8-H ) :   0.8420 
B(  0-C ,  9-H ) :   0.8558 B(  0-C , 10-H ) :   0.7803 B(  0-C , 11-H ) :  -0.0554 
B(  0-C , 12-H ) :  -0.0871 B(  1-C ,  2-C ) :   0.3873 B(  1-C ,  3-C ) :  -0.0970 
B(  1-C ,  8-H ) :  -0.0934 B(  1-C ,  9-H ) :  -0.0969 B(  1-C , 10-H ) :  -0.0650 
B(  1-C , 11-H ) :   0.8325 B(  1-C , 12-H ) :   0.9162 B(  1-C , 14-H ) :  -0.0795 
B(  2-C ,  3-C ) :   0.2419 B(  2-C ,  7-C ) :  -0.0980 B(  2-C , 11-H ) :  -0.1109 
B(  2-C , 12-H ) :  -0.1134 B(  2-C , 13-H ) :   0.8440 B(  2-C , 14-H ) :   0.8595 
B(  2-C , 15-H ) :  -0.1123 B(  3-C ,  4-C ) :   0.3161 B(  3-C ,  6-C ) :  -0.3875 
B(  3-C ,  7-C ) :   0.4225 B(  3-C ,  9-H ) :   0.0534 B(  3-C , 13-H ) :  -0.1620 
B(  3-C , 14-H ) :  -0.1305 B(  3-C , 15-H ) :   0.8205 B(  3-C , 16-H ) :  -0.0602 
B(  3-C , 17-H ) :  -0.1273 B(  3-C , 22-H ) :  -0.1218 B(  3-C , 23-H ) :  -0.0535 
B(  4-C ,  5-C ) :   0.4117 B(  4-C ,  7-C ) :  -0.2391 B(  4-C , 16-H ) :   0.8079 
B(  4-C , 17-H ) :   0.8659 B(  4-C , 18-H ) :  -0.0782 B(  4-C , 19-H ) :  -0.0538 
B(  5-C ,  6-C ) :   0.3877 B(  5-C ,  7-C ) :  -0.2862 B(  5-C , 17-H ) :  -0.0636 
B(  5-C , 18-H ) :   0.8514 B(  5-C , 19-H ) :   0.8093 B(  5-C , 21-H ) :  -0.0852 
B(  6-C ,  7-C ) :   0.3618 B(  6-C , 18-H ) :  -0.0797 B(  6-C , 19-H ) :  -0.0660 
B(  6-C , 20-H ) :   0.7490 B(  6-C , 21-H ) :   0.8794 B(  6-C , 22-H ) :  -0.0932 
B(  6-C , 23-H ) :  -0.0637 B(  7-C , 15-H ) :  -0.0772 B(  7-C , 20-H ) :  -0.0541 
B(  7-C , 21-H ) :  -0.1057 B(  7-C , 22-H ) :   0.8737 B(  7-C , 23-H ) :   0.7908 
B(  8-H ,  9-H ) :  -0.0505 


                     *******************************
                     * LOEWDIN POPULATION ANALYSIS *
                     *******************************

----------------------
LOEWDIN ATOMIC CHARGES
----------------------
   0 C :   -0.427952
   1 C :   -0.312151
   2 C :   -0.299662
   3 C :   -0.229609
   4 C :   -0.304322
   5 C :   -0.306133
   6 C :   -0.303458
   7 C :   -0.297032
   8 H :    0.148889
   9 H :    0.152728
  10 H :    0.149229
  11 H :    0.150661
  12 H :    0.150619
  13 H :    0.156107
  14 H :    0.157641
  15 H :    0.160809
  16 H :    0.157953
  17 H :    0.160060
  18 H :    0.155744
  19 H :    0.155532
  20 H :    0.154935
  21 H :    0.155041
  22 H :    0.157285
  23 H :    0.157087

-------------------------------
LOEWDIN REDUCED ORBITAL CHARGES
-------------------------------
  0 C s       :     2.972750  s :     2.972750
      pz      :     1.155558  p :     3.391522
      px      :     1.151390
      py      :     1.084574
      dz2     :     0.011893  d :     0.063681
      dxz     :     0.008272
      dyz     :     0.015784
      dx2y2   :     0.017932
      dxy     :     0.009799

  1 C s       :     2.939006  s :     2.939006
      pz      :     1.139141  p :     3.292191
      px      :     1.075432
      py      :     1.077618
      dz2     :     0.014251  d :     0.080954
      dxz     :     0.015140
      dyz     :     0.015020
      dx2y2   :     0.020929
      dxy     :     0.015615

  2 C s       :     2.933674  s :     2.933674
      pz      :     1.105898  p :     3.286810
      px      :     1.053887
      py      :     1.127025
      dz2     :     0.018561  d :     0.079178
      dxz     :     0.017735
      dyz     :     0.009291
      dx2y2   :     0.024000
      dxy     :     0.009591

  3 C s       :     2.906373  s :     2.906373
      pz      :     1.107772  p :     3.231499
      px      :     1.063729
      py      :     1.059997
      dz2     :     0.018549  d :     0.091738
      dxz     :     0.022595
      dyz     :     0.010303
      dx2y2   :     0.015928
      dxy     :     0.024362

  4 C s       :     2.936679  s :     2.936679
      pz      :     1.136972  p :     3.291434
      px      :     1.075077
      py      :     1.079385
      dz2     :     0.009274  d :     0.076209
      dxz     :     0.015136
      dyz     :     0.019336
      dx2y2   :     0.016030
      dxy     :     0.016433

  5 C s       :     2.937268  s :     2.937268
      pz      :     1.138610  p :     3.291765
      px      :     1.083701
      py      :     1.069454
      dz2     :     0.012182  d :     0.077101
      dxz     :     0.016209
      dyz     :     0.014612
      dx2y2   :     0.022226
      dxy     :     0.011871

  6 C s       :     2.934517  s :     2.934517
      pz      :     1.109061  p :     3.288824
      px      :     1.117989
      py      :     1.061774
      dz2     :     0.019404  d :     0.080116
      dxz     :     0.013810
      dyz     :     0.013039
      dx2y2   :     0.020901
      dxy     :     0.012962

  7 C s       :     2.936186  s :     2.936186
      pz      :     1.106791  p :     3.280184
      px      :     1.068678
      py      :     1.104715
      dz2     :     0.019203  d :     0.080662
      dxz     :     0.020946
      dyz     :     0.006165
      dx2y2   :     0.016911
      dxy     :     0.017437

  8 H s       :     0.807854  s :     0.807854
      pz      :     0.022730  p :     0.043258
      px      :     0.008857
      py      :     0.011671

  9 H s       :     0.803181  s :     0.803181
      pz      :     0.017854  p :     0.044091
      px      :     0.014143
      py      :     0.012094

 10 H s       :     0.807386  s :     0.807386
      pz      :     0.008850  p :     0.043385
      px      :     0.025764
      py      :     0.008771

 11 H s       :     0.806417  s :     0.806417
      pz      :     0.016494  p :     0.042922
      px      :     0.015152
      py      :     0.011275

 12 H s       :     0.806569  s :     0.806569
      pz      :     0.023011  p :     0.042812
      px      :     0.008698
      py      :     0.011103

 13 H s       :     0.800085  s :     0.800085
      pz      :     0.023368  p :     0.043808
      px      :     0.009375
      py      :     0.011066

 14 H s       :     0.798908  s :     0.798908
      pz      :     0.008319  p :     0.043451
      px      :     0.008244
      py      :     0.026888

 15 H s       :     0.795198  s :     0.795198
      pz      :     0.023288  p :     0.043993
      px      :     0.011932
      py      :     0.008773

 16 H s       :     0.797943  s :     0.797943
      pz      :     0.021095  p :     0.044103
      px      :     0.008750
      py      :     0.014259

 17 H s       :     0.795118  s :     0.795118
      pz      :     0.016096  p :     0.044822
      px      :     0.015075
      py      :     0.013651

 18 H s       :     0.800471  s :     0.800471
      pz      :     0.014924  p :     0.043785
      px      :     0.018228
      py      :     0.010632

 19 H s       :     0.800487  s :     0.800487
      pz      :     0.023154  p :     0.043981
      px      :     0.008509
      py      :     0.012318

 20 H s       :     0.801151  s :     0.801151
      pz      :     0.008439  p :     0.043914
      px      :     0.024997
      py      :     0.010477

 21 H s       :     0.801076  s :     0.801076
      pz      :     0.022671  p :     0.043883
      px      :     0.011072
      py      :     0.010140

 22 H s       :     0.799122  s :     0.799122
      pz      :     0.022393  p :     0.043593
      px      :     0.012848
      py      :     0.008352

 23 H s       :     0.798942  s :     0.798942
      pz      :     0.008479  p :     0.043971
      px      :     0.009372
      py      :     0.026119


---------------------------------
LOEWDIN BOND ORDERS (THRESH 0.050000)
---------------------------------
B(  0-C ,  1-C ) :   1.1422 B(  0-C ,  2-C ) :   0.0627 B(  0-C ,  8-H ) :   0.9300 
B(  0-C ,  9-H ) :   0.9228 B(  0-C , 10-H ) :   0.9291 B(  1-C ,  2-C ) :   1.1125 
B(  1-C ,  3-C ) :   0.0681 B(  1-C , 11-H ) :   0.8947 B(  1-C , 12-H ) :   0.8943 
B(  2-C ,  3-C ) :   1.0565 B(  2-C ,  4-C ) :   0.0668 B(  2-C ,  7-C ) :   0.0702 
B(  2-C , 13-H ) :   0.8845 B(  2-C , 14-H ) :   0.8824 B(  3-C ,  4-C ) :   1.0575 
B(  3-C ,  5-C ) :   0.0631 B(  3-C ,  6-C ) :   0.0732 B(  3-C ,  7-C ) :   1.0678 
B(  3-C , 15-H ) :   0.8606 B(  4-C ,  5-C ) :   1.0821 B(  4-C ,  6-C ) :   0.0651 
B(  4-C ,  7-C ) :   0.0702 B(  4-C , 16-H ) :   0.8977 B(  4-C , 17-H ) :   0.8908 
B(  5-C ,  6-C ) :   1.0957 B(  5-C ,  7-C ) :   0.0736 B(  5-C , 18-H ) :   0.8996 
B(  5-C , 19-H ) :   0.9039 B(  6-C ,  7-C ) :   1.0961 B(  6-C , 20-H ) :   0.9002 
B(  6-C , 21-H ) :   0.8914 B(  7-C , 22-H ) :   0.8862 B(  7-C , 23-H ) :   0.8932 


------------------------------------------
LOEWDIN REDUCED ORBITAL POPULATIONS PER MO
-------------------------------------------
THRESHOLD FOR PRINTING IS 0.1%%
                      0         1         2         3         4         5   
                 -10.02441 -10.02179 -10.01767 -10.01751 -10.01736 -10.01642
                   2.00000   2.00000   2.00000   2.00000   2.00000   2.00000
                  --------  --------  --------  --------  --------  --------
 1 C  s               0.0      99.7       0.0       0.0       0.0       0.0
 2 C  s               0.0       0.0       0.0      99.7       0.0       0.0
 3 C  s              99.6       0.0       0.0       0.0       0.0       0.0
 4 C  s               0.0       0.0       0.1       0.0       0.0       0.0
 5 C  s               0.0       0.0      95.2       0.0       4.3       0.0
 6 C  s               0.0       0.0       4.3       0.0      94.8       0.6
 7 C  s               0.0       0.0       0.0       0.0       0.6      99.1

                      6         7         8         9        10        11   
                 -10.01612 -10.01281  -0.80561  -0.74778  -0.68298  -0.67031
                   2.00000   2.00000   2.00000   2.00000   2.00000   2.00000
                  --------  --------  --------  --------  --------  --------
 0 C  s               0.0      99.7       0.6      13.5      13.3       0.3
 0 C  px              0.0       0.0       0.1       0.2       0.0       0.0
 0 C  py              0.0       0.0       0.2       2.5       0.2       0.0
 1 C  s               0.0       0.0       2.1      23.5       3.7       0.3
 1 C  px              0.0       0.0       0.8       0.6       2.5       0.1
 1 C  py              0.0       0.1       0.0       0.6       2.6       0.0
 1 C  dx2y2           0.0       0.0       0.0       0.0       0.1       0.0
 2 C  s               0.0       0.0       6.2      13.6       4.7       0.0
 2 C  pz              0.0       0.0       0.9       0.2       0.4       0.0
 2 C  px              0.0       0.0       0.6       2.9       3.5       0.1
 2 C  py              0.0       0.0       0.3       0.3       0.1       0.4
 3 C  s               0.0       0.0      16.2       0.8      11.4       0.5
 3 C  pz              0.0       0.0       0.7       0.4       0.0       0.1
 3 C  px              0.0       0.0       1.2       4.5       0.3       0.5
 3 C  py              0.1       0.0       0.0       0.1       0.7       8.7
 3 C  dxy             0.0       0.0       0.0       0.0       0.0       0.2
 4 C  s              99.5       0.0      11.4       0.7       0.0      20.6
 4 C  pz              0.0       0.0       0.0       0.1       0.9       0.0
 4 C  px              0.0       0.0       0.2       1.5       3.5       0.0
 4 C  py              0.0       0.0       2.6       0.0       1.0       0.5
 5 C  s               0.1       0.0       9.8       4.4      11.4       4.3
 5 C  pz              0.0       0.0       0.3       0.0       0.1       0.4
 5 C  px              0.1       0.0       1.2       0.0       0.4       2.4
 5 C  py              0.0       0.0       1.1       0.5       0.3       4.8
 5 C  dx2y2           0.0       0.0       0.0       0.0       0.0       0.2
 6 C  s               0.0       0.0      10.6       4.6       6.1       9.5
 6 C  pz              0.0       0.0       1.0       0.1       0.3       0.7
 6 C  px              0.0       0.0       1.2       0.0       0.6       0.2
 6 C  py              0.0       0.0       0.6       0.4       1.9       3.8
 7 C  s               0.0       0.0      12.6       1.3       1.7      14.7
 7 C  pz              0.0       0.0       0.8       0.2       0.7       0.4
 7 C  px              0.0       0.0       0.2       1.0       4.0       1.1
 7 C  py              0.0       0.0       2.1       0.1       0.0       0.7
 8 H  s               0.0       0.0       0.1       1.9       2.5       0.1
 8 H  pz              0.0       0.0       0.0       0.1       0.2       0.0
 9 H  s               0.0       0.0       0.1       1.9       2.5       0.0
 9 H  pz              0.0       0.0       0.0       0.1       0.1       0.0
10 H  s               0.0       0.0       0.1       1.9       2.8       0.1
10 H  px              0.0       0.0       0.0       0.1       0.2       0.0
11 H  s               0.0       0.0       0.2       3.4       0.8       0.1
11 H  pz              0.0       0.0       0.0       0.1       0.0       0.0
11 H  px              0.0       0.0       0.0       0.1       0.0       0.0
12 H  s               0.0       0.0       0.2       3.3       0.7       0.1
12 H  pz              0.0       0.0       0.0       0.2       0.0       0.0
13 H  s               0.0       0.0       0.7       1.9       0.8       0.0
13 H  pz              0.0       0.0       0.0       0.1       0.1       0.0
14 H  s               0.0       0.0       0.7       1.9       1.0       0.0
14 H  py              0.0       0.0       0.1       0.2       0.1       0.0
15 H  s               0.0       0.0       1.7       0.2       2.2       0.1
15 H  pz              0.0       0.0       0.1       0.0       0.2       0.0
16 H  s               0.0       0.0       1.2       0.1       0.0       4.4
16 H  pz              0.0       0.0       0.1       0.0       0.0       0.3
16 H  py              0.0       0.0       0.0       0.0       0.0       0.1
17 H  s               0.0       0.0       1.2       0.0       0.0       4.6
17 H  pz              0.0       0.0       0.0       0.0       0.0       0.2
17 H  px              0.0       0.0       0.0       0.0       0.0       0.2
17 H  py              0.0       0.0       0.0       0.0       0.0       0.1
18 H  s               0.0       0.0       1.0       0.6       2.3       0.9
18 H  px              0.0       0.0       0.0       0.0       0.1       0.1
19 H  s               0.0       0.0       1.0       0.6       2.3       1.0
19 H  pz              0.0       0.0       0.1       0.0       0.2       0.1
20 H  s               0.0       0.0       1.1       0.6       1.3       2.1
20 H  px              0.0       0.0       0.1       0.1       0.1       0.2
21 H  s               0.0       0.0       1.1       0.6       1.1       2.0
21 H  pz              0.0       0.0       0.1       0.0       0.1       0.2
22 H  s               0.0       0.0       1.3       0.2       0.3       2.9
22 H  pz              0.0       0.0       0.1       0.0       0.0       0.2
23 H  s               0.0       0.0       1.3       0.1       0.4       3.4
23 H  py              0.0       0.0       0.1       0.0       0.0       0.3

                     12        13        14        15        16        17   
                  -0.62805  -0.55158  -0.52721  -0.50831  -0.45159  -0.43920
                   2.00000   2.00000   2.00000   2.00000   2.00000   2.00000
                  --------  --------  --------  --------  --------  --------
 0 C  s              13.2       5.7       0.5       0.3       0.0       0.0
 0 C  pz              0.0       0.0       0.0       0.6       0.8       1.5
 0 C  px              0.1       0.0       0.1       0.0       1.4       0.2
 0 C  py              1.3       7.4       0.4       1.0       0.6       0.2
 0 C  dx2y2           0.0       0.1       0.0       0.0       0.0       0.0
 1 C  s               1.4      12.9       0.5       0.8       0.3       0.1
 1 C  pz              0.5       0.2       0.0       3.2       1.6       4.1
 1 C  px              2.9       2.7       0.1       0.6       3.5       1.2
 1 C  py              6.1       4.1       0.1       0.0       0.0       0.1
 1 C  dx2y2           0.2       0.0       0.0       0.0       0.0       0.0
 2 C  s              11.7       3.6       0.3       3.0       0.2       0.7
 2 C  pz              0.8       0.4       0.1       9.4       2.4       2.9
 2 C  px              1.0       7.0       0.3       0.1       0.6       1.5
 2 C  py              0.7       0.1       0.9       0.7       0.1       0.4
 3 C  s               2.5       0.8       0.2       9.7       0.2       0.0
 3 C  pz              2.4       2.4       0.5       5.2       5.9       1.0
 3 C  px              3.2       2.7       0.0       1.7       8.7       0.6
 3 C  py              0.5       0.0       6.5       0.1       0.0       2.4
 4 C  s               2.1       1.2       5.1       3.1       0.5       0.1
 4 C  pz              1.1       0.5       0.4       0.9       2.4       7.5
 4 C  px              1.2       0.7       5.8       0.2       1.0       0.6
 4 C  py              0.1       0.5       0.5       5.6       9.6       1.8
 5 C  s               4.3       0.0      10.6       0.3       0.3       0.1
 5 C  pz              0.7       1.0       0.0       0.6       0.1      12.2
 5 C  px              1.1       0.3       3.1       2.1       5.6       2.1
 5 C  py              0.2       0.8       4.3       1.6       2.7       2.6
 6 C  s               2.7       1.6       8.6       0.8       0.6       0.1
 6 C  pz              1.2       2.3       1.9       1.6       0.1       8.3
 6 C  px              0.6       0.2       0.2       0.9      11.8       3.9
 6 C  py              1.0       0.1       5.2       1.7       2.6       1.2
 6 C  dx2y2           0.0       0.0       0.1       0.0       0.0       0.0
 7 C  s               4.1       3.7       1.9       4.0       0.4       0.3
 7 C  pz              1.3       2.1       3.9       0.0       3.1       2.6
 7 C  px              0.5       0.3       2.3       1.8       1.3       4.8
 7 C  py              0.0       0.2       0.2       4.5       6.9       8.3
 8 H  s               3.4       3.2       0.2       0.7       0.0       0.6
 8 H  pz              0.2       0.2       0.0       0.0       0.0       0.0
 9 H  s               3.7       3.1       0.2       0.1       1.0       0.0
 9 H  pz              0.1       0.1       0.0       0.0       0.0       0.0
10 H  s               3.8       2.2       0.3       0.1       0.1       0.1
10 H  px              0.3       0.1       0.0       0.0       0.0       0.0
11 H  s               0.5       6.5       0.3       0.1       1.7       0.0
11 H  pz              0.0       0.3       0.0       0.0       0.0       0.0
11 H  px              0.0       0.1       0.0       0.0       0.0       0.0
12 H  s               0.3       6.3       0.2       1.7       0.0       1.9
12 H  pz              0.0       0.4       0.0       0.1       0.0       0.0
13 H  s               3.0       2.3       0.0       4.4       0.4       1.6
13 H  pz              0.2       0.1       0.0       0.1       0.0       0.0
14 H  s               3.4       1.0       0.5       2.7       0.2       0.0
14 H  py              0.3       0.1       0.0       0.1       0.0       0.0
15 H  s               0.8       0.0       0.1       9.0       3.3       0.0
15 H  pz              0.0       0.0       0.0       0.4       0.1       0.0
16 H  s               0.7       0.9       2.4       1.7       3.6       0.5
16 H  pz              0.0       0.1       0.1       0.1       0.1       0.0
17 H  s               0.4       0.1       3.2       3.4       1.1       2.8
17 H  pz              0.0       0.0       0.1       0.1       0.1       0.0
18 H  s               1.1       0.0       6.8       0.1       2.0       1.4
18 H  pz              0.0       0.0       0.2       0.0       0.0       0.0
18 H  px              0.0       0.0       0.2       0.0       0.0       0.0
19 H  s               1.4       0.0       5.7       0.1       0.4       5.0
19 H  pz              0.1       0.0       0.3       0.0       0.0       0.1
20 H  s               0.8       0.6       4.6       0.5       5.7       1.1
20 H  px              0.1       0.0       0.3       0.0       0.2       0.0
21 H  s               0.9       1.3       5.4       0.4       0.0       3.4
21 H  pz              0.0       0.0       0.3       0.0       0.0       0.1
22 H  s               1.3       2.5       1.4       2.1       1.5       1.5
22 H  pz              0.1       0.1       0.0       0.1       0.0       0.1
23 H  s               0.8       1.2       1.2       4.0       1.9       4.9
23 H  py              0.1       0.1       0.1       0.2       0.0       0.2

                     18        19        20        21        22        23   
                  -0.41445  -0.40660  -0.37649  -0.37187  -0.35519  -0.32738
                   2.00000   2.00000   2.00000   2.00000   2.00000   2.00000
                  --------  --------  --------  --------  --------  --------
 0 C  s               0.3       0.0       0.0       0.1       0.0       0.1
 0 C  pz              3.1      16.3       2.2       0.9      14.4       4.4
 0 C  px              8.7       4.9      17.8       0.3       0.1      14.0
 0 C  py              2.1       0.0       1.8       6.0       3.3       4.1
 0 C  dz2             0.0       0.0       0.1       0.0       0.1       0.1
 0 C  dxz             0.0       0.1       0.0       0.0       0.0       0.2
 0 C  dxy             0.0       0.0       0.0       0.0       0.0       0.2
 1 C  s               0.3       0.0       0.1       0.2       0.0       0.1
 1 C  pz              2.4      19.1       0.8       0.0       0.1       1.5
 1 C  px              1.9       5.1       8.5       0.3       0.1       5.5
 1 C  py              5.0       0.3       0.0       6.2       2.9       4.2
 1 C  dxy             0.1       0.0       0.0       0.0       0.0       0.2
 2 C  s               0.3       0.2       0.1       0.1       0.1       1.0
 2 C  pz              0.3       1.9       0.8       0.4      14.7       3.3
 2 C  px              0.4       0.0       7.9       2.9       0.2       0.9
 2 C  py             22.5       0.7       1.1       5.2       1.8       1.0
 2 C  dxy             0.0       0.0       0.1       0.0       0.0       0.0
 3 C  s               0.1       1.0       0.3       0.2       0.2       0.4
 3 C  pz              0.1       4.1       3.9       4.3       2.6       0.5
 3 C  px              0.4       0.1       0.5       0.4       1.5       4.6
 3 C  py              1.5       0.1       0.4       0.4       0.8       0.2
 3 C  dyz             0.1       0.0       0.0       0.0       0.0       0.0
 3 C  dx2y2           0.0       0.1       0.0       0.0       0.0       0.1
 4 C  s               0.4       0.0       0.0       0.0       0.1       0.0
 4 C  pz              6.0       1.3       3.5       2.8       8.3       0.0
 4 C  px              3.4       0.2       4.0       1.2       0.6       6.3
 4 C  py              0.6       0.4       0.2       0.1       0.1       0.5
 5 C  pz              5.4       2.0       0.0      11.5       1.1       0.0
 5 C  px              0.0       0.7       1.8       3.7       0.1       7.0
 5 C  py              0.0       0.8       0.1       2.2       0.3       0.0
 6 C  s               0.1       0.1       0.1       0.0       0.1       0.1
 6 C  pz              0.0       5.2       2.9       0.3       7.4       0.1
 6 C  px              0.0       0.8       8.5       0.2       1.6       1.7
 6 C  py              0.1       0.4       0.0       2.7       0.0       0.0
 7 C  s               0.5       0.1       0.0       0.0       0.0       0.0
 7 C  pz              2.2       0.4       1.2      12.0       2.0       0.8
 7 C  px              1.0       2.8       1.4       2.0       0.2       3.8
 7 C  py              0.3       0.6       0.0       3.8       0.0       0.0
 8 H  s               0.3       3.5       3.6       0.0       8.7       0.0
 8 H  pz              0.0       0.0       0.1       0.0       0.1       0.0
 8 H  px              0.0       0.1       0.0       0.0       0.0       0.1
 9 H  s               0.2       5.8       1.7       1.2       1.4      11.9
 9 H  pz              0.0       0.0       0.1       0.0       0.0       0.1
 9 H  py              0.0       0.1       0.0       0.0       0.1       0.0
10 H  s               5.4       0.7       7.6       0.7       0.3       5.4
10 H  pz              0.0       0.1       0.0       0.0       0.1       0.1
10 H  px              0.2       0.0       0.1       0.0       0.0       0.0
11 H  s               0.0       7.5       0.3       0.1       0.3       6.7
12 H  s               1.4       3.7       0.6       0.2       0.1       0.1
13 H  s               1.1       0.1       1.9       0.0       8.9       0.2
13 H  pz              0.1       0.0       0.1       0.0       0.1       0.0
14 H  s               9.7       0.1       0.2       2.6       0.3       0.2
14 H  pz              0.0       0.0       0.0       0.0       0.1       0.0
14 H  py              0.3       0.0       0.0       0.1       0.0       0.0
15 H  s               0.0       2.4       0.4       0.7       0.3       0.6
16 H  s               3.9       0.7       1.6       1.1       2.5       0.3
17 H  s               1.2       0.0       1.8       1.4       3.3       0.9
18 H  s               0.3       0.0       0.4       7.6       0.0       1.9
18 H  px              0.0       0.0       0.0       0.1       0.0       0.0
19 H  s               2.3       1.1       0.0       2.1       0.8       0.0
20 H  s               0.0       0.5       3.5       0.0       1.0       0.7
21 H  s               0.1       1.7       3.0       0.0       4.3       0.5
22 H  s               2.0       0.1       1.0       7.0       0.8       1.4
22 H  pz              0.1       0.0       0.0       0.1       0.0       0.0
23 H  s               0.1       0.3       0.0       2.8       0.0       0.3

                     24        25        26        27        28        29   
                  -0.31480  -0.30448  -0.30119  -0.29958  -0.28961  -0.27892
                   2.00000   2.00000   2.00000   2.00000   2.00000   2.00000
                  --------  --------  --------  --------  --------  --------
 0 C  s               0.4       0.1       0.0       0.0       0.1       0.0
 0 C  pz              0.8       9.7       1.2       0.4       0.2       1.2
 0 C  px              4.7       0.2       0.1       0.4       0.0       1.1
 0 C  py             13.5       2.9       0.1       0.8       1.0       0.4
 0 C  dyz             0.0       0.4       0.0       0.0       0.0       0.1
 0 C  dx2y2           0.3       0.0       0.0       0.0       0.0       0.1
 1 C  s               0.1       0.1       0.0       0.0       0.1       0.4
 1 C  pz              1.0      15.1       1.1       1.3       0.0       3.2
 1 C  px              1.5       0.5       0.1       0.0       1.0       4.5
 1 C  py             13.5       3.1       0.1       0.5       0.9       0.4
 1 C  dz2             0.0       0.2       0.0       0.0       0.0       0.1
 1 C  dyz             0.0       0.4       0.0       0.0       0.0       0.0
 1 C  dx2y2           0.3       0.0       0.0       0.0       0.0       0.1
 2 C  s               0.0       0.0       0.0       0.0       0.1       0.6
 2 C  pz              0.0       0.8       0.0       0.4       0.9      10.0
 2 C  px              3.9       2.7       0.2       0.0       0.4       1.9
 2 C  py              5.5       0.8       0.0       0.1       1.9       1.2
 2 C  dz2             0.0       0.1       0.0       0.0       0.2       0.2
 2 C  dx2y2           0.1       0.0       0.0       0.0       0.0       0.3
 3 C  s               0.0       0.0       0.6       0.0       0.2       0.2
 3 C  pz              0.0       1.4       0.2       0.3       3.2      10.9
 3 C  px              2.2       1.0       0.5       1.0       2.4       2.5
 3 C  py              8.7       0.0       1.2       2.2       6.2       1.0
 3 C  dz2             0.0       0.0       0.0       0.0       0.2       0.3
 3 C  dxz             0.0       0.1       0.0       0.0       0.0       0.5
 3 C  dx2y2           0.0       0.0       0.1       0.1       0.1       0.0
 3 C  dxy             0.0       0.0       0.0       0.2       0.1       0.0
 4 C  s               0.0       0.2       0.1       1.1       0.2       0.1
 4 C  pz              0.3       2.0       2.6       0.6      11.1       0.3
 4 C  px              0.4       0.7       5.2       8.0       1.1       0.8
 4 C  py              3.6       0.1       0.0      14.3       5.0       0.1
 4 C  dxz             0.0       0.0       0.0       0.1       0.1       0.1
 4 C  dx2y2           0.0       0.0       0.0       0.0       0.2       0.1
 4 C  dxy             0.1       0.0       0.0       0.0       0.2       0.0
 5 C  s               0.2       0.4       0.2       0.2       0.0       0.3
 5 C  pz              0.2       0.2       0.1       2.1      15.6       0.3
 5 C  px              0.4       3.4       2.9       7.9       0.3       2.7
 5 C  py              0.4       2.4      25.8       0.3       0.8       0.1
 5 C  dz2             0.0       0.1       0.1       0.0       0.2       0.0
 5 C  dxz             0.0       0.0       0.0       0.1       0.1       0.0
 5 C  dyz             0.0       0.0       0.1       0.0       0.3       0.1
 5 C  dx2y2           0.0       0.0       0.2       0.3       0.0       0.0
 5 C  dxy             0.1       0.1       0.0       0.0       0.0       0.0
 6 C  s               0.0       0.1       0.1       0.6       0.1       0.2
 6 C  pz              0.4       1.6       0.8       5.2       3.0       9.3
 6 C  px              5.1       1.0       0.2      11.0       1.3       0.4
 6 C  py              0.8       1.3      25.5       0.7       0.5       0.1
 6 C  dz2             0.0       0.1       0.1       0.1       0.0       0.0
 6 C  dxz             0.0       0.0       0.0       0.1       0.1       0.0
 6 C  dyz             0.0       0.0       0.0       0.0       0.3       0.1
 6 C  dx2y2           0.1       0.0       0.5       0.0       0.0       0.0
 6 C  dxy             0.1       0.0       0.0       0.2       0.0       0.0
 7 C  s               0.0       0.1       0.1       0.8       0.1       0.1
 7 C  pz              3.1       0.9       1.2       5.0       2.4       6.4
 7 C  px              3.5       0.5       0.9       2.2       0.6       3.0
 7 C  py              4.5       3.1       8.8       8.3       0.2       1.6
 7 C  dz2             0.0       0.1       0.0       0.1       0.0       0.0
 7 C  dxz             0.0       0.1       0.1       0.1       0.0       0.3
 7 C  dx2y2           0.1       0.0       0.3       0.2       0.0       0.0
 7 C  dxy             0.1       0.0       0.2       0.0       0.0       0.1
 8 H  s               0.0       9.0       0.4       0.9       0.0       1.1
 8 H  py              0.1       0.0       0.0       0.0       0.0       0.0
 9 H  s               0.4       1.6       0.7       0.0       0.3       0.1
10 H  s               4.3       0.6       0.0       0.3       0.0       1.5
10 H  py              0.1       0.0       0.0       0.0       0.0       0.0
11 H  s               1.3       1.8       0.4       0.2       0.9       0.2
12 H  s               0.0      13.8       0.5       1.3       0.2       2.5
12 H  pz              0.0       0.1       0.0       0.0       0.0       0.0
12 H  py              0.1       0.0       0.0       0.0       0.0       0.0
13 H  s               0.1       2.2       0.0       0.2       2.2       5.1
14 H  s               3.5       0.4       0.2       0.0       1.7       1.0
14 H  pz              0.0       0.0       0.0       0.0       0.0       0.1
15 H  s               0.7       1.2       0.3       0.4       3.6      11.4
15 H  py              0.1       0.0       0.0       0.0       0.1       0.0
16 H  s               0.4       0.8       1.4       2.0       2.0       0.2
16 H  px              0.0       0.0       0.1       0.1       0.0       0.0
16 H  py              0.0       0.0       0.0       0.1       0.2       0.0
17 H  s               0.9       0.1       0.2       3.8       4.9       0.1
17 H  pz              0.0       0.0       0.1       0.1       0.0       0.0
18 H  s               1.0       1.3       0.0       0.5       2.8       1.2
18 H  py              0.0       0.0       0.3       0.0       0.0       0.0
19 H  s               0.1       0.6       2.0       1.2      11.4       0.3
19 H  py              0.0       0.0       0.2       0.0       0.0       0.0
20 H  s               2.5       0.5       3.2       5.8       0.9       0.0
20 H  pz              0.0       0.0       0.0       0.1       0.0       0.1
20 H  py              0.0       0.0       0.2       0.0       0.0       0.0
21 H  s               0.1       2.3       0.2       0.1       3.8       3.3
21 H  px              0.0       0.0       0.0       0.1       0.0       0.1
21 H  py              0.0       0.0       0.2       0.0       0.0       0.0
22 H  s               0.4       2.1       0.0       0.0       0.6       2.9
23 H  s               2.1       2.3       7.0       4.4       0.3       0.6
23 H  px              0.1       0.0       0.0       0.0       0.0       0.0

                     30        31        32        33        34        35   
                  -0.27224  -0.26661   0.08023   0.08898   0.10036   0.11384
                   2.00000   2.00000   0.00000   0.00000   0.00000   0.00000
[...]
 5 C  dyz             1.0       3.2       0.0       0.0       0.0       0.0
 5 C  dx2y2           0.1       1.0       0.0       0.0       0.0       0.0
 5 C  dxy             0.0       0.3       0.0       0.0       0.0       0.0
 6 C  s               0.3       0.2       4.9       2.3      17.5      13.6
 6 C  pz              0.7       0.3       0.0       0.0       0.0       0.0
 6 C  px              0.1       2.4       0.0       0.0       0.0       0.0
 6 C  py              0.2       0.2       0.0       0.0       0.0       0.0
 6 C  dz2             0.9       1.4       0.0       0.0       0.0       0.0
 6 C  dxz             0.3       0.0       0.0       0.0       0.0       0.0
 6 C  dyz             0.3       0.0       0.0       0.0       0.0       0.0
 6 C  dx2y2           0.0       0.8       0.0       0.0       0.0       0.0
 6 C  dxy             0.2       0.5       0.0       0.0       0.0       0.0
 7 C  s               0.0       0.1      19.7       0.8       1.6       6.7
 7 C  px              0.1       0.1       0.0       0.0       0.0       0.0
 7 C  py              0.3       0.0       0.0       0.0       0.0       0.0
 7 C  dz2             0.5       0.4       0.0       0.0       0.0       0.0
 7 C  dxz             0.0       0.1       0.0       0.0       0.0       0.0
 7 C  dx2y2           0.5       0.0       0.0       0.0       0.0       0.0
 7 C  dxy             0.0       0.4       0.0       0.0       0.0       0.0
 8 H  py              0.1       0.0       0.0       0.0       0.0       0.0
 9 H  s               0.3       0.0       0.0       0.0       0.0       0.0
 9 H  pz              0.6       0.0       0.0       0.0       0.0       0.0
 9 H  py              0.1       0.0       0.0       0.0       0.0       0.0
10 H  px              0.0       0.2       0.0       0.0       0.0       0.0
11 H  s               0.4       0.0       0.0       0.0       0.0       0.0
11 H  pz              0.1       0.1       0.0       0.0       0.0       0.0
11 H  px              0.7       0.0       0.0       0.0       0.0       0.0
12 H  s               2.0       0.0       0.0       0.0       0.0       0.0
12 H  pz              3.6       0.0       0.0       0.0       0.0       0.0
12 H  px              0.2       0.0       0.0       0.0       0.0       0.0
12 H  py              1.6       0.0       0.0       0.0       0.0       0.0
13 H  s               2.1       0.3       0.0       0.0       0.0       0.0
13 H  pz              4.4       0.4       0.0       0.0       0.0       0.0
13 H  px              0.1       0.1       0.0       0.0       0.0       0.0
13 H  py              0.6       0.0       0.0       0.0       0.0       0.0
14 H  s               0.1       0.2       0.0       0.0       0.0       0.0
14 H  px              0.4       0.0       0.0       0.0       0.0       0.0
14 H  py              0.1       0.4       0.0       0.0       0.0       0.0
15 H  s               2.8       3.2       0.0       0.0       0.0       0.0
15 H  pz              5.5       5.0       0.0       0.0       0.0       0.0
15 H  px              1.0       1.9       0.0       0.0       0.0       0.0
16 H  s               0.2       3.3       0.0       0.0       0.0       0.0
16 H  pz              1.0       3.6       0.0       0.0       0.0       0.0
16 H  px              0.2       0.0       0.0       0.0       0.0       0.0
16 H  py              0.0       2.0       0.0       0.0       0.0       0.0
17 H  s               1.6       2.9       0.0       0.0       0.0       0.0
17 H  pz              2.6       1.2       0.0       0.0       0.0       0.0
17 H  px              1.2       2.0       0.0       0.0       0.0       0.0
17 H  py              0.4       2.2       0.0       0.0       0.0       0.0
18 H  s               0.0       2.2       0.0       0.0       0.0       0.0
18 H  pz              0.1       1.2       0.0       0.0       0.0       0.0
18 H  px              0.0       1.8       0.0       0.0       0.0       0.0
18 H  py              0.0       0.5       0.0       0.0       0.0       0.0
19 H  s               1.1       2.4       0.0       0.0       0.0       0.0
19 H  pz              2.3       2.7       0.0       0.0       0.0       0.0
19 H  px              0.0       0.4       0.0       0.0       0.0       0.0
19 H  py              0.5       1.5       0.0       0.0       0.0       0.0
20 H  s               0.1       1.6       0.0       0.0       0.0       0.0
20 H  pz              0.1       0.0       0.0       0.0       0.0       0.0
20 H  px              0.1       3.1       0.0       0.0       0.0       0.0
20 H  py              0.1       0.2       0.0       0.0       0.0       0.0
21 H  s               0.5       0.6       0.0       0.0       0.0       0.0
21 H  pz              0.8       0.7       0.0       0.0       0.0       0.0
21 H  px              0.4       0.0       0.0       0.0       0.0       0.0
21 H  py              0.0       0.2       0.0       0.0       0.0       0.0
23 H  s               0.4       0.0       0.0       0.0       0.0       0.0
23 H  px              0.0       0.2       0.0       0.0       0.0       0.0
23 H  py              0.8       0.0       0.0       0.0       0.0       0.0

                    228       229       230       231   
                  22.09571  22.14535  22.16447  22.23671
                   0.00000   0.00000   0.00000   0.00000
                  --------  --------  --------  --------
 0 C  s               0.3       0.2       0.0       1.3
 1 C  s               0.2       0.6       1.1       4.5
 2 C  s              19.4      28.6       4.1      13.4
 3 C  s               3.6       4.3       0.4      64.2
 4 C  s              30.4      19.4      17.3       4.3
 5 C  s              18.7      20.7       9.2       0.2
 6 C  s              18.7       6.6      24.8      11.3
 7 C  s               8.4      19.3      42.6       0.5


                      *****************************
                      * MAYER POPULATION ANALYSIS *
                      *****************************

  NA   - Mulliken gross atomic population
  ZA   - Total nuclear charge
  QA   - Mulliken gross atomic charge
  VA   - Mayer's total valence
  BVA  - Mayer's bonded valence
  FA   - Mayer's free valence

  ATOM       NA         ZA         QA         VA         BVA        FA
  0 C      6.4988     6.0000    -0.4988     3.7784     3.7784    -0.0000
  1 C      6.2439     6.0000    -0.2439     3.6549     3.6549     0.0000
  2 C      6.3377     6.0000    -0.3377     3.6854     3.6854     0.0000
  3 C      5.9688     6.0000     0.0312     3.3367     3.3367     0.0000
  4 C      6.4215     6.0000    -0.4215     3.7960     3.7960    -0.0000
  5 C      6.3228     6.0000    -0.3228     3.6883     3.6883     0.0000
  6 C      6.2875     6.0000    -0.2875     3.6302     3.6302    -0.0000
  7 C      6.3591     6.0000    -0.3591     3.6133     3.6133     0.0000
  8 H      0.8538     1.0000     0.1462     0.9624     0.9624    -0.0000
  9 H      0.8432     1.0000     0.1568     0.9599     0.9599    -0.0000
 10 H      0.8563     1.0000     0.1437     0.9625     0.9625     0.0000
 11 H      0.8599     1.0000     0.1401     0.9607     0.9607    -0.0000
 12 H      0.8567     1.0000     0.1433     0.9637     0.9637     0.0000
 13 H      0.8467     1.0000     0.1533     0.9584     0.9584     0.0000
 14 H      0.8534     1.0000     0.1466     0.9636     0.9636     0.0000
 15 H      0.8378     1.0000     0.1622     0.9595     0.9595     0.0000
 16 H      0.8420     1.0000     0.1580     0.9617     0.9617    -0.0000
 17 H      0.8338     1.0000     0.1662     0.9581     0.9581    -0.0000
 18 H      0.8494     1.0000     0.1506     0.9630     0.9630     0.0000
 19 H      0.8461     1.0000     0.1539     0.9630     0.9630     0.0000
 20 H      0.8475     1.0000     0.1525     0.9624     0.9624    -0.0000
 21 H      0.8435     1.0000     0.1565     0.9638     0.9638    -0.0000
 22 H      0.8423     1.0000     0.1577     0.9626     0.9626    -0.0000
 23 H      0.8474     1.0000     0.1526     0.9641     0.9641    -0.0000

  Mayer bond orders larger than 0.100000
B(  0-C ,  1-C ) :   0.8707 B(  0-C ,  8-H ) :   0.9809 B(  0-C ,  9-H ) :   0.9790 
B(  0-C , 10-H ) :   0.9679 B(  1-C ,  2-C ) :   0.8964 B(  1-C , 11-H ) :   0.9726 
B(  1-C , 12-H ) :   0.9980 B(  2-C ,  3-C ) :   0.8545 B(  2-C , 13-H ) :   0.9827 
B(  2-C , 14-H ) :   0.9793 B(  3-C ,  4-C ) :   0.8856 B(  3-C ,  7-C ) :   0.8783 
B(  3-C , 15-H ) :   0.9558 B(  4-C ,  5-C ) :   0.9259 B(  4-C , 16-H ) :   0.9713 
B(  4-C , 17-H ) :   0.9851 B(  5-C ,  6-C ) :   0.9173 B(  5-C , 18-H ) :   0.9854 
B(  5-C , 19-H ) :   0.9749 B(  6-C ,  7-C ) :   0.8745 B(  6-C , 20-H ) :   0.9505 
B(  6-C , 21-H ) :   0.9940 B(  7-C , 22-H ) :   0.9951 B(  7-C , 23-H ) :   0.9720 


-------
TIMINGS
-------

Total SCF time: 0 days 0 hours 0 min 22 sec 

Total time                  ....      22.625 sec
Sum of individual times     ....      22.181 sec  ( 98.0%)

SCF preparation             ....       0.195 sec  (  0.9%)
Fock matrix formation       ....      21.096 sec  ( 93.2%)
  Startup                   ....       0.053 sec  (  0.3% of F)
  Split-RI-J                ....       4.197 sec  ( 19.9% of F)
  XC integration            ....      16.402 sec  ( 77.7% of F)
    Basis function eval.    ....       2.887 sec  ( 17.6% of XC)
    Density eval.           ....       5.295 sec  ( 32.3% of XC)
    XC-Functional eval.     ....       1.909 sec  ( 11.6% of XC)
    XC-Potential eval.      ....       5.561 sec  ( 33.9% of XC)
Diagonalization             ....       0.000 sec  (  0.0%)
Density matrix formation    ....       0.208 sec  (  0.9%)
Total Energy calculation    ....       0.033 sec  (  0.1%)
Population analysis         ....       0.142 sec  (  0.6%)
Orbital Transformation      ....       0.070 sec  (  0.3%)
Orbital Orthonormalization  ....       0.000 sec  (  0.0%)
DIIS solution               ....       0.372 sec  (  1.6%)
  MO trafo                  ....       0.000 sec  (  0.0 % of DIIS)
  Orb grad                  ....       0.000 sec  (  0.0 % of DIIS)
  Energy W gradient         ....       0.000 sec  (  0.0 % of DIIS)
  DIIS error                ....       0.011 sec  (  2.8 % of DIIS)
  DIIS work                 ....       0.310 sec  ( 83.2 % of DIIS)
  Form Q                    ....       0.000 sec  (  0.0 % of DIIS)
  Form QpQm                 ....       0.000 sec  (  0.0 % of DIIS)
  Exp/Cayley                ....       0.000 sec  (  0.0 % of DIIS)
  Orb update                ....       0.000 sec  (  0.0 % of DIIS)
  Wake-sleep                ....       0.019 sec  (  5.0 % of DIIS)
SOSCF solution              ....       0.065 sec  (  0.3%)
  MO trafo                  ....       0.052 sec  ( 79.3 % of SOSCF)
  Orb grad                  ....       0.001 sec  (  0.9 % of SOSCF)
  Rot update                ....       0.000 sec  (  0.1 % of SOSCF)
  Step                      ....       0.013 sec  ( 19.6 % of SOSCF)
Finished LeanSCF after  22.7 sec

Maximum memory used throughout the entire LEANSCF-calculation: 26.9 MB


-------------------------------------------------------------------------------
                          DFT DISPERSION CORRECTION                            
                                                                               
                                DFTD4 V3.4.0                                   
-------------------------------------------------------------------------------
The R2SCAN3C composite method is recognized
Using three-body term ABC
Active option DFTDOPT                   ...         5   

-------------------------   ----------------
Dispersion correction           -0.007203384
-------------------------   ----------------

------------------   -----------------
gCP correction             0.010301401
------------------   -----------------

-------------------------   --------------------
FINAL SINGLE POINT ENERGY      -314.378418727280
-------------------------   --------------------


------------------------------------------------------------------------------
                              ORCA PROPERTY CALCULATIONS
------------------------------------------------------------------------------

GBWName                                 ... sp_gas.gbw
Number of atoms                         ...     24
Number of basis functions               ...    232
Max core memory                         ...   1024 MB

Electric properties:
Dipole moment                           ... YES
Quadrupole moment                       ...  NO
Static polarizability (Dipole/Dipole)   ...  NO
Static polarizability (Dipole/Quad.)    ...  NO
Static polarizability (Quad./Quad.)     ...  NO
Static polarizability (Velocity)        ...  NO

Atomic electric properties:
Dipole moment                           ...  NO
Quadrupole moment                       ...  NO
Static polarizability                   ...  NO

Choice of electric origin               ... Center of mass
Position of electric origin             ...    -0.000004    -0.000002    -0.000001

General magnetic properties:
Magnetizability                         ...  NO

EPR properties:
g-Tensor (aka g-matrix)                 ...  NO
Zero-Field splitting spin-orbit         ...  NO
Zero-field splitting spin-spin          ...  NO
Hyperfine couplings                     ...  NO (   0 nuclei)
Quadrupole couplings                    ...  NO (   0 nuclei)
Contact density                         ...  NO (   0 nuclei)

NMR properties:
Chemical shifts                         ...  NO (   0 nuclei)
Spin-rotation constants                 ...  NO (   0 nuclei)
Spin-spin couplings                     ...  NO (   0 nuclei,    0 pairs)

Choice of magnetic origin               ... GIAO
Position of magnetic origin             ...     0.000000     0.000000     0.000000

Properties with geometric perturbations:
SCF Hessian                             ...  NO
IR spectrum                             ...  NO
VCD spectrum                            ...  NO
X-ray spectroscopy properties:
SCF XES/XAS/RIXS spectra                ...  NO


-------------
DIPOLE MOMENT
-------------

Method             : SCF
Type of density    : Electron Density
Multiplicity       :   1
Irrep              :   0
Energy             :  -314.3815167445994234 Eh
Relativity type    : 
Basis              : AO
                                X                 Y                 Z
Electronic contribution:      2.253440674       1.127743386       0.479000478
Nuclear contribution   :     -2.272406301      -1.108542779      -0.461244481
                        -----------------------------------------
Total Dipole Moment    :     -0.018965627       0.019200607       0.017755997
                        -----------------------------------------
Magnitude (a.u.)       :      0.032305321
Magnitude (Debye)      :      0.082113600



--------------------
Rotational spectrum 
--------------------
 
Rotational constants in cm-1:             0.130899             0.040884             0.035547 
Rotational constants in MHz :          3924.253811          1225.673903          1065.662815 

Dipole components along the rotational axes: 
x,y,z [a.u.] :    -0.016812     0.022261     0.016292 
x,y,z [Debye]:    -0.042732     0.056584     0.041411 

 

Dipole moment calculation done in   0.0 sec 

Maximum memory used throughout the entire PROP-calculation: 15.2 MB

--------------------------------
SUGGESTED CITATIONS FOR THIS RUN
--------------------------------

Below you find a list of papers that are relevant to this ORCA run
We neither can nor want to force you to cite these papers, but we appreciate if you do
You receive ORCA, which is the product of decades of hard work by many enthusiastic individuals, for free
The only thing we kindly ask in return is that you cite our papers,
We deeply appreciate it, if you show your appreciation for ORCA by not just citing the generic ORCA reference.

Please note that relegating all ORCA citations to the supporting information does *not* help us.
SI sections are not indexed - citations you put there will not count into any citation statistics
But we need these citations in order to attract the funding resources that allow us to do what we are doing

Therefore, if you are a happy ORCA user, please consider citing a few of the papers listed below in the main body of your paper

In addition to the list printed below, the program has created the file sp_gas.bibtex that contains the list in bibtex format
You can import this file easily into all common literature databanks and citation aid programs


List of essential papers. We consider these as the minimum necessary citations

  1. Neese,F.
     Software update: the ORCA program system, version 5.0
     WIRES Comput. Molec. Sci., 2022 12(1)e1606
     doi.org/10.1002/wcms.1606
  2. Grimme,S.; Hansen,A.; Ehlert,S.; Mewes,J.
     r2SCAN-3c: A 'Swiss army knife' composite electronic-structure method
     J. Chem. Phys., 2021 154 064103
     doi.org/10.1063/5.0040021

List of papers to cite with high priority. The work reported in these papers was absolutely
necessary for this run to complete.
Our perspective: the developers of density functionals and basis sets usually get cited in chemistry papers
Good! But without the algorithms to do something with them, the functionals or basis sets would not do anything.
Hence, in our opinion, the algorithm design and method developments papers are equally worthy of getting cited

  1. Neese,F.
     An improvement of the resolution of the identity approximation for the formation of the Coulomb matrix
     J. Comp. Chem., 2003 24(14)1740-1747
     doi.org/10.1002/jcc.10318
  2. Neese,F.
     The SHARK Integral Generation and Digestion System
     J. Comp. Chem., 2022  1-16
     doi.org/10.1002/jcc.26942
  3. Lehtola,S.; Steigemann,C.; Oliveira,M.; Marques,M.
     Recent developments in Libxc - A comprehensive library of functionals for density functional theory
     Software X, 2018 7 
     doi.org/10.1016/j.softx.2017.11.002
  4. Caldeweyher,E.; Bannwarth,C.; Grimme,S.
     Extension of the D3 dispersion coefficient model
     J. Chem. Phys., 2017 147 034112-XXXX
     doi.org/10.1063/1.4993215
  5. Caldeweyher,E.; Ehlert,S.; Hansen,A.; Neugebauer,H.; Spicher,S.; Bannwarth,C.; Grimme,S.
     A generally applicable atomic-charge dependent London dispersion correction
     J. Chem. Phys., 2019 150 154122-XXXX
     doi.org/10.1063/1.5090222
  6. Caldeweyher,E.; Mewes,J.; Ehlert,S.; Grimme,S.
     Extension and evaluation of the D4 London-dispersion model for periodic systems
     Phys. Chem. Chem. Phys., 2020 22(16)8499-8512
     doi.org/10.1039/D0CP00502A

List of suggested additional citations. These are papers that are important in the 'surrounding' of 
of this run, or papers that preceded the highly important papers. If you like your results we are grateful for a citation.

  1. Neese,F.
     The ORCA program system
     WIRES Comput. Molec. Sci., 2012 2(1)73-78
     doi.org/10.1002/wcms.81
  2. Neese,F.
     Software update: the ORCA program system, version 4.0
     WIRES Comput. Molec. Sci., 2018 8(1)1-6
     doi.org/10.1002/wcms.1327
  3. Neese,F.; Wennmohs,F.; Becker,U.; Riplinger,C.
     The ORCA quantum chemistry program package
     J. Chem. Phys., 2020 152 Art. No. L224108
     doi.org/10.1063/5.0004608

List of optional additional citations

  1. Neese,F.
     Approximate second-order SCF convergence for spin unrestricted wavefunctions
     Chem. Phys. Lett., 2000 325(1-3)93-98
     doi.org/10.1016/s0009-2614(00)00662-x

Timings for individual modules:

Sum of individual times          ...       24.569 sec (=   0.409 min)
Startup calculation              ...        1.409 sec (=   0.023 min)   5.7 %
SCF iterations                   ...       23.044 sec (=   0.384 min)  93.8 %
Property calculations            ...        0.116 sec (=   0.002 min)   0.5 %
                             ****ORCA TERMINATED NORMALLY****
TOTAL RUN TIME: 0 days 0 hours 0 minutes 25 seconds 427 msec
