17
 energy: -197.683886566989 gnorm: 0.019753318627 xtb: 6.7.1 (edcfbbe)
C            1.89504395223974       -0.65906849739205        0.33063008484651
C            1.10903253469144        0.19370240198583       -0.65899835099202
C            0.00004739730002        1.01658292885047       -0.00036604850016
C           -1.10922454209153        0.19451339978619        0.65882458249194
C           -1.89490697983968       -0.65941478289220       -0.33009624354627
H            2.28783242611380       -0.04180508121852        1.13583030580332
H            2.73053359960997       -1.14262007620633       -0.17029748227546
H            1.26786814796183       -1.43332459543514        0.76447729743876
H            1.79678366709620        0.88597391179260       -1.15098691561003
H            0.68347723680287       -0.44587085729758       -1.43362724313528
H           -0.44942376859915        1.66236859043664       -0.75906984643636
H            0.44964205589925        1.66307155573695        0.75767722263575
H           -0.68403609760311       -0.44423028379685        1.43435555653560
H           -1.79711095009635        0.88740443119323        1.14977042560949
H           -2.28546809081275       -0.04334833941921       -1.13730431210397
H           -2.73193514901059       -1.14073409530549        0.17045706247553
H           -1.26807206036192       -1.43549402443611       -0.76121085863731
17
 energy: -197.684459573940 gnorm: 0.005518490165 xtb: 6.7.1 (edcfbbe)
C            1.89468614468225       -0.66359210929647        0.32737911990333
C            1.11089628583982        0.19947151322897       -0.66002070022740
C            0.00002049338128        1.02307169298702       -0.00041129344456
C           -1.11108696761265        0.20031271847997        0.65986348145433
C           -1.89451458650481       -0.66388177659435       -0.32686134818602
H            2.29273183764341       -0.05049070617927        1.14183913152658
H            2.73652802906546       -1.15596949971542       -0.16657269235185
H            1.26776608165986       -1.44271660843795        0.76842517829872
H            1.80099218039690        0.88890657872812       -1.15923534621303
H            0.68677099094593       -0.43598829296291       -1.44516207653202
H           -0.45409693199216        1.67636584179783       -0.75567468163598
H            0.45425233029224        1.67698286767233        0.75424890813427
H           -0.68731489620445       -0.43425490089220        1.44592426875599
H           -1.80130753786714        0.89039965846010        1.15800433227838
H           -2.29056530788395       -0.05202883983530       -1.14323801236359
H           -2.73772884952420       -1.15412714253086        0.16687320932818
H           -1.26794541439322       -1.44475395841239       -0.76531923351719
17
 energy: -197.684518764170 gnorm: 0.000816144798 xtb: 6.7.1 (edcfbbe)
C            1.89136937408396       -0.66608726092135        0.32458118516025
C            1.11112190056148        0.20247345144697       -0.66125099365954
C            0.00005080513332        1.02592603829977       -0.00042160077437
C           -1.11129003153089        0.20334137450108        0.66103769919598
C           -1.89123720927730       -0.66637714980248       -0.32403016813742
H            2.29259536344195       -0.05872774446099        1.14495053169843
H            2.73461923468202       -1.16230257307614       -0.16731505262324
H            1.26271552622056       -1.44674814955310        0.76554281443226
H            1.80457532698017        0.89145053042034       -1.15907557603604
H            0.68877632557643       -0.42815035089554       -1.45382286151005
H           -0.45437747796743        1.68260428723897       -0.75480082970833
H            0.45461041759351        1.68319719328178        0.75336348061758
H           -0.68930229501895       -0.42636139120597        1.45453284412886
H           -1.80485788402245        0.89298598261310        1.15777314819904
H           -2.29069019412946       -0.06024498665625       -1.14617437304240
H           -2.73570193660463       -1.16063146925595        0.16775316906850
H           -1.26289258539016       -1.44864023816705       -0.76258519952059
17
 energy: -197.684542551413 gnorm: 0.001736213655 xtb: 6.7.1 (edcfbbe)
C            1.88582123213146       -0.67030216041615        0.32109723051708
C            1.11130997187503        0.20631520309727       -0.66125209610929
C            0.00005434398643        1.02949027512966       -0.00046713003456
C           -1.11145641019847        0.20721833960717        0.66101667354459
C           -1.88570876662128       -0.67055692910547       -0.32051681125388
H            2.28883355076795       -0.06905177702955        1.14582253107169
H            2.72832737368179       -1.16854041047216       -0.17091419320777
H            1.25349502379514       -1.45074583108553        0.75842184474617
H            1.80837697009303        0.89611544673603       -1.15381431250243
H            0.69033652025573       -0.41834797692783       -1.45999837983523
H           -0.45421551009405        1.68716853617149       -0.75465690798441
H            0.45448503487704        1.68773056864347        0.75313510716932
H           -0.69082894682209       -0.41649867396618        1.46068492466834
H           -1.80861287759158        0.89770866722058        1.15247974927689
H           -2.28726930154633       -0.07051052739233       -1.14682817476314
H           -2.72921369956446       -1.16706736576534        0.17152688500922
H           -1.25364864105120       -1.45241710304347       -0.75568473398366
17
 energy: -197.684606519078 gnorm: 0.003490245198 xtb: 6.7.1 (edcfbbe)
C            1.86279522214115       -0.68557022742671        0.30929814675653
C            1.11091472201361        0.22002267307713       -0.66273058534950
C            0.00010969930850        1.04202878075060       -0.00059846182846
C           -1.11095670960038        0.22104585742864        0.66237116406146
C           -1.86281443602946       -0.68572472220774       -0.30857521917432
H            2.27030905347298       -0.10654780190777        1.14827061801715
H            2.70060244784074       -1.18906624424318       -0.18544659399941
H            1.21502531310471       -1.46374000250526        0.72898931367049
H            1.82142872039380        0.91323722418756       -1.13242000121520
H            0.69351078139739       -0.38269856245075       -1.48093281742567
H           -0.45305850293460        1.70027464262408       -0.75518413126823
H            0.45349681394049        1.70086340264299        0.75334701004912
H           -0.69381886572775       -0.38065959891697        1.48145359909476
H           -1.82145730429507        0.91500078911410        1.13098108152833
H           -2.26999568696497       -0.10777825295560       -1.14843629138098
H           -2.70086124187403       -1.18835991277573        0.18666828136154
H           -1.21513942595690       -1.46461699798201       -0.72702600380054
17
 energy: -197.684634560633 gnorm: 0.002714945349 xtb: 6.7.1 (edcfbbe)
C            1.84942363912530       -0.69410686127239        0.30302200484976
C            1.10978738688338        0.22749274316498       -0.66352827049044
C            0.00010551443474        1.05048565789481       -0.00069069632866
C           -1.10977471674917        0.22856369750498        0.66315231929638
C           -1.84948935687013       -0.69418029491675       -0.30223836658074
H            2.25746231139231       -0.12677288945262        1.14914283756773
H            2.68473414360150       -1.20023934970176       -0.19282574002634
H            1.19202919240264       -1.46992416526787        0.71147861516456
H            1.82782736619116        0.92077190854675       -1.12103877038737
H            0.69346777158737       -0.36393084379598       -1.48990892042311
H           -0.45346408503499        1.70812679510202       -0.75524392504649
H            0.45389529418363        1.70877586347852        0.75316581415363
H           -0.69364248372101       -0.36183310093270        1.49035879487668
H           -1.82773013859017        0.92259458678370        1.11964428535648
H           -2.25775503009189       -0.12786748738242       -1.14891760000089
H           -2.68465565520268       -1.19983328526610        0.19436360523692
H           -1.19212785003245       -1.47041042844811       -0.70991977209217
17
 energy: -197.684655334467 gnorm: 0.001037777216 xtb: 6.7.1 (edcfbbe)
C            1.82895518869856       -0.70530739542718        0.29448442210590
C            1.10794321789743        0.23786952929064       -0.66625785710479
C            0.00013356437459        1.06157877054372       -0.00078501207260
C           -1.10782609025995        0.23898080102325        0.66581917135735
C           -1.82913626708398       -0.70530591263151       -0.29359120528800
H            2.23626292763175       -0.15494590846127        1.15144712968559
H            2.66142156460745       -1.21420472311367       -0.20257304244170
H            1.15796141698553       -1.47820673454133        0.68541832869978
H            1.83669546951106        0.93008755568636       -1.10714742931394
H            0.69217374748813       -0.33805136749177       -1.50289402670229
H           -0.45420968497534        1.71831916596908       -0.75511168151361
H            0.45464658647969        1.71916173373416        0.75270907489694
H           -0.69210068789316       -0.33592319498120        1.50316784595194
H           -1.83639503147834        0.93193116236125        1.10583790978252
H           -2.23733595389925       -0.15586370089826       -1.15069412391450
H           -2.66099282458828       -1.21417618448020        0.20452252241402
H           -1.15809995637343       -1.47822896942649       -0.68435424891672
17
 energy: -197.684659382877 gnorm: 0.000598528629 xtb: 6.7.1 (edcfbbe)
C            1.82563253668944       -0.70612717116790        0.29352181103558
C            1.10669362361867        0.23851159232274       -0.66676275126767
C            0.00011698427840        1.06367739612684       -0.00079490659609
C           -1.10655052393635        0.23958766360839        0.66635113143094
C           -1.82581932867392       -0.70612020737447       -0.29262719348388
H            2.22984128066642       -0.15763878288029        1.15223913757033
H            2.65910117119464       -1.21386025932598       -0.20267761077603
H            1.15330192959523       -1.47888040113619        0.68029716179001
H            1.83652741496870        0.92897254756842       -1.10676137519099
H            0.69011343921889       -0.33644028317353       -1.50281141053267
H           -0.45517069935965        1.71997781726018       -0.75477031288879
H            0.45551711059711        1.72092013541124        0.75229194679859
H           -0.68995481061945       -0.33438632090769        1.50306177996848
H           -1.83618675512963        0.93075368313555        1.10556675673614
H           -2.23084007300535       -0.15854632208277       -1.15154213206939
H           -2.65873785239290       -1.21371003737769        0.20461589509337
H           -1.15348780384965       -1.47897625215745       -0.67920234847930
17
 energy: -197.684659382877 gnorm: 0.000598528629 xtb: 6.7.1 (edcfbbe)
C            1.82563253668944       -0.70612717116790        0.29352181103558
C            1.10669362361867        0.23851159232274       -0.66676275126767
C            0.00011698427840        1.06367739612684       -0.00079490659609
C           -1.10655052393635        0.23958766360839        0.66635113143094
C           -1.82581932867392       -0.70612020737447       -0.29262719348388
H            2.22984128066642       -0.15763878288029        1.15223913757033
H            2.65910117119464       -1.21386025932598       -0.20267761077603
H            1.15330192959523       -1.47888040113619        0.68029716179001
H            1.83652741496870        0.92897254756842       -1.10676137519099
H            0.69011343921889       -0.33644028317353       -1.50281141053267
H           -0.45517069935965        1.71997781726018       -0.75477031288879
H            0.45551711059711        1.72092013541124        0.75229194679859
H           -0.68995481061945       -0.33438632090769        1.50306177996848
H           -1.83618675512963        0.93075368313555        1.10556675673614
H           -2.23084007300535       -0.15854632208277       -1.15154213206939
H           -2.65873785239290       -1.21371003737769        0.20461589509337
H           -1.15348780384965       -1.47897625215745       -0.67920234847930
