
                                 *****************
                                 * O   R   C   A *
                                 *****************

                                            #,                                       
                                            ###                                      
                                            ####                                     
                                            #####                                    
                                            ######                                   
                                           ########,                                 
                                     ,,################,,,,,                         
                               ,,#################################,,                 
                          ,,##########################################,,             
                       ,#########################################, ''#####,          
                    ,#############################################,,   '####,        
                  ,##################################################,,,,####,       
                ,###########''''           ''''###############################       
              ,#####''   ,,,,##########,,,,          '''####'''          '####       
            ,##' ,,,,###########################,,,                        '##       
           ' ,,###''''                  '''############,,,                           
         ,,##''                                '''############,,,,        ,,,,,,###''
      ,#''                                            '''#######################'''  
     '                                                          ''''####''''         
             ,#######,   #######,   ,#######,      ##                                
            ,#'     '#,  ##    ##  ,#'     '#,    #''#        ,####,   ,####,        
            ##       ##  ##   ,#'  ##            #'  '#       #'       #'  '#        
            ##       ##  #######   ##           ,######,      #####,   #    #        
            '#,     ,#'  ##    ##  '#,     ,#' ,#      #,     #,   #   #,  ,#        
             '#######'   ##     ##  '#######'  #'      '#     '####' # '####'        



                #########################################################
                #                        -***-                          #
                #          Department of theory and spectroscopy        #
                #                                                       #
                #                      Frank Neese                      #
                #                                                       #
                #     Directorship, Architecture, Infrastructure        #
                #                    SHARK, DRIVERS                     #
                #        Core code/Algorithms in most modules           #
                #                                                       #
                #        Max Planck Institute fuer Kohlenforschung      #
                #                Kaiser Wilhelm Platz 1                 #
                #                 D-45470 Muelheim/Ruhr                 #
                #                      Germany                          #
                #                                                       #
                #                  All rights reserved                  #
                #                        -***-                          #
                #########################################################


                         Program Version 6.0.0  -   RELEASE  -


 With contributions from (in alphabetic order):
   Daniel Aravena         : Magnetic Suceptibility
   Michael Atanasov       : Ab Initio Ligand Field Theory (pilot matlab implementation)
   Alexander A. Auer      : GIAO ZORA, VPT2 properties, NMR spectrum
   Ute Becker             : All parallelization in ORCA, NUMFREQ, NUMCALC
   Giovanni Bistoni       : ED, misc. LED, open-shell LED, HFLD
   Martin Brehm           : Molecular dynamics
   Dmytro Bykov           : pre 5.0 version of the SCF Hessian
   Marcos Casanova-Páez   : Triplet and SCS-CIS(D). UHF-(DLPNO)-IP/EA/STEOM-CCSD. UHF-CVS-IP/STEOM-CCSD
   Vijay G. Chilkuri      : MRCI spin determinant printing, contributions to CSF-ICE
   Pauline Colinet        : FMM embedding
   Dipayan Datta          : RHF DLPNO-CCSD density
   Achintya Kumar Dutta   : EOM-CC, STEOM-CC
   Nicolas Foglia         : Exact transition moments, OPA infrastructure, MCD improvements
   Dmitry Ganyushin       : Spin-Orbit,Spin-Spin,Magnetic field MRCI
   Miquel Garcia          : C-PCM and meta-GGA Hessian, CCSD/C-PCM, Gaussian charge scheme
   Tiago L. C. Gouveia    : GS-ROHF, GS-ROCIS
   Yang Guo               : DLPNO-NEVPT2, F12-NEVPT2, CIM, IAO-localization
   Andreas Hansen         : Spin unrestricted coupled pair/coupled cluster methods
   Ingolf Harden          : AUTO-CI MPn and infrastructure 
   Benjamin Helmich-Paris : MC-RPA, TRAH-(SCF,CASSCF), AVAS, COSX integrals, SCF dyn. polar.
   Lee Huntington         : MR-EOM, pCC
   Robert Izsak           : Overlap fitted RIJCOSX, COSX-SCS-MP3, EOM
   Riya Kayal             : Wick's Theorem for AUTO-CI, AUTO-CI UHF-CCSDT
   Emily Kempfer          : AUTO-CI, RHF CISDT and CCSDT
   Christian Kollmar      : KDIIS, OOCD, Brueckner-CCSD(T), CCSD density, CASPT2, CASPT2-K, improved NEVPT2
   Axel Koslowski         : Symmetry handling
   Simone Kossmann        : Meta GGA functionals, TD-DFT gradient, OOMP2, (MP2 Hessian; deprecated post 5.0)
   Lucas Lang             : DCDCAS
   Marvin Lechner         : AUTO-CI (C++ implementation), FIC-MRCC
   Spencer Leger          : CASSCF response
   Dagmar Lenk            : GEPOL surface, SMD, ORCA-2-JSON
   Dimitrios Liakos       : Extrapolation schemes; Compound Job, initial MDCI parallelization
   Dimitrios Manganas     : Further ROCIS development; embedding schemes. LFT, Crystal Embedding
   Dimitrios Pantazis     : SARC Basis sets
   Anastasios Papadopoulos: AUTO-CI, single reference methods and gradients
   Taras Petrenko         : pre 6.0 DFT Hessian and TD-DFT gradient, (ASA, deprecated), ECA, 1-Electron XAS/XES, NRVS
   Peter Pinski           : DLPNO-MP2, DLPNO-MP2 Gradient
   Christoph Reimann      : Effective Core Potentials
   Marius Retegan         : Local ZFS, SOC
   Christoph Riplinger    : Optimizer, TS searches, QM/MM, DLPNO-CCSD(T), (RO)-DLPNO pert. Triples
   Michael Roemelt        : Original ROCIS implementation
   Masaaki Saitow         : Open-shell DLPNO-CCSD energy and density
   Barbara Sandhoefer     : DKH picture change effects
   Kantharuban Sivalingam : CASSCF convergence/infrastructure, NEVPT2 and variants, FIC-MRCI
   Bernardo de Souza      : ESD, SOC TD-DFT
   Georgi Stoychev        : AutoAux, RI-MP2 NMR, DLPNO-MP2 response, X2C
   Van Anh Tran           : RI-MP2 g-tensors
   Willem Van den Heuvel  : Paramagnetic NMR
   Zikuan Wang            : NOTCH, Electric field optimization 
   Frank Wennmohs         : Technical directorship and infrastructure
   Hang Xu                : AUTO-CI-Response properties 


 We gratefully acknowledge several colleagues who have allowed us to
 interface, adapt or use parts of their codes:
   Stefan Grimme, W. Hujo, H. Kruse, P. Pracht,  : VdW corrections, initial TS optimization,
                  C. Bannwarth, S. Ehlert,         DFT functionals, gCP, sTDA/sTD-DF
                  L. Wittmann, M. Mueller
   Ed Valeev, F. Pavosevic, A. Kumar             : LibInt (2-el integral package), F12 methods
   Garnet Chan, S. Sharma, J. Yang, R. Olivares  : DMRG
   Ulf Ekstrom                                   : XCFun DFT Library
   Mihaly Kallay                                 : mrcc  (arbitrary order and MRCC methods)
   Frank Weinhold                                : gennbo (NPA and NBO analysis)
   Simon Mueller                                 : openCOSMO-RS
   Christopher J. Cramer and Donald G. Truhlar   : smd solvation model
   Lars Goerigk                                  : TD-DFT with DH, B97 family of functionals
   V. Asgeirsson, H. Jonsson                     : NEB implementation
   FAccTs GmbH                                   : IRC, NEB, NEB-TS, DLPNO-Multilevel, CI-OPT
                                                   MM, QMMM, 2- and 3-layer-ONIOM, Crystal-QMMM,
                                                   LR-CPCM, SF, NACMEs, symmetry and pop. for TD-DFT,
                                                   nearIR, NL-DFT gradient (VV10), updates on ESD,
                                                   ML-optimized integration grids, MBIS, APM,
                                                   GOAT, DOCKER, SOLVATOR, interface openCOSMO-RS
   S Lehtola, MJT Oliveira, MAL Marques          : LibXC Library
   Liviu Ungur et al                             : ANISO software


 Your calculation uses the libint2 library for the computation of 2-el integrals
 For citations please refer to: http://libint.valeyev.net

 Your ORCA version has been built with support for libXC version: 6.2.2
 For citations please refer to: https://libxc.gitlab.io

 This ORCA versions uses:
   CBLAS   interface :  Fast vector & matrix operations
   LAPACKE interface :  Fast linear algebra routines
   SCALAPACK package :  Parallel linear algebra routines
   Shared memory     :  Shared parallel matrices
   BLAS/LAPACK       :  OpenBLAS 0.3.27  USE64BITINT DYNAMIC_ARCH NO_AFFINITY SkylakeX SINGLE_THREADED
        Core in use  :  SkylakeX
   Copyright (c) 2011-2014, The OpenBLAS Project


Your calculation utilizes the geometrical counterpoise correction gCP
Please cite in your paper:
H.Kruse, S. Grimme J.Chem.Phys., 136, (2012), 154101 
   

Your calculation utilizes the atom-pairwise dispersion correction
based on EEQ partial charges (D4)


================================================================================

----- Orbital basis set information -----
Your calculation utilizes the basis: def2-mTZVPP
   Stefan Grimme, Andreas Hansen, Sebastian Ehlert, and Jan-Michael Mewes 
   J. Chem. Phys. 154, 064103 (2021). DOI: 10.1063/5.0040021

----- AuxJ basis set information -----
Your calculation utilizes the auxiliary basis: def2/J
   F. Weigend, Phys. Chem. Chem. Phys. 8, 1057 (2006).

================================================================================
                                        WARNINGS
                       Please study these warnings very carefully!
================================================================================

Using LibXC functional ID 497 : Re-regularized SCAN exchange by Furness et al
[ 1]  J. W. Furness, A. D. Kaplan, J. Ning, J. P. Perdew, and J. Sun.,  J. Phys. Chem. Lett. 11, 8208-8215 (2020)
[ 2]  J. W. Furness, A. D. Kaplan, J. Ning, J. P. Perdew, and J. Sun.,  J. Phys. Chem. Lett. 11, 9248-9248 (2020)
Using LibXC functional ID 498 : Re-regularized SCAN correlation by Furness et al
[ 1]  J. W. Furness, A. D. Kaplan, J. Ning, J. P. Perdew, and J. Sun.,  J. Phys. Chem. Lett. 11, 8208-8215 (2020)
[ 2]  J. W. Furness, A. D. Kaplan, J. Ning, J. P. Perdew, and J. Sun.,  J. Phys. Chem. Lett. 11, 9248-9248 (2020)
Using LibXC functional ID 497 : Re-regularized SCAN exchange by Furness et al
[ 1]  J. W. Furness, A. D. Kaplan, J. Ning, J. P. Perdew, and J. Sun.,  J. Phys. Chem. Lett. 11, 8208-8215 (2020)
[ 2]  J. W. Furness, A. D. Kaplan, J. Ning, J. P. Perdew, and J. Sun.,  J. Phys. Chem. Lett. 11, 9248-9248 (2020)
Using LibXC functional ID 498 : Re-regularized SCAN correlation by Furness et al
[ 1]  J. W. Furness, A. D. Kaplan, J. Ning, J. P. Perdew, and J. Sun.,  J. Phys. Chem. Lett. 11, 8208-8215 (2020)
[ 2]  J. W. Furness, A. D. Kaplan, J. Ning, J. P. Perdew, and J. Sun.,  J. Phys. Chem. Lett. 11, 9248-9248 (2020)

================================================================================
                                       INPUT FILE
================================================================================
NAME = sp_gas.inp
|  1> ! r2scan-3c def2/J RI DEFGRID2 scfconv6 printgap
|  2> %output
|  3>     printlevel normal
|  4> end
|  5> * xyz 0 1
|  6> C -1.0181307248 -0.4205072961 -0.3491566239
|  7> C 0.1491047977 0.3456544166 0.2827059722
|  8> C 1.4815184391 -0.1037900517 -0.3305218939
|  9> O 1.6990900814 -1.4506199019 0.020008251
| 10> O -0.0895832081 1.7198482804 0.0583681502
| 11> O -2.2384580356 -0.15610826 0.2963243557
| 12> H -0.8367842686 -1.4917900848 -0.2540930511
| 13> H -1.0797285926 -0.1509463772 -1.4120858908
| 14> H 0.1638768458 0.1235040827 1.3594767443
| 15> H 2.2878895448 0.5317028586 0.0606747164
| 16> H 1.4291321264 0.0204862392 -1.419894672
| 17> H 2.5289250767 -1.7548107191 -0.3736637037
| 18> H 0.5656852804 2.2517036162 0.5297581373
| 19> H -2.373958705 0.8032835425 0.2924379782
| 20> *
| 21> 
| 22>                          ****END OF INPUT****
================================================================================

                       ****************************
                       * Single Point Calculation *
                       ****************************

---------------------------------
CARTESIAN COORDINATES (ANGSTROEM)
---------------------------------
  C     -1.018131   -0.420507   -0.349157
  C      0.149105    0.345654    0.282706
  C      1.481518   -0.103790   -0.330522
  O      1.699090   -1.450620    0.020008
  O     -0.089583    1.719848    0.058368
  O     -2.238458   -0.156108    0.296324
  H     -0.836784   -1.491790   -0.254093
  H     -1.079729   -0.150946   -1.412086
  H      0.163877    0.123504    1.359477
  H      2.287890    0.531703    0.060675
  H      1.429132    0.020486   -1.419895
  H      2.528925   -1.754811   -0.373664
  H      0.565685    2.251704    0.529758
  H     -2.373959    0.803284    0.292438

----------------------------
CARTESIAN COORDINATES (A.U.)
----------------------------
  NO LB      ZA    FRAG     MASS         X           Y           Z
   0 C     6.0000    0    12.011   -1.923988   -0.794644   -0.659810
   1 C     6.0000    0    12.011    0.281767    0.653192    0.534237
   2 C     6.0000    0    12.011    2.799664   -0.196135   -0.624596
   3 O     8.0000    0    15.999    3.210815   -2.741274    0.037810
   4 O     8.0000    0    15.999   -0.169288    3.250042    0.110300
   5 O     8.0000    0    15.999   -4.230073   -0.295002    0.559972
   6 H     1.0000    0     1.008   -1.581293   -2.819075   -0.480166
   7 H     1.0000    0     1.008   -2.040391   -0.285247   -2.668456
   8 H     1.0000    0     1.008    0.309682    0.233389    2.569039
   9 H     1.0000    0     1.008    4.323485    1.004773    0.114659
  10 H     1.0000    0     1.008    2.700668    0.038713   -2.683212
  11 H     1.0000    0     1.008    4.778976   -3.316112   -0.706122
  12 H     1.0000    0     1.008    1.068990    4.255103    1.001098
  13 H     1.0000    0     1.008   -4.486132    1.517986    0.552628

--------------------------------
INTERNAL COORDINATES (ANGSTROEM)
--------------------------------
 C      0   0   0     0.000000000000     0.00000000     0.00000000
 C      1   0   0     1.532544575320     0.00000000     0.00000000
 C      2   1   0     1.534071333946   110.50178570     0.00000000
 O      3   2   1     1.408601947821   108.34918116   294.45344435
 O      2   1   3     1.412695366241   106.98640564   121.68972977
 O      1   2   3     1.405614204112   112.20142901   172.80539142
 H      1   2   3     1.090674302170   109.17574884    54.60839807
 H      1   2   3     1.098305974102   108.60445316   295.20084051
 H      2   1   3     1.099547306807   108.23913712   241.07887533
 H      3   2   1     1.098690305345   109.00623056   174.09197246
 H      3   2   1     1.097689378606   108.78936549    55.54151634
 H      4   3   2     0.967541100218   109.38003761   178.94362039
 H      5   2   1     0.966672338581   110.07367294   173.28654202
 H      6   1   2     0.968921135099   107.80766430    55.25383234

---------------------------
INTERNAL COORDINATES (A.U.)
---------------------------
 C      0   0   0     0.000000000000     0.00000000     0.00000000
 C      1   0   0     2.896089535382     0.00000000     0.00000000
 C      2   1   0     2.898974691058   110.50178570     0.00000000
 O      3   2   1     2.661871913091   108.34918116   294.45344435
 O      2   1   3     2.669607352855   106.98640564   121.68972977
 O      1   2   3     2.656225895721   112.20142901   172.80539142
 H      1   2   3     2.061075732408   109.17574884    54.60839807
 H      1   2   3     2.075497502303   108.60445316   295.20084051
 H      2   1   3     2.077843281155   108.23913712   241.07887533
 H      3   2   1     2.076223783097   109.00623056   174.09197246
 H      3   2   1     2.074332305679   108.78936549    55.54151634
 H      4   3   2     1.828387702725   109.38003761   178.94362039
 H      5   2   1     1.826745981156   110.07367294   173.28654202
 H      6   1   2     1.830995590706   107.80766430    55.25383234

---------------------
BASIS SET INFORMATION
---------------------
There are 3 groups of distinct atoms

 Group   1 Type C   : 11s6p1d contracted to 5s3p1d pattern {62111/411/1}
 Group   2 Type O   : 11s6p2d contracted to 5s3p2d pattern {62111/411/11}
 Group   3 Type H   : 4s1p contracted to 2s1p pattern {31/1}

Atom   0C    basis set group =>   1
Atom   1C    basis set group =>   1
Atom   2C    basis set group =>   1
Atom   3O    basis set group =>   2
Atom   4O    basis set group =>   2
Atom   5O    basis set group =>   2
Atom   6H    basis set group =>   3
Atom   7H    basis set group =>   3
Atom   8H    basis set group =>   3
Atom   9H    basis set group =>   3
Atom  10H    basis set group =>   3
Atom  11H    basis set group =>   3
Atom  12H    basis set group =>   3
Atom  13H    basis set group =>   3
---------------------------------
AUXILIARY/J BASIS SET INFORMATION
---------------------------------
There are 3 groups of distinct atoms

 Group   1 Type C   : 12s5p4d2f1g contracted to 6s4p3d1f1g pattern {711111/2111/211/2/1}
 Group   2 Type O   : 12s5p4d2f1g contracted to 6s4p3d1f1g pattern {711111/2111/211/2/1}
 Group   3 Type H   : 5s2p1d contracted to 3s1p1d pattern {311/2/1}

Atom   0C    basis set group =>   1
Atom   1C    basis set group =>   1
Atom   2C    basis set group =>   1
Atom   3O    basis set group =>   2
Atom   4O    basis set group =>   2
Atom   5O    basis set group =>   2
Atom   6H    basis set group =>   3
Atom   7H    basis set group =>   3
Atom   8H    basis set group =>   3
Atom   9H    basis set group =>   3
Atom  10H    basis set group =>   3
Atom  11H    basis set group =>   3
Atom  12H    basis set group =>   3
Atom  13H    basis set group =>   3

Checking for AutoStart:
The File: sp_gas.gbw exists
Trying to determine its content:
     ... Fine, the file contains calculation information
     ... Fine, the calculation information was read
     ... Fine, the file contains a basis set
     ... Fine, the basis set was read
     ... Fine, the file contains a geometry
     ... Fine, the geometry was read
     ... Fine, the file contains a set of orbitals
     ... Fine, the orbitals can be read
     => possible old guess file was deleted
     => GBW file was renamed to GES file
     => GES file is set as startup file
     => Guess is set to MORead
     ... now leaving AutoStart

------------------------------------------------------------------------------
                             ORCA STARTUP CALCULATIONS
                           -- RI-GTO INTEGRALS CHOSEN --
------------------------------------------------------------------------------
------------------------------------------------------------------------------
                   ___                                                        
                  /   \      - P O W E R E D   B Y -                         
                 /     \                                                     
                 |  |  |   _    _      __       _____    __    __             
                 |  |  |  | |  | |    /  \     |  _  \  |  |  /  |          
                  \  \/   | |  | |   /    \    | | | |  |  | /  /          
                 / \  \   | |__| |  /  /\  \   | |_| |  |  |/  /          
                |  |  |   |  __  | /  /__\  \  |    /   |      \           
                |  |  |   | |  | | |   __   |  |    \   |  |\   \          
                \     /   | |  | | |  |  |  |  | |\  \  |  | \   \       
                 \___/    |_|  |_| |__|  |__|  |_| \__\ |__|  \__/        
                                                                              
                      - O R C A' S   B I G   F R I E N D -                    
                                      &                                       
                       - I N T E G R A L  F E E D E R -                       
                                                                              
 v1 FN, 2020, v2 2021, v3 2022-2024                                           
------------------------------------------------------------------------------


----------------------
SHARK INTEGRAL PACKAGE
----------------------

Number of atoms                             ...     14
Number of basis functions                   ...    169
Number of shells                            ...     81
Maximum angular momentum                    ...      2
Integral batch strategy                     ... SHARK/LIBINT Hybrid
RI-J (if used) integral strategy            ... SPLIT-RIJ (Revised 2003 algorithm where possible)
Printlevel                                  ...      1
Contraction scheme used                     ... SEGMENTED contraction
Prescreening option                         ... SCHWARTZ
   Thresh                                   ... 1.000e-10
   Tcut                                     ... 1.000e-11
   Tpresel                                  ... 1.000e-11 
Coulomb Range Separation                    ... NOT USED
Exchange Range Separation                   ... NOT USED
Multipole approximations                    ... NOT USED
Finite Nucleus Model                        ... NOT USED
CABS basis                                  ... NOT available
Auxiliary Coulomb fitting basis             ... AVAILABLE
   # of basis functions in Aux-J            ...    382
   # of shells in Aux-J                     ...    130
   Maximum angular momentum in Aux-J        ...      4
Auxiliary J/K fitting basis                 ... NOT available
Auxiliary Correlation fitting basis         ... NOT available
Auxiliary 'external' fitting basis          ... NOT available

Checking pre-screening integrals            ... done (  0.0 sec) Dimension = 81
Check shell pair data                       ... done (  0.0 sec)
Shell pair information
Shell pair cut-off parameter TPreSel        ...   1.0e-11
Total number of shell pairs                 ...      3321
Shell pairs after pre-screening             ...      3097
Total number of primitive shell pairs       ...     11632
Primitive shell pairs kept                  ...      8080
          la=0 lb=0:    982 shell pairs
          la=1 lb=0:   1120 shell pairs
          la=1 lb=1:    335 shell pairs
          la=2 lb=0:    391 shell pairs
          la=2 lb=1:    225 shell pairs
          la=2 lb=2:     44 shell pairs

Calculating one electron integrals          ... done (  0.0 sec)
Calculating RI/J V-Matrix + Cholesky decomp.... done (  0.1 sec)
Calculating Nuclear repulsion               ... done (  0.0 sec) ENN=    261.279830447567 Eh

Diagonalization of the overlap matrix:
Smallest eigenvalue                        ... 2.005e-04
Time for diagonalization                   ...    0.003 sec
Threshold for overlap eigenvalues          ... 1.000e-07
Number of eigenvalues below threshold      ... 0
Time for construction of square roots      ...    0.019 sec
Total time needed                          ...    0.029 sec

-------------------
DFT GRID GENERATION
-------------------

General Integration Accuracy     IntAcc      ... 4.388
Radial Grid Type                 RadialGrid  ... OptM3 with GC (2021)
Angular Grid (max. ang.)         AngularGrid ... 4 (Lebedev-302)
Angular grid pruning method      GridPruning ... 4 (adaptive)
Weight generation scheme         WeightScheme... mBecke (2022)
Basis function cutoff            BFCut       ... 1.0000e-10
Integration weight cutoff        WCut        ... 1.0000e-14
Partially contracted basis set               ... off
Rotationally invariant grid construction     ... off
Angular grids for H and He will be reduced by one unit
Diffuse basis detected: some atoms will have their outermost
                        angular grid increased by 1.

Total number of grid points                  ...    63015
Total number of batches                      ...      993
Average number of points per batch           ...       63
Average number of grid points per atom       ...     4501
Initializing property integral containers    ... done (  0.0 sec)

SHARK setup successfully completed in   0.9 seconds

Maximum memory used throughout the entire STARTUP-calculation: 27.8 MB
-------------------------------------------------------------------------------
                                 ORCA GUESS
                   Start orbitals & Density for SCF / CASSCF
-------------------------------------------------------------------------------

------------
SCF SETTINGS
------------
Hamiltonian:
 Density Functional     Method          .... DFT(GTOs)
  Functional kind                       .... Exchange
  Functional name                       .... Re-regularized SCAN exchange by Furness et al
  Functional family                     .... MGGA
  Functional refs                              
    [ 0] J. W. Furness, A. D. Kaplan, J. Ning, J. P. Perdew, and J. Sun.,  J. Phys. Chem. Lett. 11, 8208-8215 (2020), doi: 10.1021/acs.jpclett.0c02405
    [ 1] J. W. Furness, A. D. Kaplan, J. Ning, J. P. Perdew, and J. Sun.,  J. Phys. Chem. Lett. 11, 9248-9248 (2020), doi: 10.1021/acs.jpclett.0c03077
  Functional external parameters        .... 6
    Parameter  0 _c1        =  6.670000e-01 : c1 parameter        
    Parameter  1 _c2        =  8.000000e-01 : c2 parameter        
    Parameter  2 _d         =  1.240000e+00 : d parameter         
    Parameter  3 _k1        =  6.500000e-02 : k1 parameter        
    Parameter  4 _eta       =  1.000000e-03 : eta parameter       
    Parameter  5 _dp2       =  3.610000e-01 : dp2 parameter       
  Functional kind                       .... Correlation
  Functional name                       .... Re-regularized SCAN correlation by Furness et al
  Functional family                     .... MGGA
  Functional refs                              
    [ 0] J. W. Furness, A. D. Kaplan, J. Ning, J. P. Perdew, and J. Sun.,  J. Phys. Chem. Lett. 11, 8208-8215 (2020), doi: 10.1021/acs.jpclett.0c02405
    [ 1] J. W. Furness, A. D. Kaplan, J. Ning, J. P. Perdew, and J. Sun.,  J. Phys. Chem. Lett. 11, 9248-9248 (2020), doi: 10.1021/acs.jpclett.0c03077
  Functional external parameters        .... 1
    Parameter  0 _eta       =  1.000000e-03 : Regularization parameter
 Gradients option       PostSCFGGA      .... off
 RI-approximation to the Coulomb term is turned on
   Number of AuxJ basis functions       .... 382


General Settings:
 Integral files         IntName         .... sp_gas
 Hartree-Fock type      HFTyp           .... RHF
 Total Charge           Charge          ....    0
 Multiplicity           Mult            ....    1
 Number of Electrons    NEL             ....   50
 Basis Dimension        Dim             ....  169
 Nuclear Repulsion      ENuc            ....    261.2798304476 Eh

Convergence Acceleration:
 AO-DIIS                CNVDIIS         .... on
   Start iteration      DIISMaxIt       ....    12
   Startup error        DIISStart       ....  0.200000
   # of expansion vecs  DIISMaxEq       ....     5
   Bias factor          DIISBfac        ....   1.050
   Max. coefficient     DIISMaxC        ....  10.000
 MO-DIIS                CNVKDIIS        .... off
 Trust-Rad. Augm. Hess. CNVTRAH         .... auto
   Auto Start mean grad. ratio tolernc. ....  1.125000
   Auto Start start iteration           ....     1
   Auto Start num. interpolation iter.  ....    10
   Max. Number of Micro iterations      ....    24
   Max. Number of Macro iterations      .... Maxiter - #DIIS iter
   Number of Davidson start vectors     ....     2
   Converg. threshold    (grad. norm)   ....   3.330e-04
   Grad. Scal. Fac. for Micro threshold ....   0.100
   Minimum threshold for Micro iter.    ....   1.000e-02
   NR start threshold (gradient norm)   ....   1.000e-04
   Initial trust radius                 ....   0.400
   Minimum AH scaling param. (alpha)    ....   1.000
   Maximum AH scaling param. (alpha)    .... 1000.000
   Quad. conv. algorithm                .... NR
   White noise on init. David. guess    .... on
   Maximum white noise                  ....   0.010
   Pseudo random numbers                .... off
   Inactive MOs                         .... canonical
   Orbital update algorithm             .... Taylor
   Preconditioner                       .... Diag
   Full preconditioner red. dimension   ....   250
   COSX micro iterations for RIJONX calc.... off
 SOSCF                  CNVSOSCF        .... on
   Start iteration      SOSCFMaxIt      ....   150
   Startup grad/error   SOSCFStart      ....  0.003300
   Hessian update       SOSCFHessUp     .... L-BFGS
 Level Shifting         CNVShift        .... on
   Level shift para.    LevelShift      ....    0.2500
   Turn off err/grad.   ShiftErr        ....    0.0010
 Zerner damping         CNVZerner       .... off
 Static damping         CNVDamp         .... on
   Fraction old density DampFac         ....    0.7000
   Max. Damping (<1)    DampMax         ....    0.9800
   Min. Damping (>=0)   DampMin         ....    0.0000
   Turn off err/grad.   DampErr         ....    0.1000

SCF Procedure:
 Maximum # iterations   MaxIter         ....   125
 SCF integral mode      SCFMode         .... Direct
   Integral package                     .... SHARK and LIBINT hybrid scheme
 Reset frequency        DirectResetFreq ....    20
 Integral Threshold     Thresh          ....  1.000e-10 Eh
 Primitive CutOff       TCut            ....  1.000e-11 Eh

Convergence Tolerance:
 Convergence Check Mode ConvCheckMode   .... Total+1el-Energy
 Convergence forced     ConvForced      .... 0
 Energy Change          TolE            ....  1.000e-06 Eh
 1-El. energy change                    ....  1.000e-03 Eh
 Orbital Gradient       TolG            ....  3.330e-04
 Orbital Rotation angle TolX            ....  3.330e-04
 DIIS Error             TolErr          ....  1.000e-06

---------------------
INITIAL GUESS: MOREAD
---------------------
Guess MOs are being read from file: sp_gas.ges
Input Geometry matches current geometry (good)
Atom 0: N(Shells)= 9 and 6 - projection required
Input basis set needs projection
NBasis(read)= 100
NBasis(calc)= 169
Basis set overlap was calculated
Using GuessMode=FMatrix for the initial guess
C*T matrix was formed
Effective Fockian was calculated
Effective Fockian was diagonalized
Initial density was built
                      ------------------
                      INITIAL GUESS DONE (   0.1 sec)
                      ------------------
             **** ENERGY FILE WAS UPDATED (sp_gas.en.tmp) ****
Finished Guess after   0.3 sec
Maximum memory used throughout the entire GUESS-calculation: 11.4 MB

-------------------------------------------------------------------------------------------
                                      ORCA LEAN-SCF
                              memory conserving SCF solver
-------------------------------------------------------------------------------------------

----------------------------------------D-I-I-S--------------------------------------------
Iteration    Energy (Eh)           Delta-E    RMSDP     MaxDP     DIISErr   Damp  Time(sec)
-------------------------------------------------------------------------------------------
               ***  Starting incremental Fock matrix formation  ***
    1    -344.5182416621176458     0.00e+00  4.05e-03  1.23e-01  6.28e-01  0.700   1.9
    2    -344.5810233776423388    -6.28e-02  3.36e-03  7.39e-02  4.41e-01  0.700   1.8
    3    -344.6256125131004069    -4.46e-02  2.48e-03  5.29e-02  3.09e-01  0.700   1.8
    4    -344.6569582563324161    -3.13e-02  1.78e-03  3.79e-02  2.16e-01  0.700   1.8
                               ***Turning on AO-DIIS***
    5    -344.6789681314331233    -2.20e-02  1.28e-03  2.69e-02  1.52e-01  0.700   1.7
    6    -344.6944106087960904    -1.54e-02  9.10e-04  1.92e-02  1.06e-01  0.700   1.7
    7    -344.7052449553111160    -1.08e-02  6.43e-04  1.36e-02  7.42e-02  0.700   1.7
    8    -344.7128414423262370    -7.60e-03  1.51e-03  3.19e-02  5.20e-02  0.000   1.7
                              *** Initializing SOSCF ***
---------------------------------------S-O-S-C-F--------------------------------------
Iteration    Energy (Eh)           Delta-E    RMSDP     MaxDP     MaxGrad    Time(sec)
--------------------------------------------------------------------------------------
    9    -344.7306057332587557    -1.78e-02  9.66e-06  1.46e-04  2.19e-04     1.8
               *** Restarting incremental Fock matrix formation ***
   10    -344.7306058742103119    -1.41e-07  1.05e-05  2.84e-04  3.14e-05     1.9
                  *** Gradient check signals convergence ***

               *****************************************************
               *                     SUCCESS                       *
               *           SCF CONVERGED AFTER  10 CYCLES          *
               *****************************************************

             **** ENERGY FILE WAS UPDATED (sp_gas.en.tmp) ****

----------------
TOTAL SCF ENERGY
----------------

Total Energy       :       -344.73060587421031 Eh           -9380.59669 eV

Components:
Nuclear Repulsion  :        261.27983044756655 Eh            7109.78564 eV
Electronic Energy  :       -606.01043632177698 Eh          -16490.38233 eV
One Electron Energy:       -989.27645292100931 Eh          -26919.58085 eV
Two Electron Energy:        383.26601659923239 Eh           10429.19852 eV

Virial components:
Potential Energy   :       -688.08912131805300 Eh          -18723.85689 eV
Kinetic Energy     :        343.35851544384269 Eh            9343.26021 eV
Virial Ratio       :          2.00399608679748

DFT components:
N(Alpha)           :       25.000011144161 electrons
N(Beta)            :       25.000011144161 electrons
N(Total)           :       50.000022288323 electrons
E(X)               :      -43.317384103446 Eh       
E(C)               :       -1.627681473848 Eh       
E(XC)              :      -44.945065577294 Eh       

---------------
SCF CONVERGENCE
---------------

  Last Energy change         ...    1.4095e-07  Tolerance :   1.0000e-06
  Last MAX-Density change    ...    2.8429e-04  Tolerance :   1.0000e-05
  Last RMS-Density change    ...    1.0455e-05  Tolerance :   1.0000e-06
  Last DIIS Error            ...    2.1900e-04  Tolerance :   1.0000e-06
  Last Orbital Gradient      ...    3.1435e-05  Tolerance :   3.3300e-04
  Last Orbital Rotation      ...    5.1895e-05  Tolerance :   3.3300e-04


----------------
ORBITAL ENERGIES
----------------

  NO   OCC          E(Eh)            E(eV) 
   0   2.0000     -18.965144      -516.0678 
   1   2.0000     -18.961828      -515.9776 
   2   2.0000     -18.940730      -515.4035 
   3   2.0000     -10.086038      -274.4551 
   4   2.0000     -10.085913      -274.4516 
   5   2.0000     -10.069332      -274.0004 
   6   2.0000      -1.008887       -27.4532 
   7   2.0000      -0.995988       -27.1022 
   8   2.0000      -0.975294       -26.5391 
   9   2.0000      -0.728734       -19.8299 
  10   2.0000      -0.640600       -17.4316 
  11   2.0000      -0.569651       -15.5010 
  12   2.0000      -0.513684       -13.9781 
  13   2.0000      -0.486672       -13.2430 
  14   2.0000      -0.459183       -12.4950 
  15   2.0000      -0.422776       -11.5043 
  16   2.0000      -0.419423       -11.4131 
  17   2.0000      -0.379649       -10.3308 
  18   2.0000      -0.372356       -10.1323 
  19   2.0000      -0.329047        -8.9538 
  20   2.0000      -0.322973        -8.7885 
  21   2.0000      -0.289156        -7.8683 
  22   2.0000      -0.253286        -6.8923 
  23   2.0000      -0.248888        -6.7726 
  24   2.0000      -0.230265        -6.2658 
  25   0.0000       0.033398         0.9088 
  26   0.0000       0.060472         1.6455 
  27   0.0000       0.087677         2.3858 
  28   0.0000       0.125241         3.4080 
  29   0.0000       0.133475         3.6320 
  30   0.0000       0.141212         3.8426 
  31   0.0000       0.150928         4.1070 
  32   0.0000       0.157549         4.2871 
  33   0.0000       0.168515         4.5855 
  34   0.0000       0.181683         4.9439 
  35   0.0000       0.187257         5.0955 
*Only the first 10 virtual orbitals were printed.

                    ********************************
                    * MULLIKEN POPULATION ANALYSIS *
                    ********************************

-----------------------
MULLIKEN ATOMIC CHARGES
-----------------------
   0 C :   -0.218492
   1 C :    0.065460
   2 C :   -0.136333
   3 O :   -0.437096
   4 O :   -0.439724
   5 O :   -0.421186
   6 H :    0.160674
   7 H :    0.134164
   8 H :    0.138977
   9 H :    0.113580
  10 H :    0.133868
  11 H :    0.299415
  12 H :    0.294821
  13 H :    0.311872
Sum of atomic charges:    0.0000000

--------------------------------
MULLIKEN REDUCED ORBITAL CHARGES
--------------------------------
  0 C s       :     3.336590  s :     3.336590
      pz      :     0.981178  p :     2.823182
      px      :     0.780766
      py      :     1.061239
      dz2     :     0.015575  d :     0.058720
      dxz     :     0.014124
      dyz     :     0.003709
      dx2y2   :     0.014737
      dxy     :     0.010576

  1 C s       :     3.143868  s :     3.143868
      pz      :     1.065335  p :     2.724309
      px      :     0.928752
      py      :     0.730222
      dz2     :     0.013593  d :     0.066363
      dxz     :     0.007337
      dyz     :     0.013066
      dx2y2   :     0.016757
      dxy     :     0.015611

  2 C s       :     3.267104  s :     3.267104
      pz      :     1.045053  p :     2.810767
      px      :     1.005552
      py      :     0.760163
      dz2     :     0.013154  d :     0.058462
      dxz     :     0.005066
      dyz     :     0.012163
      dx2y2   :     0.013791
      dxy     :     0.014287

  3 O s       :     3.770363  s :     3.770363
      pz      :     1.797922  p :     4.649787
      px      :     1.523916
      py      :     1.327948
      dz2     :     0.003239  d :     0.016946
      dxz     :     0.005135
      dyz     :     0.002727
      dx2y2   :     0.004983
      dxy     :     0.000862

  4 O s       :     3.766073  s :     3.766073
      pz      :     1.777947  p :     4.654573
      px      :     1.664889
      py      :     1.211737
      dz2     :     0.003880  d :     0.019077
      dxz     :     0.005830
      dyz     :     0.001481
      dx2y2   :     0.004788
      dxy     :     0.003097

  5 O s       :     3.761004  s :     3.761004
      pz      :     1.785785  p :     4.644055
      px      :     1.465678
      py      :     1.392592
      dz2     :     0.003850  d :     0.016127
      dxz     :     0.002866
      dyz     :     0.001673
      dx2y2   :     0.005614
      dxy     :     0.002124

  6 H s       :     0.821825  s :     0.821825
      pz      :     0.003168  p :     0.017501
      px      :     0.002866
      py      :     0.011467

  7 H s       :     0.848784  s :     0.848784
      pz      :     0.010921  p :     0.017053
      px      :     0.002453
      py      :     0.003679

  8 H s       :     0.844075  s :     0.844075
      pz      :     0.011218  p :     0.016948
      px      :     0.003111
      py      :     0.002619

  9 H s       :     0.869148  s :     0.869148
      pz      :     0.004240  p :     0.017272
      px      :     0.007718
      py      :     0.005315

 10 H s       :     0.848995  s :     0.848995
      pz      :     0.011307  p :     0.017138
      px      :     0.003422
      py      :     0.002409

 11 H s       :     0.657275  s :     0.657275
      pz      :     0.013850  p :     0.043309
      px      :     0.019735
      py      :     0.009724

 12 H s       :     0.661839  s :     0.661839
      pz      :     0.014687  p :     0.043340
      px      :     0.016604
      py      :     0.012049

 13 H s       :     0.645227  s :     0.645227
      pz      :     0.011545  p :     0.042901
      px      :     0.009208
      py      :     0.022148


------------------------
MULLIKEN OVERLAP CHARGES
------------------------
B(  0-C ,  1-C ) :   0.3531 B(  0-C ,  2-C ) :  -0.0972 B(  0-C ,  3-O ) :   0.0544 
B(  0-C ,  4-O ) :  -0.0846 B(  0-C ,  5-O ) :   0.4821 B(  0-C ,  6-H ) :   0.8045 
B(  0-C ,  7-H ) :   0.9048 B(  0-C , 13-H ) :  -0.0883 B(  1-C ,  2-C ) :   0.4950 
B(  1-C ,  3-O ) :  -0.1810 B(  1-C ,  4-O ) :   0.3708 B(  1-C ,  5-O ) :  -0.1182 
B(  1-C ,  7-H ) :  -0.1618 B(  1-C ,  8-H ) :   0.8400 B(  1-C ,  9-H ) :  -0.0884 
B(  1-C , 12-H ) :  -0.0904 B(  2-C ,  3-O ) :   0.4137 B(  2-C ,  4-O ) :  -0.1057 
B(  2-C ,  8-H ) :  -0.0918 B(  2-C ,  9-H ) :   0.8189 B(  2-C , 10-H ) :   0.8474 
B(  2-C , 11-H ) :  -0.0771 B(  3-O ,  9-H ) :  -0.0994 B(  3-O , 10-H ) :  -0.1051 
B(  3-O , 11-H ) :   0.5888 B(  4-O ,  8-H ) :  -0.1035 B(  4-O , 12-H ) :   0.5894 
B(  5-O ,  6-H ) :  -0.0947 B(  5-O ,  7-H ) :  -0.1137 B(  5-O , 13-H ) :   0.5953 
B(  6-H ,  7-H ) :  -0.0636 B(  9-H , 10-H ) :  -0.0910 


                     *******************************
                     * LOEWDIN POPULATION ANALYSIS *
                     *******************************

----------------------
LOEWDIN ATOMIC CHARGES
----------------------
   0 C :    0.033275
   1 C :    0.084154
   2 C :    0.026786
   3 O :   -0.623530
   4 O :   -0.600143
   5 O :   -0.594977
   6 H :    0.193797
   7 H :    0.165276
   8 H :    0.176566
   9 H :    0.157365
  10 H :    0.164707
  11 H :    0.270589
  12 H :    0.272314
  13 H :    0.273820

-------------------------------
LOEWDIN REDUCED ORBITAL CHARGES
-------------------------------
  0 C s       :     2.870456  s :     2.870456
      pz      :     1.023368  p :     2.965202
      px      :     0.883689
      py      :     1.058145
      dz2     :     0.036173  d :     0.131066
      dxz     :     0.031008
      dyz     :     0.006682
      dx2y2   :     0.034944
      dxy     :     0.022259

  1 C s       :     2.844506  s :     2.844506
      pz      :     1.068763  p :     2.929259
      px      :     1.008303
      py      :     0.852194
      dz2     :     0.030645  d :     0.142081
      dxz     :     0.014263
      dyz     :     0.027904
      dx2y2   :     0.035997
      dxy     :     0.033272

  2 C s       :     2.874586  s :     2.874586
      pz      :     1.072136  p :     2.967292
      px      :     1.032404
      py      :     0.862753
      dz2     :     0.031273  d :     0.131335
      dxz     :     0.010101
      dyz     :     0.026328
      dx2y2   :     0.031374
      dxy     :     0.032260

  3 O s       :     3.516391  s :     3.516391
      pz      :     1.802421  p :     4.822861
      px      :     1.563644
      py      :     1.456796
      dz2     :     0.040629  d :     0.284278
      dxz     :     0.019334
      dyz     :     0.067708
      dx2y2   :     0.074475
      dxy     :     0.082132

  4 O s       :     3.507721  s :     3.507721
      pz      :     1.781103  p :     4.801425
      px      :     1.664951
      py      :     1.355371
      dz2     :     0.035573  d :     0.290997
      dxz     :     0.018731
      dyz     :     0.076252
      dx2y2   :     0.069645
      dxy     :     0.090797

  5 O s       :     3.517490  s :     3.517490
      pz      :     1.798071  p :     4.806634
      px      :     1.544500
      py      :     1.464063
      dz2     :     0.054688  d :     0.270853
      dxz     :     0.058975
      dyz     :     0.014390
      dx2y2   :     0.077407
      dxy     :     0.065393

  6 H s       :     0.765682  s :     0.765682
      pz      :     0.007100  p :     0.040521
      px      :     0.006069
      py      :     0.027351

  7 H s       :     0.794497  s :     0.794497
      pz      :     0.025654  p :     0.040227
      px      :     0.006061
      py      :     0.008512

  8 H s       :     0.782957  s :     0.782957
      pz      :     0.026787  p :     0.040478
      px      :     0.007090
      py      :     0.006601

  9 H s       :     0.802448  s :     0.802448
      pz      :     0.010127  p :     0.040188
      px      :     0.017897
      py      :     0.012164

 10 H s       :     0.794589  s :     0.794589
      pz      :     0.027028  p :     0.040704
      px      :     0.007945
      py      :     0.005731

 11 H s       :     0.607179  s :     0.607179
      pz      :     0.037869  p :     0.122232
      px      :     0.058696
      py      :     0.025667

 12 H s       :     0.605234  s :     0.605234
      pz      :     0.040576  p :     0.122452
      px      :     0.048663
      py      :     0.033213

 13 H s       :     0.604200  s :     0.604200
      pz      :     0.030156  p :     0.121980
      px      :     0.023713
      py      :     0.068111


---------------------------------
LOEWDIN BOND ORDERS (THRESH 0.050000)
---------------------------------
B(  0-C ,  1-C ) :   0.9360 B(  0-C ,  2-C ) :   0.0724 B(  0-C ,  4-O ) :   0.1628 
B(  0-C ,  5-O ) :   1.4594 B(  0-C ,  6-H ) :   0.8087 B(  0-C ,  7-H ) :   0.8228 
B(  1-C ,  2-C ) :   0.9284 B(  1-C ,  3-O ) :   0.1680 B(  1-C ,  4-O ) :   1.4033 
B(  1-C ,  5-O ) :   0.1630 B(  1-C ,  8-H ) :   0.7930 B(  2-C ,  3-O ) :   1.4310 
B(  2-C ,  4-O ) :   0.1699 B(  2-C ,  9-H ) :   0.8282 B(  2-C , 10-H ) :   0.8264 
B(  3-O ,  9-H ) :   0.1060 B(  3-O , 10-H ) :   0.1035 B(  3-O , 11-H ) :   0.9694 
B(  4-O ,  5-O ) :   0.0604 B(  4-O ,  8-H ) :   0.0966 B(  4-O , 12-H ) :   0.9649 
B(  5-O ,  6-H ) :   0.0977 B(  5-O ,  7-H ) :   0.1030 B(  5-O , 13-H ) :   0.9622 


------------------------------------------
LOEWDIN REDUCED ORBITAL POPULATIONS PER MO
-------------------------------------------
THRESHOLD FOR PRINTING IS 0.1%%
                      0         1         2         3         4         5   
                 -18.96514 -18.96183 -18.94073 -10.08604 -10.08591 -10.06933
                   2.00000   2.00000   2.00000   2.00000   2.00000   2.00000
                  --------  --------  --------  --------  --------  --------
 0 C  s               0.0       0.0       0.0       0.0       0.0      99.4
 1 C  s               0.0       0.0       0.0      53.2      46.2       0.0
 2 C  s               0.0       0.0       0.0      46.1      53.3       0.0
 3 O  s               0.0      99.9       0.0       0.0       0.0       0.0
 4 O  s              99.9       0.0       0.0       0.0       0.0       0.0
 4 O  dx2y2           0.0       0.0       0.0       0.1       0.1       0.0
 5 O  s               0.0       0.0      99.9       0.0       0.0       0.0
 5 O  dxz             0.0       0.0       0.0       0.0       0.0       0.1
 5 O  dx2y2           0.0       0.0       0.0       0.0       0.0       0.1

                      6         7         8         9        10        11   
                  -1.00889  -0.99599  -0.97529  -0.72873  -0.64060  -0.56965
                   2.00000   2.00000   2.00000   2.00000   2.00000   2.00000
                  --------  --------  --------  --------  --------  --------
 0 C  s               2.7       0.6       7.1       8.8      14.5       6.2
 0 C  pz              0.5       0.1       1.4       0.0       0.2       2.1
 0 C  px              0.2       0.3       6.9       5.2       0.6       1.6
 0 C  py              0.9       0.3       0.2       0.1       0.2       5.2
 0 C  dxz             0.0       0.0       0.4       0.1       0.0       0.1
 0 C  dx2y2           0.0       0.0       0.3       0.0       0.0       0.0
 0 C  dxy             0.0       0.0       0.1       0.1       0.0       0.0
 1 C  s               9.4       0.8       0.2      17.9       0.2       8.5
 1 C  pz              0.4       0.0       0.0       0.8       0.0       2.4
 1 C  px              0.0       1.5       1.0       0.3      11.9       0.4
 1 C  py              3.6       3.4       2.5       4.5       0.3       1.4
 1 C  dz2             0.2       0.0       0.0       0.0       0.0       0.0
 1 C  dxz             0.0       0.0       0.0       0.0       0.2       0.0
 1 C  dx2y2           0.3       0.2       0.1       0.2       0.0       0.0
 1 C  dxy             0.0       0.0       0.0       0.0       0.1       0.1
 2 C  s               4.9       5.4       0.0      11.2      15.4       2.9
 2 C  pz              0.4       0.2       0.0       0.1       0.0       1.4
 2 C  px              0.4       0.9       0.0       3.5       0.7       1.4
 2 C  py              0.9       7.8       0.1       1.5       1.6       0.1
 2 C  dz2             0.1       0.1       0.0       0.0       0.0       0.0
 2 C  dyz             0.0       0.1       0.0       0.0       0.0       0.0
 2 C  dx2y2           0.1       0.4       0.0       0.1       0.0       0.0
 3 O  s              14.2      46.3       0.1       2.8       1.9       0.5
 3 O  pz              0.2       0.6       0.0       0.0       0.0       0.2
 3 O  px              0.1       0.5       0.0       2.0       1.4       0.7
 3 O  py              0.5       0.9       0.0       3.8       8.0       3.3
 3 O  dz2             0.1       0.0       0.0       0.3       0.1       0.0
 3 O  dyz             0.0       0.0       0.0       0.1       0.3       0.3
 3 O  dx2y2           0.0       0.1       0.0       0.5       1.5       0.2
 3 O  dxy             0.1       0.0       0.0       0.4       0.0       0.1
 4 O  s              38.4      12.5       9.2       4.2       0.0       0.7
 4 O  pz              0.4       0.2       0.1       0.2       0.0       0.1
 4 O  px              0.7       0.2       0.3       0.2       1.0       1.7
 4 O  py              0.7       0.1       0.0       6.9       0.5      19.8
 4 O  dz2             0.1       0.0       0.0       0.4       0.0       0.0
 4 O  dyz             0.0       0.0       0.0       0.0       0.0       0.7
 4 O  dx2y2           0.1       0.0       0.0       1.1       0.3       0.5
 4 O  dxy             0.0       0.0       0.1       0.4       0.5       0.2
 5 O  s               4.9       2.4      53.0       2.1       2.9       0.1
 5 O  pz              0.1       0.0       0.4       0.2       1.2       2.0
 5 O  px              0.3       0.1       1.2       1.7       5.5       2.6
 5 O  py              0.1       0.0       0.7       0.5       2.8       6.6
 5 O  dz2             0.0       0.0       0.0       0.1       0.0       0.1
 5 O  dxz             0.0       0.0       0.1       0.2       0.6       0.5
 5 O  dx2y2           0.0       0.0       0.0       0.6       0.8       0.1
 5 O  dxy             0.0       0.0       0.0       0.0       0.1       0.4
 6 H  s               0.2       0.0       0.5       1.8       4.1       4.3
 6 H  py              0.0       0.0       0.1       0.2       0.3       0.3
 7 H  s               0.2       0.0       0.5       1.5       3.7       2.7
 7 H  pz              0.0       0.0       0.0       0.1       0.3       0.2
 8 H  s               0.6       0.1       0.0       3.0       0.0       3.9
 8 H  pz              0.1       0.0       0.0       0.3       0.0       0.3
 9 H  s               0.4       0.4       0.0       1.8       5.4       1.3
 9 H  px              0.0       0.0       0.0       0.1       0.3       0.0
 9 H  py              0.0       0.0       0.0       0.0       0.1       0.0
10 H  s               0.3       0.4       0.0       2.1       4.0       1.9
10 H  pz              0.0       0.0       0.0       0.2       0.3       0.1
11 H  s               2.5       8.0       0.0       1.9       2.0       0.8
11 H  pz              0.1       0.2       0.0       0.1       0.1       0.0
11 H  px              0.4       1.3       0.0       0.3       0.3       0.1
11 H  py              0.1       0.3       0.0       0.0       0.0       0.0
12 H  s               6.6       2.1       1.7       2.3       0.2       4.9
12 H  pz              0.3       0.1       0.1       0.1       0.0       0.2
12 H  px              0.6       0.2       0.2       0.3       0.0       0.3
12 H  py              0.5       0.2       0.1       0.1       0.0       0.0
13 H  s               1.0       0.4       9.0       0.8       2.4       2.4
13 H  py              0.2       0.1       1.9       0.2       0.4       0.2

                     12        13        14        15        16        17   
                  -0.51368  -0.48667  -0.45918  -0.42278  -0.41942  -0.37965
                   2.00000   2.00000   2.00000   2.00000   2.00000   2.00000
                  --------  --------  --------  --------  --------  --------
 0 C  s               0.2       0.1       0.6       1.2       0.3       0.3
 0 C  pz              4.2       3.6       2.7      11.9       4.5       2.6
 0 C  px              0.1       2.7       8.4       0.5       2.0       7.3
 0 C  py              2.0       1.6       0.0       1.7       2.6      17.2
 0 C  dxz             0.0       0.1       0.2       0.1       0.1       0.0
 0 C  dx2y2           0.0       0.0       0.0       0.1       0.0       0.4
 1 C  s               1.0       0.9       0.8       0.1       0.1       0.2
 1 C  pz             12.3       6.2       0.3       0.9       5.7       1.2
 1 C  px              0.9       2.3       1.1       0.1      14.2       0.5
 1 C  py              5.1       0.3       6.8       0.5       2.8       0.4
 1 C  dz2             0.0       0.0       0.1       0.0       0.0       0.1
 1 C  dxz             0.0       0.0       0.0       0.1       0.1       0.0
 1 C  dyz             0.0       0.0       0.1       0.0       0.0       0.0
 1 C  dxy             0.0       0.1       0.2       0.0       0.0       0.0
 2 C  s               1.3       0.5       0.2       0.0       0.2       0.0
 2 C  pz             10.6       0.4       1.1      19.6       2.8       2.9
 2 C  px              2.4       3.1       4.2       8.1      10.9       3.0
 2 C  py              3.9      11.8       2.6       1.5       1.4       0.8
 2 C  dyz             0.0       0.2       0.1       0.0       0.0       0.0
 2 C  dx2y2           0.0       0.2       0.3       0.0       0.0       0.0
 3 O  s               0.7       0.6       0.1       0.0       2.0       0.0
 3 O  pz              3.2       0.1       0.5       7.6       3.7       2.1
 3 O  px              8.6      16.4       2.1       2.2       3.4       0.9
 3 O  py              2.4       7.5      10.8       2.1       5.1       0.0
 3 O  dz2             0.0       0.1       0.0       0.2       0.0       0.3
 3 O  dxz             0.0       0.3       0.0       0.0       0.1       0.0
 3 O  dyz             0.5       0.1       0.0       0.7       0.2       0.1
 3 O  dx2y2           0.1       0.1       0.3       0.1       0.0       0.0
 3 O  dxy             0.1       0.0       0.6       0.5       0.3       0.2
 4 O  s               0.3       1.4       0.9       0.1       0.2       2.2
 4 O  pz              5.0       2.5       0.7       0.2       2.8       5.6
 4 O  px              2.2       4.0       5.4       0.0       7.5       5.1
 4 O  py              7.2       0.1      11.5       0.0       5.0       0.1
 4 O  dz2             0.0       0.0       0.1       0.0       0.0       0.0
 4 O  dxz             0.2       0.0       0.1       0.2       0.0       0.2
 4 O  dyz             0.5       0.3       0.2       0.0       0.2       0.0
 4 O  dx2y2           0.1       0.0       0.0       0.1       0.1       0.1
 4 O  dxy             0.0       0.3       0.0       0.0       1.1       0.1
 5 O  s               0.1       0.3       0.1       1.3       1.6       0.9
 5 O  pz              0.5       0.1       0.9       3.8       1.1      12.1
 5 O  px              0.0       2.5       6.6       0.3       3.4       7.5
 5 O  py              0.7       9.3      12.5       6.6       5.7       0.4
 5 O  dz2             0.0       0.0       0.0       0.2       0.4       0.6
 5 O  dxz             0.2       0.1       0.0       0.5       0.1       0.1
 5 O  dyz             0.0       0.0       0.0       0.0       0.0       0.1
 5 O  dx2y2           0.0       0.1       0.1       0.0       0.2       0.1
 5 O  dxy             0.1       0.0       0.2       0.0       0.1       0.7
 6 H  s               0.3       0.1       0.5       0.1       0.2      12.3
 6 H  py              0.0       0.0       0.0       0.0       0.0       0.3
 7 H  s               1.8       1.4       1.6       8.5       0.5       2.4
 7 H  pz              0.1       0.1       0.0       0.3       0.0       0.1
 8 H  s               6.1       3.2       0.3       0.1       2.6       1.0
 8 H  pz              0.3       0.1       0.0       0.0       0.1       0.0
 8 H  px              0.0       0.0       0.0       0.0       0.1       0.0
 9 H  s               1.6       5.0       0.3       7.6       1.1       3.4
 9 H  pz              0.1       0.0       0.0       0.0       0.1       0.0
 9 H  px              0.0       0.1       0.0       0.1       0.0       0.0
 9 H  py              0.0       0.0       0.1       0.1       0.1       0.0
10 H  s               5.7       0.1       0.6       7.8       1.4       1.4
10 H  pz              0.3       0.0       0.0       0.2       0.0       0.0
10 H  px              0.0       0.0       0.0       0.0       0.1       0.0
11 H  s               3.2       5.8       2.7       0.0       0.1       0.0
11 H  pz              0.0       0.1       0.0       0.1       0.0       0.0
11 H  px              0.1       0.1       0.1       0.1       0.0       0.0
11 H  py              0.0       0.0       0.0       0.0       0.1       0.0
12 H  s               3.3       0.4       4.3       0.0       0.2       1.2
12 H  px              0.1       0.0       0.1       0.0       0.2       0.0
13 H  s               0.1       2.9       4.8       1.2       0.6       0.4
13 H  pz              0.0       0.0       0.0       0.0       0.0       0.2
13 H  py              0.0       0.1       0.2       0.0       0.0       0.0

                     18        19        20        21        22        23   
                  -0.37236  -0.32905  -0.32297  -0.28916  -0.25329  -0.24889
                   2.00000   2.00000   2.00000   2.00000   2.00000   2.00000
                  --------  --------  --------  --------  --------  --------
 0 C  s               0.5       0.2       0.8       0.0       0.1       0.0
 0 C  pz              7.4       0.2       4.2       1.2       0.2       0.1
 0 C  px              0.2       1.3       1.2       3.6       0.0       0.2
 0 C  py             10.1       0.8       0.5       7.9       0.3       1.0
 0 C  dz2             0.0       0.0       0.0       0.3       0.2       0.0
 0 C  dx2y2           0.3       0.1       0.2       0.1       0.0       0.0
 0 C  dxy             0.0       0.1       0.0       0.6       0.0       0.0
 1 C  s               0.0       1.0       0.6       0.0       0.2       0.0
 1 C  pz              7.7       5.0       3.1       0.7       5.4       0.5
 1 C  px              0.0       0.1       2.2       6.4       1.7       0.0
 1 C  py              5.9       0.4       3.4       0.1       0.1       0.1
 1 C  dz2             0.0       0.0       0.4       0.0       0.4       0.1
 1 C  dxz             0.0       0.0       0.0       0.1       0.1       0.0
 1 C  dyz             0.0       0.0       0.1       0.1       0.8       0.1
 1 C  dx2y2           0.5       0.0       0.1       0.0       0.1       0.1
 1 C  dxy             0.0       0.1       0.4       0.1       0.4       0.0
 2 C  s               0.1       0.7       0.1       0.1       1.1       0.0
 2 C  pz              3.2       3.3       0.1       0.7       1.2       5.3
 2 C  px              1.1       0.5       1.9       1.5       6.0       0.5
 2 C  py              3.1       4.5       0.2       0.1       0.6       0.6
 2 C  dz2             0.0       0.3       0.0       0.0       0.0       0.7
 2 C  dyz             0.0       0.0       0.0       0.1       0.0       0.7
 2 C  dx2y2           0.1       0.0       0.1       0.0       0.2       0.0
 2 C  dxy             0.0       0.6       0.0       0.1       0.1       0.4
 3 O  s               0.6       4.3       0.9       0.7       0.3       0.0
 3 O  pz              7.2       8.4       1.5       9.0       1.0      44.7
 3 O  px              0.0      18.1       2.6       0.2       3.6      14.8
 3 O  py              2.6      19.2       0.2       0.1       0.3       5.8
 3 O  dz2             0.1       0.1       0.0       0.0       0.2       0.2
 3 O  dxz             0.0       0.1       0.1       0.1       0.1       0.0
 3 O  dyz             0.1       0.1       0.1       0.1       0.0       0.5
 3 O  dx2y2           0.1       0.2       0.0       0.1       0.0       0.2
 3 O  dxy             0.1       0.2       0.6       0.2       0.6       0.1
 4 O  s               0.7       0.5       3.3       0.7       0.0       0.0
 4 O  pz             13.0       1.3       7.1       6.4      42.1       1.4
 4 O  px              0.5      11.7      21.6       0.2      18.8       1.3
 4 O  py              8.3       0.2       7.0       0.0       0.0       0.1
 4 O  dz2             0.4       0.1       0.1       0.0       0.1       0.1
 4 O  dyz             0.4       0.2       0.2       0.4       0.7       0.0
 4 O  dx2y2           0.0       0.2       0.2       0.4       0.0       0.0
 4 O  dxy             0.0       0.1       0.6       0.4       0.4       0.0
 5 O  s               0.3       0.5       1.1       4.1       0.0       0.2
 5 O  pz              0.1       1.1       2.8      10.3       1.1       1.6
 5 O  px             11.5       0.3       7.9       8.7       0.1       0.0
 5 O  py              0.2       1.2       7.8      17.0       0.0       0.7
 5 O  dz2             0.1       0.0       0.3       0.2       0.1       0.0
 5 O  dyz             0.2       0.0       0.0       0.1       0.0       0.0
 5 O  dx2y2           0.2       0.1       0.0       0.9       0.1       0.0
 5 O  dxy             0.3       0.0       0.2       0.9       0.0       0.1
 6 H  s               4.8       0.7       1.5       6.2       0.1       0.4
 6 H  pz              0.1       0.0       0.0       0.0       0.0       0.0
 7 H  s               2.3       0.1       1.7       3.0       1.1       0.2
 7 H  px              0.0       0.0       0.0       0.1       0.0       0.0
 7 H  py              0.2       0.0       0.0       0.0       0.0       0.0
 8 H  s               2.2       1.5       5.9       0.1       7.2       1.0
 8 H  py              0.2       0.0       0.0       0.0       0.0       0.0
 9 H  s               0.7       1.7       0.8       0.5       0.5       6.7
10 H  s               0.9       4.8       0.0       0.6       0.2       7.5
11 H  s               0.0       1.6       0.8       0.5       0.5       0.0
11 H  pz              0.1       0.0       0.0       0.1       0.0       0.8
11 H  px              0.0       0.0       0.0       0.0       0.0       0.3
11 H  py              0.0       0.6       0.0       0.0       0.0       0.1
12 H  s               0.0       0.5       1.3       0.8       0.0       0.0
12 H  pz              0.2       0.1       0.0       0.0       0.7       0.0
12 H  px              0.0       0.1       0.1       0.0       0.4       0.0
12 H  py              0.1       0.0       0.4       0.0       0.0       0.0
13 H  s               0.3       0.3       0.9       2.6       0.0       0.1
13 H  pz              0.0       0.0       0.0       0.2       0.0       0.0
13 H  px              0.2       0.0       0.2       0.2       0.0       0.0

                     24        25        26        27        28        29   
                  -0.23027   0.03340   0.06047   0.08768   0.12524   0.13347
                   2.00000   0.00000   0.00000   0.00000   0.00000   0.00000
                  --------  --------  --------  --------  --------  --------
 0 C  s               0.2       0.4       1.8       2.6       1.4       5.3
 0 C  pz              4.1       0.6       0.3       3.4       9.8       3.4
 0 C  px              1.7       2.3       1.4      18.6       0.5       1.0
 0 C  py              0.2       0.8       0.1       1.2       3.5       0.0
 0 C  dz2             1.1       0.0       0.1       0.2       0.5       0.1
 0 C  dxz             0.5       0.0       0.1       1.1       0.0       0.2
 0 C  dyz             0.0       0.0       0.0       0.2       0.0       0.1
 0 C  dx2y2           0.2       0.5       0.0       0.4       0.2       0.2
 0 C  dxy             0.1       0.2       0.0       0.4       0.0       0.0
 1 C  s               0.7       0.6       3.0       0.6       0.4       5.9
 1 C  pz              0.9       0.7       3.1       0.1       7.5       5.5
 1 C  px              5.6       0.9       2.0       4.4       0.2       0.3
 1 C  py              1.2      10.2       2.7       0.5       2.2       2.9
 1 C  dz2             0.0       0.3       0.1       0.4       0.5       0.0
 1 C  dxz             0.0       0.1       0.1       0.2       0.0       0.0
 1 C  dx2y2           0.0       1.2       0.0       0.1       0.3       0.4
 1 C  dxy             0.1       0.1       0.1       0.0       0.0       0.0
 2 C  s               0.1       0.8       8.7       1.9       9.0       0.2
 2 C  pz              0.1       0.7       0.3       0.5      14.7       5.6
 2 C  px              1.8       6.3       5.2       1.1       1.4       9.9
 2 C  py              0.0      15.2       3.1       1.1      10.2       4.6
 2 C  dz2             0.0       0.2       0.1       0.0       0.0       0.1
 2 C  dxz             0.0       0.1       0.1       0.2       0.0       0.9
 2 C  dyz             0.0       0.1       0.0       0.0       0.2       0.3
 2 C  dx2y2           0.0       1.2       0.1       0.0       0.2       0.2
 2 C  dxy             0.1       0.5       0.1       0.0       0.0       0.2
 3 O  s               0.0       6.2       2.8       0.7       1.5       0.4
 3 O  pz              0.0       1.2       0.6       0.2       0.3       0.5
 3 O  px              0.5       1.8       1.7       1.7       0.4       3.7
 3 O  py              0.2       1.4       1.1       0.1       1.2       1.5
 3 O  dz2             0.0       0.1       0.2       0.3       0.1       0.6
 3 O  dxz             0.0       0.9       0.1       2.2       0.1       3.6
 3 O  dyz             0.0       0.0       0.5       0.0       1.2       0.1
 3 O  dx2y2           0.0       0.5       2.1       0.0       1.3       0.9
 3 O  dxy             0.1       0.2       0.1       0.3       0.1       0.2
 4 O  s               0.0       6.0       2.9       0.2       0.2       1.2
 4 O  pz              0.0       0.7       1.1       0.3       2.0       0.2
 4 O  px              1.0       1.8       1.7       3.0       0.1       2.0
 4 O  py              0.0       1.1       2.7       0.0       0.2       1.2
 4 O  dz2             0.1       0.1       0.2       0.4       0.1       1.1
 4 O  dxz             0.0       0.1       1.8       0.2       0.3       0.1
 4 O  dyz             0.0       0.3       1.1       0.0       0.3       0.6
 4 O  dx2y2           0.1       0.4       0.6       0.5       1.4       1.6
 4 O  dxy             0.2       0.2       1.7       0.0       0.1       0.0
 5 O  s               0.0       1.4       0.0       9.3       0.0       0.1
 5 O  pz             50.6       0.1       0.1       0.8       0.1       1.2
 5 O  px             17.1       0.7       0.1       2.3       0.3       1.2
 5 O  py              0.4       0.6       0.5       2.8       0.2       1.5
 5 O  dz2             0.5       0.2       0.0       0.2       0.1       0.0
 5 O  dxz             0.2       0.0       0.0       0.1       0.7       2.2
 5 O  dyz             0.1       0.0       0.1       0.1       0.3       0.6
 5 O  dx2y2           0.3       0.3       0.6       1.7       0.0       1.0
 5 O  dxy             0.0       0.0       0.1       0.6       0.3       0.1
 6 H  s               0.0       0.7       0.9       0.3       0.8       0.3
 6 H  pz              0.1       0.0       0.0       0.4       0.1       0.1
 6 H  px              0.0       0.2       0.0       0.4       0.0       0.2
 6 H  py              0.0       0.0       0.1       0.1       0.2       0.0
 7 H  s               6.4       0.1       0.3       1.2       4.6       3.4
 7 H  pz              0.0       0.0       0.0       0.1       1.8       1.1
 7 H  px              0.0       0.0       0.0       0.9       0.0       0.0
 7 H  py              0.0       0.0       0.0       0.3       0.1       0.1
 8 H  s               0.3       0.2       0.9       0.6       1.6       2.5
 8 H  pz              0.0       0.1       0.4       0.2       1.0       1.4
 8 H  px              0.1       0.1       0.1       0.2       0.0       0.0
 8 H  py              0.0       0.3       0.0       0.1       0.0       0.3
 9 H  s               0.9       0.2       3.0       1.0       1.6       2.7
 9 H  pz              0.0       0.0       0.6       0.1       0.0       0.9
 9 H  px              0.0       0.4       0.6       0.1       0.3       0.0
 9 H  py              0.0       0.4       0.2       0.2       0.9       0.0
10 H  s               0.1       0.2       1.7       0.1       5.2       0.4
10 H  pz              0.0       0.1       0.6       0.1       2.8       0.0
10 H  px              0.0       0.1       0.0       0.1       0.0       0.7
10 H  py              0.0       0.4       0.1       0.0       0.5       0.5
11 H  s               0.1       9.4      10.6       4.6       1.3       3.6
11 H  pz              0.0       0.3       0.4       0.2       0.0       0.3
11 H  px              0.0       1.8       1.9       0.7       0.2       0.6
11 H  py              0.0       0.5       0.2       0.2       0.2       0.0
12 H  s               0.2       9.0      15.5       0.5       0.6       1.3
12 H  pz              0.0       0.4       0.9       0.1       0.0       0.0
12 H  px              0.0       0.9       1.8       0.1       0.0       0.1
12 H  py              0.0       1.1       0.9       0.0       0.2       0.4
13 H  s               0.0       2.3       0.7      15.2       0.3       3.2
13 H  pz              0.9       0.0       0.0       0.0       0.0       0.0
13 H  px              0.3       0.0       0.0       0.3       0.0       0.0
13 H  py              0.0       0.6       0.1       4.2       0.1       0.8

                     30        31        32        33        34        35   
                   0.14121   0.15093   0.15755   0.16851   0.18168   0.18726
                   0.00000   0.00000   0.00000   0.00000   0.00000   0.00000
                  --------  --------  --------  --------  --------  --------
 0 C  s               3.5      10.6       0.1       0.2       1.5       2.6
 0 C  pz              6.2       2.2       9.2       6.2       2.4       0.6
 0 C  px              0.2       4.1       1.0       2.7       1.7       0.8
 0 C  py              9.2      15.8       2.5       0.9      14.0       0.5
 0 C  dz2             0.0       0.0       0.0       0.3       0.5       0.1
 0 C  dxz             0.0       0.3       0.1       0.7       0.0       0.1
 0 C  dyz             0.0       0.4       0.6       0.7       0.0       0.0
 0 C  dx2y2           0.8       0.0       0.3       0.3       0.7       0.5
 0 C  dxy             0.0       0.1       0.2       0.2       0.0       0.0
 1 C  s               0.4       0.4       7.9       1.3       1.2       4.0
 1 C  pz              3.3       0.8       7.8       0.8       0.8       7.4
 1 C  px              0.7       8.4       0.3       4.0       3.8       5.1
 1 C  py              3.9       1.8       2.4       8.5       0.7       1.9
 1 C  dz2             0.2       0.1       0.2       1.1       0.1       0.3
 1 C  dxz             0.1       1.8       0.0       0.1       0.7       0.1
 1 C  dyz             0.0       0.1       0.1       0.4       0.0       0.3
 1 C  dx2y2           1.5       0.0       0.1       0.4       0.1       0.6
 1 C  dxy             0.0       0.5       0.2       0.1       0.0       0.0
 2 C  s               0.6       0.5       0.4       1.4       6.6       0.2
 2 C  pz             11.0       1.9       3.3       3.4       1.9      13.4
 2 C  px             11.0       3.8       0.7       0.1       8.7      11.9
 2 C  py              6.7       2.8       8.1       1.2       1.5       1.1
 2 C  dz2             1.1       1.2       0.1       0.3       0.0       0.6
 2 C  dxz             0.0       0.2       0.0       0.2       0.1       1.5
 2 C  dyz             0.0       0.1       0.5       0.0       0.1       0.0
 2 C  dx2y2           0.1       0.0       1.1       0.0       0.1       1.3
 2 C  dxy             0.2       0.2       0.2       0.0       0.1       0.6
 3 O  s               0.4       0.1       0.2       0.2       0.3       0.3
 3 O  pz              0.7       0.1       0.5       1.2       0.9       0.2
 3 O  px              0.1       0.1       0.7       0.8       1.3       1.0
 3 O  py              0.5       0.9       5.1       0.8       0.2       1.2
 3 O  dz2             0.2       0.9       0.1       0.0       1.2       0.0
 3 O  dxz             0.1       0.0       3.5       2.3       0.6       3.6
 3 O  dyz             0.8       0.1       1.3       0.1       0.0       1.1
 3 O  dx2y2           1.6       1.2       1.8       0.1       0.2       0.1
 3 O  dxy             0.4       0.1       0.0       0.4       4.5       3.1
 4 O  s               0.8       0.1       0.2       0.7       0.3       0.4
 4 O  pz              0.2       0.2       2.3       0.5       0.8       0.1
 4 O  px              0.0       0.3       0.1       2.9       0.4       0.4
 4 O  py              1.1       0.1       0.6       6.4       3.0       1.0
 4 O  dz2             0.0       0.0       1.4       0.2       0.8       0.1
 4 O  dxz             0.6       3.0       1.2       5.8       0.8       0.3
 4 O  dyz             0.1       0.0       0.9       1.9       0.0       2.2
 4 O  dx2y2           0.9       0.4       0.5       0.8       0.1       0.8
 4 O  dxy             0.2       1.0       0.6       3.0       0.3       0.1
 5 O  s               0.1       0.1       0.0       0.1       0.6       0.7
 5 O  pz              0.0       0.2       0.8       1.6       0.7       0.3
 5 O  px              0.3       0.1       0.6       1.2       0.5       2.5
 5 O  py              0.6       2.7       0.4       3.0       0.3       0.1
 5 O  dz2             0.2       1.6       0.2       0.4       0.2       0.2
 5 O  dxz             0.1       2.3       0.1       0.3       1.1       0.6
 5 O  dyz             0.3       0.7       1.3       3.6       0.8       0.0
 5 O  dx2y2           0.2       0.0       0.3       1.6       0.7       1.6
 5 O  dxy             1.3       1.2       0.0       0.3       0.2       0.0
 6 H  s               5.7       1.6       1.4       0.3       6.4       0.1
 6 H  pz              0.0       0.1       0.6       1.2       0.1       0.0
 6 H  px              0.0       0.1       0.1       0.0       0.0       0.0
 6 H  py              2.0       1.6       0.3       0.0       2.4       0.1
 7 H  s               1.1       1.5       0.2       3.7       1.5       0.4
 7 H  pz              0.6       1.1       0.1       0.2       0.9       0.3
 7 H  px              0.0       0.3       0.1       0.5       0.0       0.0
 7 H  py              0.1       0.1       0.5       0.7       0.2       0.0
 8 H  s               2.1       0.8       7.1       0.9       0.0       1.6
 8 H  pz              0.5       0.0       3.4       0.2       0.0       0.1
 8 H  px              0.0       1.3       0.0       0.3       0.7       0.0
 8 H  py              0.4       0.2       0.3       1.0       0.0       0.3
 9 H  s               4.3       2.8       1.4       0.8       2.4       3.3
 9 H  pz              0.0       0.1       0.2       0.0       0.4       2.0
 9 H  px              1.8       0.4       0.7       0.1       1.4       0.0
 9 H  py              0.9       0.5       0.0       0.0       0.2       1.0
10 H  s               3.3       4.4       0.6       0.6       1.6       2.0
10 H  pz              1.1       1.2       0.1       0.1       0.5       0.0
10 H  px              0.0       0.2       0.0       0.1       0.1       1.4
10 H  py              0.0       0.1       0.8       0.0       0.0       0.0
11 H  s               0.3       0.4       2.4       0.7       6.8       4.5
11 H  pz              0.0       0.0       0.3       0.0       0.2       0.0
11 H  px              0.0       0.1       0.3       0.1       1.1       0.8
11 H  py              0.1       0.0       0.0       0.0       0.5       0.4
12 H  s               0.3       0.3       4.3       4.9       3.2       3.2
12 H  pz              0.0       0.0       0.1       0.6       0.2       0.4
12 H  px              0.0       0.0       0.6       0.9       0.5       0.1
12 H  py              0.1       0.1       0.4       0.1       0.2       0.4
13 H  s               2.0       4.2       1.4       5.4       0.2       0.1
13 H  px              0.1       0.1       0.0       0.0       0.0       0.1
13 H  py              0.5       0.9       0.3       1.1       0.1       0.0

                     36        37        38        39        40        41   
                   0.20337   0.22353   0.25727   0.27312   0.28658   0.31104
                   0.00000   0.00000   0.00000   0.00000   0.00000   0.00000
                  --------  --------  --------  --------  --------  --------
 0 C  s               3.4       1.2       0.2       3.4       0.1       0.9
 0 C  pz              2.1      22.0       8.2       1.2       6.9       1.4
 0 C  px              5.5       7.9       5.5       1.1       4.0       5.5
 0 C  py              6.9       2.9       7.7       4.0       5.4       2.1
 0 C  dz2             0.0       0.1       0.1       0.2       1.7       0.5
 0 C  dxz             0.7       0.2       0.1       0.0       0.0       0.0
 0 C  dyz             0.7       0.0       0.5       0.0       0.1       0.0
 0 C  dx2y2           0.0       0.1       0.3       0.0       0.5       0.0
 0 C  dxy             0.5       0.3       0.0       0.9       0.0       0.2
 1 C  s               0.1       1.3       0.3       0.6       1.7       0.4
 1 C  pz              8.9      10.7       0.1      13.6       0.1       3.2
 1 C  px              1.9       1.4       9.7       2.4       0.3       0.5
 1 C  py              3.7       2.0       2.6       2.4       6.0       0.1
 1 C  dz2             0.5       0.0       0.0       1.4       0.0       1.6
 1 C  dxz             0.0       0.0       0.8       0.0       0.2       0.0
 1 C  dyz             0.2       0.0       0.0       0.6       0.2       0.0
 1 C  dx2y2           0.0       0.4       0.1       0.0       0.0       0.2
 1 C  dxy             0.6       0.6       0.2       0.4       0.5       0.0
 2 C  s               0.9       0.3       0.7       0.5       2.0       5.4
 2 C  pz             12.2       3.1       4.8       8.5       1.0       6.6
 2 C  px              0.4       3.7       3.8       1.8       0.5       7.4
 2 C  py              0.3       0.8       5.5       0.1      11.3       2.0
 2 C  dz2             0.8       0.0       0.0       0.5       0.1       0.3
 2 C  dxz             0.0       0.0       0.1       0.3       0.1       0.9
 2 C  dyz             0.0       0.0       0.2       0.2       0.1       0.1
[...]
 3 O  dx2y2           0.1       3.5       2.9       0.2       4.6      13.3
 3 O  dxy             0.0       1.6       3.4       0.2       1.6       3.4
 4 O  s               0.2       8.1       9.3      10.4       3.3       0.7
 4 O  pz              0.1       0.1       0.6       0.5       1.9       0.4
 4 O  px              0.0       0.3       0.9       1.0       3.7       1.3
 4 O  py              0.2       3.8       5.8       6.1       7.2       2.9
 4 O  dz2             0.2       1.0       2.8       3.3       0.0       0.0
 4 O  dxz             0.3       0.3       1.7       1.4       6.9       1.9
 4 O  dyz             0.0       0.0       0.1       0.0       5.3       2.1
 4 O  dx2y2           0.4       2.9       4.4       5.0       2.2       1.1
 4 O  dxy             0.0       0.1       0.0       0.0      10.1       3.0
 5 O  s               0.1       8.8       2.8      13.7       0.4       0.4
 5 O  pz              0.0       1.5       0.6       2.3       0.1       0.0
 5 O  px              0.0       5.3       1.6       8.7       0.5       0.1
 5 O  py              0.0       0.0       0.0       0.2       1.8       1.2
 5 O  dz2             0.0       1.5       0.5       3.2       0.7       0.6
 5 O  dxz             0.2       5.4       1.6       7.2       0.1       0.1
 5 O  dyz             0.1       0.0       0.0       0.3       0.0       0.0
 5 O  dx2y2           0.0       0.9       0.2       0.7       4.1       2.4
 5 O  dxy             0.4       0.7       0.2       1.7       0.0       0.0
 6 H  s               1.0       0.1       0.0       0.2       0.0       0.0
 6 H  pz              0.0       0.0       0.0       0.2       0.0       0.0
 6 H  px              0.1       0.1       0.1       0.1       0.0       0.0
 6 H  py              2.1       0.2       0.0       0.3       0.0       0.0
 7 H  s               3.6       0.1       0.0       0.3       0.0       0.0
 7 H  pz              8.8       0.1       0.0       0.2       0.0       0.0
 7 H  px              0.0       0.1       0.1       0.2       0.0       0.0
 7 H  py              0.3       0.1       0.0       0.1       0.0       0.0
 8 H  s               6.0       0.2       0.2       0.5       0.0       0.0
 8 H  pz             14.4       0.4       0.5       0.6       0.0       0.0
 8 H  px              0.2       0.0       0.0       0.0       0.0       0.0
 8 H  py              1.5       0.3       0.1       0.0       0.0       0.0
 9 H  s               0.0       0.2       0.3       0.1       0.0       0.0
 9 H  pz              0.1       0.2       0.2       0.1       0.0       0.0
 9 H  px              0.2       0.3       0.4       0.1       0.0       0.0
10 H  s               1.4       0.3       0.2       0.0       0.0       0.0
10 H  pz              3.7       0.5       0.4       0.0       0.0       0.0
10 H  py              0.0       0.2       0.1       0.1       0.0       0.0
11 H  s               0.0       0.2       0.6       0.0       3.9       9.9
11 H  pz              0.0       0.0       0.1       0.0       0.8       1.9
11 H  px              0.0       0.3       0.6       0.0       3.2       8.3
11 H  py              0.0       0.2       0.2       0.1       0.4       1.0
12 H  s               0.0       0.0       0.4       0.4       8.6       2.6
12 H  pz              0.1       0.0       0.1       0.2       2.4       0.8
12 H  px              0.1       0.1       0.2       0.2       4.4       1.5
12 H  py              0.1       0.0       0.6       0.2       3.0       0.8
13 H  s               0.0       0.2       0.1       0.6       1.5       1.0
13 H  px              0.2       0.0       0.0       0.1       0.1       0.0
13 H  py              0.0       0.2       0.1       0.8       1.8       1.1

                    162       163       164       165       166       167   
                   4.60954  22.01276  22.05282  22.10463  43.59200  43.62110
                   0.00000   0.00000   0.00000   0.00000   0.00000   0.00000
                  --------  --------  --------  --------  --------  --------
 0 C  s               0.1       0.9      98.5       0.1       0.0       0.0
 0 C  px              0.9       0.0       0.0       0.0       0.0       0.0
 0 C  py              0.2       0.0       0.0       0.0       0.0       0.0
 0 C  dxz             0.6       0.0       0.0       0.0       0.0       0.0
 0 C  dx2y2           1.0       0.0       0.0       0.0       0.0       0.0
 1 C  s               0.1       1.2       0.1      98.4       0.0       0.0
 1 C  py              0.2       0.0       0.0       0.0       0.0       0.0
 1 C  dx2y2           0.2       0.0       0.0       0.0       0.0       0.0
 2 C  s               0.0      97.5       0.9       1.1       0.0       0.1
 3 O  s               0.0       0.1       0.0       0.0      36.7      62.4
 4 O  s               1.8       0.0       0.0       0.1      10.9      12.2
 4 O  pz              0.6       0.0       0.0       0.0       0.0       0.0
 4 O  px              1.1       0.0       0.0       0.0       0.0       0.0
 4 O  py              1.9       0.0       0.0       0.0       0.0       0.0
 4 O  dxz             1.9       0.0       0.0       0.0       0.0       0.0
 4 O  dyz             1.7       0.0       0.0       0.0       0.0       0.0
 4 O  dx2y2           0.6       0.0       0.0       0.0       0.0       0.0
 4 O  dxy             3.0       0.0       0.0       0.0       0.0       0.0
 5 O  s               5.4       0.0       0.1       0.0      52.4      25.2
 5 O  pz              0.3       0.0       0.0       0.0       0.0       0.0
 5 O  px              1.9       0.0       0.0       0.0       0.0       0.0
 5 O  py             13.9       0.0       0.0       0.0       0.0       0.0
 5 O  dz2             5.9       0.0       0.0       0.0       0.0       0.0
 5 O  dxz             0.6       0.0       0.0       0.0       0.0       0.0
 5 O  dx2y2          25.1       0.0       0.0       0.0       0.0       0.0
 5 O  dxy             0.5       0.0       0.0       0.0       0.0       0.0
 6 H  s               0.2       0.0       0.0       0.0       0.0       0.0
 6 H  py              0.2       0.0       0.0       0.0       0.0       0.0
12 H  s               2.6       0.0       0.0       0.0       0.0       0.0
12 H  pz              0.6       0.0       0.0       0.0       0.0       0.0
12 H  px              1.4       0.0       0.0       0.0       0.0       0.0
12 H  py              0.9       0.0       0.0       0.0       0.0       0.0
13 H  s              10.7       0.0       0.0       0.0       0.0       0.0
13 H  px              0.2       0.0       0.0       0.0       0.0       0.0
13 H  py             12.7       0.0       0.0       0.0       0.0       0.0

                    168   
                  43.68179
                   0.00000
                  --------
 3 O  s               0.8
 4 O  s              76.8
 5 O  s              22.3


                      *****************************
                      * MAYER POPULATION ANALYSIS *
                      *****************************

  NA   - Mulliken gross atomic population
  ZA   - Total nuclear charge
  QA   - Mulliken gross atomic charge
  VA   - Mayer's total valence
  BVA  - Mayer's bonded valence
  FA   - Mayer's free valence

  ATOM       NA         ZA         QA         VA         BVA        FA
  0 C      6.2185     6.0000    -0.2185     3.9164     3.9164     0.0000
  1 C      5.9345     6.0000     0.0655     3.6473     3.6473     0.0000
  2 C      6.1363     6.0000    -0.1363     3.8156     3.8156    -0.0000
  3 O      8.4371     8.0000    -0.4371     1.8237     1.8237    -0.0000
  4 O      8.4397     8.0000    -0.4397     1.8193     1.8193    -0.0000
  5 O      8.4212     8.0000    -0.4212     1.8363     1.8363     0.0000
  6 H      0.8393     1.0000     0.1607     0.9510     0.9510    -0.0000
  7 H      0.8658     1.0000     0.1342     0.9541     0.9541     0.0000
  8 H      0.8610     1.0000     0.1390     0.9602     0.9602    -0.0000
  9 H      0.8864     1.0000     0.1136     0.9554     0.9554     0.0000
 10 H      0.8661     1.0000     0.1339     0.9567     0.9567    -0.0000
 11 H      0.7006     1.0000     0.2994     0.9111     0.9111     0.0000
 12 H      0.7052     1.0000     0.2948     0.9133     0.9133     0.0000
 13 H      0.6881     1.0000     0.3119     0.9068     0.9068     0.0000

  Mayer bond orders larger than 0.100000
B(  0-C ,  1-C ) :   0.9547 B(  0-C ,  5-O ) :   0.9794 B(  0-C ,  6-H ) :   0.9600 
B(  0-C ,  7-H ) :   0.9757 B(  1-C ,  2-C ) :   0.9446 B(  1-C ,  4-O ) :   0.8855 
B(  1-C ,  8-H ) :   0.9474 B(  2-C ,  3-O ) :   0.9356 B(  2-C ,  9-H ) :   0.9568 
B(  2-C , 10-H ) :   0.9625 B(  3-O , 11-H ) :   0.8968 B(  4-O , 12-H ) :   0.8965 
B(  5-O , 13-H ) :   0.8790 

-------
TIMINGS
-------

Total SCF time: 0 days 0 hours 0 min 18 sec 

Total time                  ....      18.144 sec
Sum of individual times     ....      17.647 sec  ( 97.3%)

SCF preparation             ....       0.195 sec  (  1.1%)
Fock matrix formation       ....      16.544 sec  ( 91.2%)
  Startup                   ....       0.056 sec  (  0.3% of F)
  Split-RI-J                ....       2.600 sec  ( 15.7% of F)
  XC integration            ....      13.275 sec  ( 80.2% of F)
    Basis function eval.    ....       2.358 sec  ( 17.8% of XC)
    Density eval.           ....       3.761 sec  ( 28.3% of XC)
    XC-Functional eval.     ....       1.895 sec  ( 14.3% of XC)
    XC-Potential eval.      ....       4.409 sec  ( 33.2% of XC)
Diagonalization             ....       0.000 sec  (  0.0%)
Density matrix formation    ....       0.218 sec  (  1.2%)
Total Energy calculation    ....       0.045 sec  (  0.2%)
Population analysis         ....       0.091 sec  (  0.5%)
Orbital Transformation      ....       0.057 sec  (  0.3%)
Orbital Orthonormalization  ....       0.000 sec  (  0.0%)
DIIS solution               ....       0.446 sec  (  2.5%)
  MO trafo                  ....       0.000 sec  (  0.0 % of DIIS)
  Orb grad                  ....       0.000 sec  (  0.0 % of DIIS)
  Energy W gradient         ....       0.000 sec  (  0.0 % of DIIS)
  DIIS error                ....       0.007 sec  (  1.6 % of DIIS)
  DIIS work                 ....       0.382 sec  ( 85.8 % of DIIS)
  Form Q                    ....       0.000 sec  (  0.0 % of DIIS)
  Form QpQm                 ....       0.000 sec  (  0.0 % of DIIS)
  Exp/Cayley                ....       0.000 sec  (  0.0 % of DIIS)
  Orb update                ....       0.000 sec  (  0.0 % of DIIS)
  Wake-sleep                ....       0.025 sec  (  5.7 % of DIIS)
SOSCF solution              ....       0.051 sec  (  0.3%)
  MO trafo                  ....       0.042 sec  ( 81.6 % of SOSCF)
  Orb grad                  ....       0.001 sec  (  1.8 % of SOSCF)
  Rot update                ....       0.000 sec  (  0.1 % of SOSCF)
  Step                      ....       0.008 sec  ( 16.3 % of SOSCF)
Finished LeanSCF after  18.2 sec

Maximum memory used throughout the entire LEANSCF-calculation: 17.3 MB


-------------------------------------------------------------------------------
                          DFT DISPERSION CORRECTION                            
                                                                               
                                DFTD4 V3.4.0                                   
-------------------------------------------------------------------------------
The R2SCAN3C composite method is recognized
Using three-body term ABC
Active option DFTDOPT                   ...         5   

-------------------------   ----------------
Dispersion correction           -0.002978951
-------------------------   ----------------

------------------   -----------------
gCP correction             0.010344783
------------------   -----------------

-------------------------   --------------------
FINAL SINGLE POINT ENERGY      -344.723240041981
-------------------------   --------------------


------------------------------------------------------------------------------
                              ORCA PROPERTY CALCULATIONS
------------------------------------------------------------------------------

GBWName                                 ... sp_gas.gbw
Number of atoms                         ...     14
Number of basis functions               ...    169
Max core memory                         ...   1024 MB

Electric properties:
Dipole moment                           ... YES
Quadrupole moment                       ...  NO
Static polarizability (Dipole/Dipole)   ...  NO
Static polarizability (Dipole/Quad.)    ...  NO
Static polarizability (Quad./Quad.)     ...  NO
Static polarizability (Velocity)        ...  NO

Atomic electric properties:
Dipole moment                           ...  NO
Quadrupole moment                       ...  NO
Static polarizability                   ...  NO

Choice of electric origin               ... Center of mass
Position of electric origin             ...     0.000012    -0.000002    -0.000007

General magnetic properties:
Magnetizability                         ...  NO

EPR properties:
g-Tensor (aka g-matrix)                 ...  NO
Zero-Field splitting spin-orbit         ...  NO
Zero-field splitting spin-spin          ...  NO
Hyperfine couplings                     ...  NO (   0 nuclei)
Quadrupole couplings                    ...  NO (   0 nuclei)
Contact density                         ...  NO (   0 nuclei)

NMR properties:
Chemical shifts                         ...  NO (   0 nuclei)
Spin-rotation constants                 ...  NO (   0 nuclei)
Spin-spin couplings                     ...  NO (   0 nuclei,    0 pairs)

Choice of magnetic origin               ... GIAO
Position of magnetic origin             ...     0.000000     0.000000     0.000000

Properties with geometric perturbations:
SCF Hessian                             ...  NO
IR spectrum                             ...  NO
VCD spectrum                            ...  NO
X-ray spectroscopy properties:
SCF XES/XAS/RIXS spectra                ...  NO


-------------
DIPOLE MOMENT
-------------

Method             : SCF
Type of density    : Electron Density
Multiplicity       :   1
Irrep              :   0
Energy             :  -344.7306058742103119 Eh
Relativity type    : 
Basis              : AO
                                X                 Y                 Z
Electronic contribution:     -1.247474885       0.196024766       0.927576809
Nuclear contribution   :      2.509689752       0.314216644      -1.136557838
                        -----------------------------------------
Total Dipole Moment    :      1.262214868       0.510241410      -0.208981029
                        -----------------------------------------
Magnitude (a.u.)       :      1.377390917
Magnitude (Debye)      :      3.501049479



--------------------
Rotational spectrum 
--------------------
 
Rotational constants in cm-1:             0.176827             0.080013             0.059178 
Rotational constants in MHz :          5301.139821          2398.736532          1774.112808 

Dipole components along the rotational axes: 
x,y,z [a.u.] :    -1.042674     0.885911    -0.158739 
x,y,z [Debye]:    -2.650267     2.251807    -0.403483 

 

Dipole moment calculation done in   0.0 sec 

Maximum memory used throughout the entire PROP-calculation: 9.8 MB

--------------------------------
SUGGESTED CITATIONS FOR THIS RUN
--------------------------------

Below you find a list of papers that are relevant to this ORCA run
We neither can nor want to force you to cite these papers, but we appreciate if you do
You receive ORCA, which is the product of decades of hard work by many enthusiastic individuals, for free
The only thing we kindly ask in return is that you cite our papers,
We deeply appreciate it, if you show your appreciation for ORCA by not just citing the generic ORCA reference.

Please note that relegating all ORCA citations to the supporting information does *not* help us.
SI sections are not indexed - citations you put there will not count into any citation statistics
But we need these citations in order to attract the funding resources that allow us to do what we are doing

Therefore, if you are a happy ORCA user, please consider citing a few of the papers listed below in the main body of your paper

In addition to the list printed below, the program has created the file sp_gas.bibtex that contains the list in bibtex format
You can import this file easily into all common literature databanks and citation aid programs


List of essential papers. We consider these as the minimum necessary citations

  1. Neese,F.
     Software update: the ORCA program system, version 5.0
     WIRES Comput. Molec. Sci., 2022 12(1)e1606
     doi.org/10.1002/wcms.1606
  2. Grimme,S.; Hansen,A.; Ehlert,S.; Mewes,J.
     r2SCAN-3c: A 'Swiss army knife' composite electronic-structure method
     J. Chem. Phys., 2021 154 064103
     doi.org/10.1063/5.0040021

List of papers to cite with high priority. The work reported in these papers was absolutely
necessary for this run to complete.
Our perspective: the developers of density functionals and basis sets usually get cited in chemistry papers
Good! But without the algorithms to do something with them, the functionals or basis sets would not do anything.
Hence, in our opinion, the algorithm design and method developments papers are equally worthy of getting cited

  1. Neese,F.
     An improvement of the resolution of the identity approximation for the formation of the Coulomb matrix
     J. Comp. Chem., 2003 24(14)1740-1747
     doi.org/10.1002/jcc.10318
  2. Neese,F.
     The SHARK Integral Generation and Digestion System
     J. Comp. Chem., 2022  1-16
     doi.org/10.1002/jcc.26942
  3. Lehtola,S.; Steigemann,C.; Oliveira,M.; Marques,M.
     Recent developments in Libxc - A comprehensive library of functionals for density functional theory
     Software X, 2018 7 
     doi.org/10.1016/j.softx.2017.11.002
  4. Caldeweyher,E.; Bannwarth,C.; Grimme,S.
     Extension of the D3 dispersion coefficient model
     J. Chem. Phys., 2017 147 034112-XXXX
     doi.org/10.1063/1.4993215
  5. Caldeweyher,E.; Ehlert,S.; Hansen,A.; Neugebauer,H.; Spicher,S.; Bannwarth,C.; Grimme,S.
     A generally applicable atomic-charge dependent London dispersion correction
     J. Chem. Phys., 2019 150 154122-XXXX
     doi.org/10.1063/1.5090222
  6. Caldeweyher,E.; Mewes,J.; Ehlert,S.; Grimme,S.
     Extension and evaluation of the D4 London-dispersion model for periodic systems
     Phys. Chem. Chem. Phys., 2020 22(16)8499-8512
     doi.org/10.1039/D0CP00502A

List of suggested additional citations. These are papers that are important in the 'surrounding' of 
of this run, or papers that preceded the highly important papers. If you like your results we are grateful for a citation.

  1. Neese,F.
     The ORCA program system
     WIRES Comput. Molec. Sci., 2012 2(1)73-78
     doi.org/10.1002/wcms.81
  2. Neese,F.
     Software update: the ORCA program system, version 4.0
     WIRES Comput. Molec. Sci., 2018 8(1)1-6
     doi.org/10.1002/wcms.1327
  3. Neese,F.; Wennmohs,F.; Becker,U.; Riplinger,C.
     The ORCA quantum chemistry program package
     J. Chem. Phys., 2020 152 Art. No. L224108
     doi.org/10.1063/5.0004608

List of optional additional citations

  1. Neese,F.
     Approximate second-order SCF convergence for spin unrestricted wavefunctions
     Chem. Phys. Lett., 2000 325(1-3)93-98
     doi.org/10.1016/s0009-2614(00)00662-x

Timings for individual modules:

Sum of individual times          ...       19.645 sec (=   0.327 min)
Startup calculation              ...        0.967 sec (=   0.016 min)   4.9 %
SCF iterations                   ...       18.569 sec (=   0.309 min)  94.5 %
Property calculations            ...        0.108 sec (=   0.002 min)   0.6 %
                             ****ORCA TERMINATED NORMALLY****
TOTAL RUN TIME: 0 days 0 hours 0 minutes 20 seconds 415 msec
