23
 energy: -23.155253280770 gnorm: 0.023446666596 xtb: 6.7.1 (edcfbbe)
C            2.21091011934849        0.99724635556178        0.84699547830453
C            1.44455178818753       -0.30785075816927        0.63089313015853
C            0.34058316686450       -0.21574062707144       -0.45235349113347
H            0.49101495949772        0.72173769735766       -1.01140425464031
C            0.47534535033401       -1.37755772626144       -1.44216419333156
C           -1.07188228641856       -0.14763136909458        0.16868394654116
C           -1.21733714058175        1.04293574725498        1.12149767513305
C           -2.17442644763690       -0.07419244098816       -0.89179272386891
H            2.95427511223892        0.89569350584993        1.64540318402442
H            2.74080279341967        1.28760013130398       -0.06770912911928
H            1.54045189938699        1.82040206168819        1.11420181281323
H            1.00325979681026       -0.64070675899570        1.57949289916296
H            2.16343310747826       -1.08609494931497        0.34684254238368
H           -0.20800741150869       -1.28427092345340       -2.29048098140232
H            1.49413590108871       -1.41964347271026       -1.84259826830995
H            0.27301228857488       -2.33458882756358       -0.94465932560334
H           -1.21253068486172       -1.07189967204676        0.75081432548543
H           -1.07362428608894        1.98672039122792        0.57984526877592
H           -0.49530666653505        1.01004821347811        1.94266564701339
H           -2.22054450535559        1.06105489524419        1.56200344690521
H           -2.21112723994511       -0.96583889737882       -1.52218306945253
H           -2.02263026251521        0.79621173802507       -1.54171061791027
H           -3.15520071757153        0.03238419810123       -0.41611676442376
23
 energy: -23.156110188807 gnorm: 0.007237104376 xtb: 6.7.1 (edcfbbe)
C            2.20477638609711        0.99290561287783        0.83762079391769
C            1.44141262727641       -0.30960354008240        0.62697248095674
C            0.34153911528820       -0.20339115009742       -0.45307095671465
H            0.49534540127240        0.72743694800574       -1.01485175669362
C            0.47874975323298       -1.37093378700277       -1.43127713082368
C           -1.06886696841623       -0.15343833003980        0.17284839825539
C           -1.22042321034714        1.04095194266320        1.11458003465475
C           -2.16715196051110       -0.07062913386384       -0.88702530730087
H            2.94220247388196        0.87793838590961        1.63182770856456
H            2.73080884490818        1.27854399358268       -0.07359967836625
H            1.53595167695879        1.80737239421522        1.11092300979883
H            1.00226350659464       -0.63560803287100        1.57401348184830
H            2.15970717421114       -1.08096998907059        0.33600038372734
H           -0.19966762094506       -1.26925198672371       -2.27506850662355
H            1.49297114796454       -1.41032612019661       -1.82802992726987
H            0.27017206078270       -2.31900639817328       -0.93303698524373
H           -1.21774664302403       -1.07447258384407        0.75303109684228
H           -1.07369871235353        1.97598428959601        0.57213639445790
H           -0.50579222994421        1.00182526411196        1.93326745242258
H           -2.22082875904498        1.05453764664344        1.54671385973135
H           -2.20237591753389       -0.96497687254602       -1.50429577259894
H           -2.01021217614697        0.79246693948349       -1.53525261728161
H           -3.13997733599106        0.03866301946698       -0.40825991875514
23
 energy: -23.156186580522 gnorm: 0.001744351848 xtb: 6.7.1 (edcfbbe)
C            2.20613206739499        0.99316482004809        0.83671806295507
C            1.44147845333263       -0.30872198666338        0.62714432905086
C            0.34116159524504       -0.20443221995488       -0.45061901659659
H            0.49284967768421        0.72492870237548       -1.01071302588266
C            0.47741580208434       -1.36948001229087       -1.43190296367914
C           -1.06853862523885       -0.15226324476053        0.17325126869583
C           -1.22157450185449        1.04123064232789        1.11580464618220
C           -2.16573789403488       -0.07206877064298       -0.88816209572277
H            2.94457898073371        0.87498524691470        1.62689567984069
H            2.72633665521363        1.27639756551462       -0.07569709106704
H            1.53712526777089        1.80351767992597        1.11243979907577
H            1.00368656115431       -0.63253753603113        1.57308297219275
H            2.15869839109138       -1.07794296841620        0.33405463402045
H           -0.19825039671787       -1.26315116920628       -2.27521419753967
H            1.49126192420833       -1.40843041704140       -1.82409472063144
H            0.26540397536479       -2.31262868057886       -0.93209137837835
H           -1.21682496648930       -1.07246743018075        0.75124927326985
H           -1.07196157693239        1.97113054677427        0.57109022081528
H           -0.51118545734804        1.00029349797810        1.93549166407871
H           -2.22257434506265        1.05426130399120        1.54151601346504
H           -2.20239375254082       -0.96924455883075       -1.49836970040201
H           -2.00256507010467        0.78605500452290       -1.53695211156454
H           -3.13536413074343        0.04342249626947       -0.40875572467250
23
 energy: -23.156204344585 gnorm: 0.000949978225 xtb: 6.7.1 (edcfbbe)
C            2.20734435111616        0.99371356317138        0.83595970365078
C            1.44158044812354       -0.30935166987379        0.62779792154114
C            0.34097180560019       -0.20292990718548       -0.44939076441141
H            0.49145962211446        0.72740527299331       -1.00795377135031
C            0.47627916228741       -1.36804837290896       -1.43248370542901
C           -1.06828780819295       -0.15355212882577        0.17492333929328
C           -1.22274961298870        1.04155065648389        1.11661788488981
C           -2.16481221519909       -0.07400606856332       -0.88884978317066
H            2.94948910043972        0.87382733235811        1.62218308009890
H            2.72258784437378        1.27780509015891       -0.07877328787412
H            1.53902480553879        1.80293460698226        1.11606766443193
H            1.00458999580100       -0.63249877415890        1.57396837212330
H            2.15794165623790       -1.07874105038246        0.33383274586265
H           -0.19670818687523       -1.25718516497785       -2.27723568047427
H            1.49117710307648       -1.40878814037473       -1.82131514970520
H            0.25978814990605       -2.31060717172442       -0.93418673441085
H           -1.21562375429255       -1.07374914445907        0.75283517105386
H           -1.06933668859130        1.97026075439565        0.57134335467121
H           -0.51563520824514        0.99916074039511        1.93900509157721
H           -2.22555307259772        1.05566202969493        1.53788691247940
H           -2.20478598136025       -0.97536469677787       -1.49247506778314
H           -1.99557680250889        0.77880249933260       -1.54274342485155
H           -3.13400607955279        0.04971825629117       -0.41084733470715
23
 energy: -23.156223652507 gnorm: 0.001645339406 xtb: 6.7.1 (edcfbbe)
C            2.21039214335097        0.99376639124848        0.83496046929824
C            1.44242059298892       -0.30956291934866        0.62896927825842
C            0.34043530089223       -0.20175325861870       -0.44671238530018
H            0.48997609101487        0.73026465072003       -1.00301152492824
C            0.47513702681109       -1.36416496672016       -1.43469390110408
C           -1.06867893793186       -0.15472563845250        0.17731337875651
C           -1.22582215148448        1.04183768032144        1.11783754366418
C           -2.16410405001739       -0.07892104312343       -0.88922523193975
H            2.96098328741795        0.87125430491558        1.61303910905793
H            2.71554601041514        1.28149804679205       -0.08462832362228
H            1.54362489674453        1.80105663217798        1.12531216896391
H            1.00674216579031       -0.63046252696932        1.57659742255468
H            2.15790563775162       -1.07986342335981        0.33503087738669
H           -0.19209542707270       -1.24435265826229       -2.28305465724159
H            1.49249936523442       -1.41043163118334       -1.81712462133398
H            0.24845480548877       -2.30721778905663       -0.94147052667646
H           -1.21511952740998       -1.07419753333548        0.75654951056733
H           -1.06419105314063        1.96975406299140        0.57315625535612
H           -0.52441655792218        0.99646771066162        1.94540748753562
H           -2.23180172011564        1.06026040507805        1.53203128176152
H           -2.21250231974345       -0.98976061364301       -1.47855726338473
H           -1.98313361274763        0.76170733632829       -1.55634803583591
H           -3.13309333210401        0.06356529288311       -0.41521177428817
23
 energy: -23.156230859933 gnorm: 0.000993665633 xtb: 6.7.1 (edcfbbe)
C            2.21142247193450        0.99293859376621        0.83436394349343
C            1.44220271824168       -0.30934969144971        0.63013550328915
C            0.34024196699138       -0.20050450354319       -0.44532266904383
H            0.48930884288402        0.73269994087327       -1.00003045114421
C            0.47394645240270       -1.36056660428521       -1.43556445207685
C           -1.06888399968531       -0.15497665445402        0.17855967727794
C           -1.22654812494393        1.04219917624254        1.11755694081970
C           -2.16285025616170       -0.08306891897468       -0.88922910730288
H            2.96742144389998        0.86818963669743        1.60677029384415
H            2.71063428156075        1.28395534204237       -0.08741354322635
H            1.54717178911351        1.79967825666475        1.13199310174036
H            1.00672006742972       -0.62892062008242        1.57843350707640
H            2.15619904982523       -1.08116138983112        0.33633327285988
H           -0.18934679004837       -1.23536065218221       -2.28623278836339
H            1.49249420763489       -1.40998702767717       -1.81420777518261
H            0.24170174939246       -2.30479494845948       -0.94701113482724
H           -1.21421688412833       -1.07388079035108        0.75918202164104
H           -1.06142255458657        1.97004596201962        0.57380588013519
H           -0.52809386411829        0.99577357139931        1.94759140281628
H           -2.23364890282177        1.06292240918104        1.52860053447683
H           -2.21726627189248       -0.99972088970836       -1.46892048662635
H           -1.97692093165981        0.74901068614944       -1.56549747362429
H           -3.13110782705341        0.07089762800738       -0.41772966054654
23
 energy: -23.156233137095 gnorm: 0.000197342432 xtb: 6.7.1 (edcfbbe)
C            2.21211910994210        0.99179152669024        0.83477319318781
C            1.44212678224731       -0.30929796886803        0.63045346113173
C            0.34020290802913       -0.20025806756547       -0.44510180418522
H            0.48924491408398        0.73355998194107       -0.99882718237796
C            0.47433388767859       -1.35855592574711       -1.43646085595621
C           -1.06914564131787       -0.15454480129869        0.17880665346740
C           -1.22722045462892        1.04301919455606        1.11657511119717
C           -2.16319019118510       -0.08510021680249       -0.88837347096635
H            2.97022331446448        0.86592212087013        1.60495659720611
H            2.70897663192369        1.28436905333816       -0.08778235695389
H            1.54912237376455        1.79844713794815        1.13544557363797
H            1.00598122563298       -0.62822935136796        1.57873032297024
H            2.15534999717326       -1.08218265172473        0.33732642678662
H           -0.18797828212554       -1.23169702641673       -2.28759684120531
H            1.49319271440853       -1.40889532658356       -1.81428115494657
H            0.24044320434944       -2.30330057118175       -0.94965512018459
H           -1.21358007484903       -1.07297904404986        0.76055680164824
H           -1.06203347222320        1.97063139548478        0.57236107449891
H           -0.52840079758534        0.99717736951673        1.94628301252292
H           -2.23409514609479        1.06432077300078        1.52820028545442
H           -2.21929227799357       -1.00410425609251       -1.46384003784397
H           -1.97607666798859        0.74326443178775       -1.56860899083790
H           -3.13114542349522        0.07266073460980       -0.41777416074578
23
 energy: -23.156234212443 gnorm: 0.000360486515 xtb: 6.7.1 (edcfbbe)
C            2.21256922387570        0.99082931479750        0.83529777245116
C            1.44177798350257       -0.30941925284689        0.63087620596800
C            0.34019383048700       -0.19980666558039       -0.44510296730762
H            0.48941440266951        0.73439530583804       -0.99822136544744
C            0.47433918273161       -1.35730432335235       -1.43698570721766
C           -1.06931447263523       -0.15421824563664        0.17881812182314
C           -1.22708060356401        1.04386939328892        1.11569543778203
C           -2.16350092663219       -0.08659982586684       -0.88808580375705
H            2.97117911735450        0.86414732158124        1.60487702059760
H            2.70901271805673        1.28395895255733       -0.08735706648032
H            1.55030515641928        1.79772932956900        1.13707542501732
H            1.00506075688474       -0.62811513253301        1.57907573907918
H            2.15451780458801       -1.08292214408620        0.33799862194912
H           -0.18818056084539       -1.23051689980901       -2.28802434084995
H            1.49312698896031       -1.40704324370282       -1.81515755642654
H            0.24118537552744       -2.30260942979725       -0.95080083191347
H           -1.21312688374571       -1.07223404169639        0.76149166682531
H           -1.06388727677886        1.97125147563180        0.57041426952625
H           -0.52695344493968        0.99981935913355        1.94446262016573
H           -2.23333333336062        1.06455856012891        1.52889769608881
H           -2.21982777015295       -1.00634911880587       -1.46235765085485
H           -1.97705461876678        0.74094370491166       -1.56944657897657
H           -3.13126401542511        0.07165411832043       -0.41727419053638
23
 energy: -23.156235276555 gnorm: 0.000387496982 xtb: 6.7.1 (edcfbbe)
C            2.21318606167703        0.98982639189289        0.83575274646954
C            1.44144054150301       -0.30980067593457        0.63123180496420
C            0.34016653598358       -0.19941367706426       -0.44499403201234
H            0.48953244741706        0.73514773481603       -0.99741746627521
C            0.47464507875861       -1.35628281968116       -1.43744729361891
C           -1.06937242712694       -0.15403260260552        0.17894273836170
C           -1.22740811987005        1.04486066188343        1.11467396056192
C           -2.16387896321521       -0.08765837936751       -0.88767393602157
H            2.97187858453149        0.86231103962219        1.60508393425603
H            2.70967247433908        1.28285530976366       -0.08687671789827
H            1.55171363040422        1.79721292151033        1.13792686572512
H            1.00417037258109       -0.62801420871820        1.57933554269599
H            2.15351412264799       -1.08398062860469        0.33855327008980
H           -0.18867990456579       -1.22985359511709       -2.28792286259051
H            1.49318678334083       -1.40468776311821       -1.81645887580698
H            0.24295699262665       -2.30208104860859       -0.95150562748978
H           -1.21268009953485       -1.07161713723688        0.76239419323646
H           -1.06697962737042        1.97189030854549        0.56796748861252
H           -0.52541107160843        1.00299812855090        1.94196315232559
H           -2.23278567592436        1.06427133314205        1.53007071326917
H           -2.21973697379182       -1.00775095399336       -1.46143117152864
H           -1.97839337703700        0.73974365602476       -1.56950742687397
H           -3.13157875155490        0.07007451634304       -0.41649446294604
23
 energy: -23.156236473200 gnorm: 0.000180078312 xtb: 6.7.1 (edcfbbe)
C            2.21464161938270        0.98841239978412        0.83615450097010
C            1.44102261376199       -0.31030461545969        0.63183609446966
C            0.34001434971962       -0.19871256094649       -0.44458062916487
H            0.48945380562300        0.73631032042986       -0.99614199324081
C            0.47505723273291       -1.35476016634562       -1.43809887045111
C           -1.06954816525104       -0.15382795766245        0.17919442049094
C           -1.22824249713049        1.04613826449378        1.11358217869449
C           -2.16447862160316       -0.08922654508235       -0.88724410345227
H            2.97345549807416        0.85980582828114        1.60518621747378
H            2.71100683708473        1.28077582214878       -0.08674125777139
H            1.55416750009534        1.79649439194553        1.13860864635280
H            1.00328393126974       -0.62753019560463        1.58001742217041
H            2.15214785414521       -1.08543889150234        0.33953620388885
H           -0.18924828523386       -1.22854066876201       -2.28783064985510
H            1.49335069429943       -1.40140054079992       -1.81801783149868
H            0.24506323448771       -2.30113323730033       -0.95249575314331
H           -1.21225719438379       -1.07083374837734        0.76361285028075
H           -1.07148980849183        1.97256034811768        0.56479852648154
H           -0.52398776001173        1.00740803835576        1.93911758578897
H           -2.23265136330826        1.06362845720253        1.53143336865976
H           -2.21975654985457       -1.00982172190606       -1.46027486406644
H           -1.97970213434286        0.73786091995990       -1.56969621588473
H           -3.13214415685407        0.06815457107489       -0.41578930968755
23
 energy: -23.156237427350 gnorm: 0.000096377058 xtb: 6.7.1 (edcfbbe)
C            2.21641965170568        0.98694708645258        0.83620982155269
C            1.44058296174701       -0.31075031091650        0.63262999299013
C            0.33983754300638       -0.19793124568380       -0.44391036506220
H            0.48931404383145        0.73776459896602       -0.99432097684798
C            0.47537760703799       -1.35282336572163       -1.43889430325940
C           -1.06974021851317       -0.15380149591748        0.17971286270732
C           -1.22949470704284        1.04734451081706        1.11256338002276
C           -2.16487261490643       -0.09109875032996       -0.88677177716066
H            2.97558926006063        0.85715276632199        1.60466883773964
H            2.71256672002515        1.27835357513326       -0.08708065532035
H            1.55742466022736        1.79611098442240        1.13906778397119
H            1.00223997168612       -0.62648011593035        1.58102377769350
H            2.15032974723398       -1.08733954449262        0.34085216062371
H           -0.18932163808848       -1.22608434539693       -2.28824658860550
H            1.49361729871955       -1.39813838898409       -1.81911552595883
H            0.24627647184092       -2.29987521449083       -0.95419823414751
H           -1.21169586393230       -1.07025153197603        0.76517208052595
H           -1.07580386495800        1.97323430089247        0.56198808935577
H           -0.52350094267784        1.01147462275714        1.93673122382786
H           -2.23313426870423        1.06322123404596        1.53233748947860
H           -2.22002360077475       -1.01275687869019       -1.45815660830706
H           -1.98034432434752        0.73486888453335       -1.57069889417182
H           -3.13248525896580        0.06687713623295       -0.41539703414202
23
 energy: -23.156238224252 gnorm: 0.000182447983 xtb: 6.7.1 (edcfbbe)
C            2.21830790787338        0.98542815074495        0.83599898103925
C            1.44010154437599       -0.31107461347975        0.63346455437021
C            0.33962178296650       -0.19698890140844       -0.44324641053851
H            0.48901369086613        0.73936694976720       -0.99254344488809
C            0.47570580576253       -1.35072597319811       -1.43958847168151
C           -1.07001480783998       -0.15369356380698        0.18016703242677
C           -1.23068419482869        1.04835720104875        1.11175777704371
C           -2.16532271782160       -0.09311060852816       -0.88631785143303
H            2.97754903156175        0.85474291194682        1.60421234401602
H            2.71450168177251        1.27547359877793       -0.08767157179709
H            1.56071233701383        1.79578750434331        1.13867280290356
H            1.00121936803978       -0.62501247733806        1.58217936748299
H            2.14844430652026       -1.08922400323241        0.34250880841362
H           -0.18890442666506       -1.22303692912092       -2.28884163429478
H            1.49402605174421       -1.39518068686127       -1.81966588221109
H            0.24677213674359       -2.29841666403121       -0.95609251749618
H           -1.21116662071061       -1.06964170454828        0.76656133210182
H           -1.07935376886298        1.97372813877661        0.55968767810527
H           -0.52346830529089        1.01486847368753        1.93496597843657
H           -2.23379367264411        1.06295274989666        1.53281200437832
H           -2.22035001085231       -1.01581233744847       -1.45600091683967
H           -1.98086851843692        0.73161148361091       -1.57171643425996
H           -3.13288996707642        0.06561981244617       -0.41513698777242
23
 energy: -23.156239105413 gnorm: 0.000187478823 xtb: 6.7.1 (edcfbbe)
C            2.22044295655561        0.98378117437928        0.83564595992075
C            1.43948347955251       -0.31129323480521        0.63451967565894
C            0.33938129817719       -0.19606340387482       -0.44248823285233
H            0.48870200941770        0.74110067213384       -0.99043415440299
C            0.47598179298096       -1.34820415730433       -1.44060762840425
C           -1.07032157861643       -0.15370007239529        0.18079703384064
C           -1.23193286345180        1.04941204333785        1.11088965272524
C           -2.16575266768978       -0.09549731567781       -0.88570338301596
H            2.97943058274371        0.85237627499106        1.60399430623778
H            2.71718728799840        1.27188048430669       -0.08834876414154
H            1.56439448798114        1.79574246428856        1.13750421462172
H            0.99982952818724       -0.62302681322695        1.58360682869708
H            2.14607830047799       -1.09143102171186        0.34464177895205
H           -0.18805426428988       -1.21910686631229       -2.29011130956501
H            1.49458075232918       -1.39212696533947       -1.82000779691034
H            0.24664613698365       -2.29661141687687       -0.95872533510872
H           -1.21049979625691       -1.06910426937152        0.76828945509002
H           -1.08255812850234        1.97424682605040        0.55737267962645
H           -0.52373530899065        1.01821909627074        1.93334400841304
H           -2.23461260129686        1.06309155712302        1.53298453621440
H           -2.22064033966404       -1.01946192690149       -1.45336354255820
H           -1.98159797878118        0.72778097338032       -1.57290427355036
H           -3.13327445163453        0.06401440958096       -0.41472917198261
23
 energy: -23.156240200908 gnorm: 0.000139104405 xtb: 6.7.1 (edcfbbe)
C            2.22333328690332        0.98138703682624        0.83493864284640
C            1.43865338754084       -0.31169990443989        0.63594602325488
C            0.33907297841053       -0.19463555407663       -0.44146890354526
H            0.48827542370725        0.74372462032610       -0.98743060634858
C            0.47648686485458       -1.34458195359637       -1.44191916170140
C           -1.07077534046621       -0.15356490206617        0.18158817408522
C           -1.23358407071531        1.05087714689425        1.10971153430168
C           -2.16651469347491       -0.09897119207239       -0.88472154789214
H            2.98138694799918        0.84932668856534        1.60409481910158
H            2.72159974444649        1.26626433496386       -0.08924014420978
H            1.56939345538975        1.79587107123277        1.13477041524333
H            0.99778191611408       -0.62010267510499        1.58557380098385
H            2.14276384080164       -1.09475355866499        0.34780378899370
H           -0.18634081364330       -1.21310683582537       -2.29201584845156
H            1.49557119272865       -1.38806663244363       -1.82007762651947
H            0.24605703259737       -2.29408624852344       -0.96268238422009
H           -1.20948949922828       -1.06820774101152        0.77062036364617
H           -1.08641136245799        1.97494671613146        0.55430901834988
H           -0.52429249387218        1.02256554253116        1.93134622233905
H           -2.23578380299558        1.06365125938836        1.53296174018779
H           -2.22080469373063       -1.02449007120203       -1.44990768738652
H           -1.98319449326205        0.72262299675651       -1.57411579427884
H           -3.13402617343636        0.06104836745618       -0.41391830127410
23
 energy: -23.156241182336 gnorm: 0.000092427472 xtb: 6.7.1 (edcfbbe)
C            2.22726504894628        0.97817710490367        0.83406453567570
C            1.43733837876574       -0.31203793620356        0.63795060359530
C            0.33861620250326       -0.19288868456538       -0.44020713160321
H            0.48770408197704        0.74695916969866       -0.98361614859583
C            0.47705604762462       -1.33977469166516       -1.44387249266229
C           -1.07134393882474       -0.15354075984028        0.18274093337594
C           -1.23564556928907        1.05284467292304        1.10803111010707
C           -2.16746830428551       -0.10352972133479       -0.88329506276460
H            2.98358032040315        0.84557907976562        1.60486281990053
H            2.72805180800172        1.25822611422467       -0.09024942686426
H            1.57591111819207        1.79608453716249        1.13031079743296
H            0.99497841332727       -0.61605087054708        1.58830183823745
H            2.13815358579985       -1.09886354615466        0.35215171649055
H           -0.18405963014153       -1.20521326591041       -2.29482911353854
H            1.49685115144692       -1.38274484600347       -1.82016688623959
H            0.24511363999921       -2.29058257175861       -0.96801194348659
H           -1.20815372838942       -1.06713578646133        0.77386148295461
H           -1.09125061638093        1.97586595696326        0.55014215455651
H           -0.52499829462216        1.02825945034265        1.92862878870838
H           -2.23722889276520        1.06453267882176        1.53271866169532
H           -2.22035255959864       -1.03070417795602       -1.44584908961612
H           -1.98593809796382        0.71646846140924       -1.57501557798319
H           -3.13502153051520        0.05608814423051       -0.41248603187032
23
 energy: -23.156241533587 gnorm: 0.000087429073 xtb: 6.7.1 (edcfbbe)
C            2.23019825785242        0.97569327336887        0.83323793701915
C            1.43648537671646       -0.31252715445838        0.63943201077211
C            0.33831666455360       -0.19150284039593       -0.43913466146193
H            0.48735886282320        0.74955506946140       -0.98047674249072
C            0.47764011604206       -1.33607645284660       -1.44525058133128
C           -1.07180455915828       -0.15336970233703        0.18354840126438
C           -1.23726290955014        1.05443179992693        1.10676487776018
C           -2.16834896831578       -0.10707949359742       -0.88217036348909
H            2.98499535935304        0.84268916543041        1.60546771262968
H            2.73322884830713        1.25182457515511       -0.09104808063318
H            1.58098957946375        1.79646615155058        1.12654787422155
H            0.99277139514316       -0.61296859250134        1.59029462601597
H            2.13458443024280       -1.10247425614439        0.35549284478313
H           -0.18205720114573       -1.19898262424787       -2.29692982162947
H            1.49801100261789       -1.37870607985763       -1.82006034887144
H            0.24440888309638       -2.28796830953952       -0.97216048088252
H           -1.20711482842986       -1.06611911863320        0.77631374189760
H           -1.09500067106861        1.97657625758636        0.54686402150159
H           -0.52553103599062        1.03281771597435        1.92654110891126
H           -2.23838775977166        1.06535554700461        1.53257335548031
H           -2.21968880050878       -1.03530365463408       -1.44318624133901
H           -1.98859497043063        0.71217002425527       -1.57526507772886
H           -3.13603843763089        0.05151721152436       -0.41122957489365
23
 energy: -23.156241600906 gnorm: 0.000042873367 xtb: 6.7.1 (edcfbbe)