
                                 *****************
                                 * O   R   C   A *
                                 *****************

                                            #,                                       
                                            ###                                      
                                            ####                                     
                                            #####                                    
                                            ######                                   
                                           ########,                                 
                                     ,,################,,,,,                         
                               ,,#################################,,                 
                          ,,##########################################,,             
                       ,#########################################, ''#####,          
                    ,#############################################,,   '####,        
                  ,##################################################,,,,####,       
                ,###########''''           ''''###############################       
              ,#####''   ,,,,##########,,,,          '''####'''          '####       
            ,##' ,,,,###########################,,,                        '##       
           ' ,,###''''                  '''############,,,                           
         ,,##''                                '''############,,,,        ,,,,,,###''
      ,#''                                            '''#######################'''  
     '                                                          ''''####''''         
             ,#######,   #######,   ,#######,      ##                                
            ,#'     '#,  ##    ##  ,#'     '#,    #''#        ,####,   ,####,        
            ##       ##  ##   ,#'  ##            #'  '#       #'       #'  '#        
            ##       ##  #######   ##           ,######,      #####,   #    #        
            '#,     ,#'  ##    ##  '#,     ,#' ,#      #,     #,   #   #,  ,#        
             '#######'   ##     ##  '#######'  #'      '#     '####' # '####'        



                #########################################################
                #                        -***-                          #
                #          Department of theory and spectroscopy        #
                #                                                       #
                #                      Frank Neese                      #
                #                                                       #
                #     Directorship, Architecture, Infrastructure        #
                #                    SHARK, DRIVERS                     #
                #        Core code/Algorithms in most modules           #
                #                                                       #
                #        Max Planck Institute fuer Kohlenforschung      #
                #                Kaiser Wilhelm Platz 1                 #
                #                 D-45470 Muelheim/Ruhr                 #
                #                      Germany                          #
                #                                                       #
                #                  All rights reserved                  #
                #                        -***-                          #
                #########################################################


                         Program Version 6.0.0  -   RELEASE  -


 With contributions from (in alphabetic order):
   Daniel Aravena         : Magnetic Suceptibility
   Michael Atanasov       : Ab Initio Ligand Field Theory (pilot matlab implementation)
   Alexander A. Auer      : GIAO ZORA, VPT2 properties, NMR spectrum
   Ute Becker             : All parallelization in ORCA, NUMFREQ, NUMCALC
   Giovanni Bistoni       : ED, misc. LED, open-shell LED, HFLD
   Martin Brehm           : Molecular dynamics
   Dmytro Bykov           : pre 5.0 version of the SCF Hessian
   Marcos Casanova-Páez   : Triplet and SCS-CIS(D). UHF-(DLPNO)-IP/EA/STEOM-CCSD. UHF-CVS-IP/STEOM-CCSD
   Vijay G. Chilkuri      : MRCI spin determinant printing, contributions to CSF-ICE
   Pauline Colinet        : FMM embedding
   Dipayan Datta          : RHF DLPNO-CCSD density
   Achintya Kumar Dutta   : EOM-CC, STEOM-CC
   Nicolas Foglia         : Exact transition moments, OPA infrastructure, MCD improvements
   Dmitry Ganyushin       : Spin-Orbit,Spin-Spin,Magnetic field MRCI
   Miquel Garcia          : C-PCM and meta-GGA Hessian, CCSD/C-PCM, Gaussian charge scheme
   Tiago L. C. Gouveia    : GS-ROHF, GS-ROCIS
   Yang Guo               : DLPNO-NEVPT2, F12-NEVPT2, CIM, IAO-localization
   Andreas Hansen         : Spin unrestricted coupled pair/coupled cluster methods
   Ingolf Harden          : AUTO-CI MPn and infrastructure 
   Benjamin Helmich-Paris : MC-RPA, TRAH-(SCF,CASSCF), AVAS, COSX integrals, SCF dyn. polar.
   Lee Huntington         : MR-EOM, pCC
   Robert Izsak           : Overlap fitted RIJCOSX, COSX-SCS-MP3, EOM
   Riya Kayal             : Wick's Theorem for AUTO-CI, AUTO-CI UHF-CCSDT
   Emily Kempfer          : AUTO-CI, RHF CISDT and CCSDT
   Christian Kollmar      : KDIIS, OOCD, Brueckner-CCSD(T), CCSD density, CASPT2, CASPT2-K, improved NEVPT2
   Axel Koslowski         : Symmetry handling
   Simone Kossmann        : Meta GGA functionals, TD-DFT gradient, OOMP2, (MP2 Hessian; deprecated post 5.0)
   Lucas Lang             : DCDCAS
   Marvin Lechner         : AUTO-CI (C++ implementation), FIC-MRCC
   Spencer Leger          : CASSCF response
   Dagmar Lenk            : GEPOL surface, SMD, ORCA-2-JSON
   Dimitrios Liakos       : Extrapolation schemes; Compound Job, initial MDCI parallelization
   Dimitrios Manganas     : Further ROCIS development; embedding schemes. LFT, Crystal Embedding
   Dimitrios Pantazis     : SARC Basis sets
   Anastasios Papadopoulos: AUTO-CI, single reference methods and gradients
   Taras Petrenko         : pre 6.0 DFT Hessian and TD-DFT gradient, (ASA, deprecated), ECA, 1-Electron XAS/XES, NRVS
   Peter Pinski           : DLPNO-MP2, DLPNO-MP2 Gradient
   Christoph Reimann      : Effective Core Potentials
   Marius Retegan         : Local ZFS, SOC
   Christoph Riplinger    : Optimizer, TS searches, QM/MM, DLPNO-CCSD(T), (RO)-DLPNO pert. Triples
   Michael Roemelt        : Original ROCIS implementation
   Masaaki Saitow         : Open-shell DLPNO-CCSD energy and density
   Barbara Sandhoefer     : DKH picture change effects
   Kantharuban Sivalingam : CASSCF convergence/infrastructure, NEVPT2 and variants, FIC-MRCI
   Bernardo de Souza      : ESD, SOC TD-DFT
   Georgi Stoychev        : AutoAux, RI-MP2 NMR, DLPNO-MP2 response, X2C
   Van Anh Tran           : RI-MP2 g-tensors
   Willem Van den Heuvel  : Paramagnetic NMR
   Zikuan Wang            : NOTCH, Electric field optimization 
   Frank Wennmohs         : Technical directorship and infrastructure
   Hang Xu                : AUTO-CI-Response properties 


 We gratefully acknowledge several colleagues who have allowed us to
 interface, adapt or use parts of their codes:
   Stefan Grimme, W. Hujo, H. Kruse, P. Pracht,  : VdW corrections, initial TS optimization,
                  C. Bannwarth, S. Ehlert,         DFT functionals, gCP, sTDA/sTD-DF
                  L. Wittmann, M. Mueller
   Ed Valeev, F. Pavosevic, A. Kumar             : LibInt (2-el integral package), F12 methods
   Garnet Chan, S. Sharma, J. Yang, R. Olivares  : DMRG
   Ulf Ekstrom                                   : XCFun DFT Library
   Mihaly Kallay                                 : mrcc  (arbitrary order and MRCC methods)
   Frank Weinhold                                : gennbo (NPA and NBO analysis)
   Simon Mueller                                 : openCOSMO-RS
   Christopher J. Cramer and Donald G. Truhlar   : smd solvation model
   Lars Goerigk                                  : TD-DFT with DH, B97 family of functionals
   V. Asgeirsson, H. Jonsson                     : NEB implementation
   FAccTs GmbH                                   : IRC, NEB, NEB-TS, DLPNO-Multilevel, CI-OPT
                                                   MM, QMMM, 2- and 3-layer-ONIOM, Crystal-QMMM,
                                                   LR-CPCM, SF, NACMEs, symmetry and pop. for TD-DFT,
                                                   nearIR, NL-DFT gradient (VV10), updates on ESD,
                                                   ML-optimized integration grids, MBIS, APM,
                                                   GOAT, DOCKER, SOLVATOR, interface openCOSMO-RS
   S Lehtola, MJT Oliveira, MAL Marques          : LibXC Library
   Liviu Ungur et al                             : ANISO software


 Your calculation uses the libint2 library for the computation of 2-el integrals
 For citations please refer to: http://libint.valeyev.net

 Your ORCA version has been built with support for libXC version: 6.2.2
 For citations please refer to: https://libxc.gitlab.io

 This ORCA versions uses:
   CBLAS   interface :  Fast vector & matrix operations
   LAPACKE interface :  Fast linear algebra routines
   SCALAPACK package :  Parallel linear algebra routines
   Shared memory     :  Shared parallel matrices
   BLAS/LAPACK       :  OpenBLAS 0.3.27  USE64BITINT DYNAMIC_ARCH NO_AFFINITY SkylakeX SINGLE_THREADED
        Core in use  :  SkylakeX
   Copyright (c) 2011-2014, The OpenBLAS Project


Your calculation utilizes the geometrical counterpoise correction gCP
Please cite in your paper:
H.Kruse, S. Grimme J.Chem.Phys., 136, (2012), 154101 
   

Your calculation utilizes the atom-pairwise dispersion correction
based on EEQ partial charges (D4)


Your calculation utilizes the SMD solvation module
Please cite in your paper:
A.V. Marenich, C.J. Cramer, D.G. Truhlar J. Phys. Chem. B, 113, (2009), 6378 

================================================================================

----- Orbital basis set information -----
Your calculation utilizes the basis: def2-mTZVPP
   Stefan Grimme, Andreas Hansen, Sebastian Ehlert, and Jan-Michael Mewes 
   J. Chem. Phys. 154, 064103 (2021). DOI: 10.1063/5.0040021

----- AuxJ basis set information -----
Your calculation utilizes the auxiliary basis: def2/J
   F. Weigend, Phys. Chem. Chem. Phys. 8, 1057 (2006).

================================================================================
                                        WARNINGS
                       Please study these warnings very carefully!
================================================================================

Using LibXC functional ID 497 : Re-regularized SCAN exchange by Furness et al
[ 1]  J. W. Furness, A. D. Kaplan, J. Ning, J. P. Perdew, and J. Sun.,  J. Phys. Chem. Lett. 11, 8208-8215 (2020)
[ 2]  J. W. Furness, A. D. Kaplan, J. Ning, J. P. Perdew, and J. Sun.,  J. Phys. Chem. Lett. 11, 9248-9248 (2020)
Using LibXC functional ID 498 : Re-regularized SCAN correlation by Furness et al
[ 1]  J. W. Furness, A. D. Kaplan, J. Ning, J. P. Perdew, and J. Sun.,  J. Phys. Chem. Lett. 11, 8208-8215 (2020)
[ 2]  J. W. Furness, A. D. Kaplan, J. Ning, J. P. Perdew, and J. Sun.,  J. Phys. Chem. Lett. 11, 9248-9248 (2020)
Using LibXC functional ID 497 : Re-regularized SCAN exchange by Furness et al
[ 1]  J. W. Furness, A. D. Kaplan, J. Ning, J. P. Perdew, and J. Sun.,  J. Phys. Chem. Lett. 11, 8208-8215 (2020)
[ 2]  J. W. Furness, A. D. Kaplan, J. Ning, J. P. Perdew, and J. Sun.,  J. Phys. Chem. Lett. 11, 9248-9248 (2020)
Using LibXC functional ID 498 : Re-regularized SCAN correlation by Furness et al
[ 1]  J. W. Furness, A. D. Kaplan, J. Ning, J. P. Perdew, and J. Sun.,  J. Phys. Chem. Lett. 11, 8208-8215 (2020)
[ 2]  J. W. Furness, A. D. Kaplan, J. Ning, J. P. Perdew, and J. Sun.,  J. Phys. Chem. Lett. 11, 9248-9248 (2020)

================================================================================
                                       INPUT FILE
================================================================================
NAME = sp_solv.inp
|  1> ! r2scan-3c def2/J RI DEFGRID2 scfconv6 printgap
|  2> %output
|  3>     printlevel normal
|  4> end
|  5> %cpcm
|  6>     smd true
|  7>     smdsolvent "water"
|  8> end
|  9> * xyz 0 1
| 10> C -0.2803154641 2.151388908 -0.942734492
| 11> N -0.1012434901 0.7249210327 -0.7599830591
| 12> C -1.2499671717 -0.1056500662 -0.9419797063
| 13> C -2.1268459604 -0.2179452397 0.3140216027
| 14> F -3.1240424367 -1.1111956523 0.1414651559
| 15> F -1.4606990105 -0.6085147372 1.4104453207
| 16> F -2.7265575722 0.942621985 0.6386221229
| 17> C 1.1348016162 0.2090627935 -0.4170085309
| 18> C 2.2831736809 1.0041857813 -0.5175865445
| 19> C 3.527235313 0.5000155337 -0.1937302763
| 20> C 3.6736624806 -0.8080580245 0.2347959445
| 21> C 2.5464080704 -1.6036585856 0.3406412341
| 22> C 1.2954823114 -1.1087625542 0.0256376803
| 23> H 0.1931409048 2.6998270645 -0.1282194422
| 24> H -1.3410287774 2.3870755594 -0.9311943796
| 25> H 0.1427415681 2.4843185093 -1.8944935771
| 26> H -1.8940600665 0.3039331833 -1.7269607877
| 27> H -0.9620763926 -1.1210638188 -1.2247557634
| 28> H 2.2130347208 2.0217320573 -0.861836377
| 29> H 4.3939869683 1.1382675626 -0.2832941353
| 30> H 4.6472866429 -1.1996439223 0.4855000547
| 31> H 2.6358746445 -2.6248020701 0.681442524
| 32> H 0.4469525353 -1.7613218752 0.1556985891
| 33> *
| 34> 
| 35>                          ****END OF INPUT****
================================================================================

                       ****************************
                       * Single Point Calculation *
                       ****************************

---------------------------------
CARTESIAN COORDINATES (ANGSTROEM)
---------------------------------
  C     -0.280315    2.151389   -0.942734
  N     -0.101243    0.724921   -0.759983
  C     -1.249967   -0.105650   -0.941980
  C     -2.126846   -0.217945    0.314022
  F     -3.124042   -1.111196    0.141465
  F     -1.460699   -0.608515    1.410445
  F     -2.726558    0.942622    0.638622
  C      1.134802    0.209063   -0.417009
  C      2.283174    1.004186   -0.517587
  C      3.527235    0.500016   -0.193730
  C      3.673662   -0.808058    0.234796
  C      2.546408   -1.603659    0.340641
  C      1.295482   -1.108763    0.025638
  H      0.193141    2.699827   -0.128219
  H     -1.341029    2.387076   -0.931194
  H      0.142742    2.484319   -1.894494
  H     -1.894060    0.303933   -1.726961
  H     -0.962076   -1.121064   -1.224756
  H      2.213035    2.021732   -0.861836
  H      4.393987    1.138268   -0.283294
  H      4.647287   -1.199644    0.485500
  H      2.635875   -2.624802    0.681443
  H      0.446953   -1.761322    0.155699

----------------------------
CARTESIAN COORDINATES (A.U.)
----------------------------
  NO LB      ZA    FRAG     MASS         X           Y           Z
   0 C     6.0000    0    12.011   -0.529719    4.065536   -1.781510
   1 N     7.0000    0    14.007   -0.191322    1.369902   -1.436160
   2 C     6.0000    0    12.011   -2.362096   -0.199650   -1.780084
   3 C     6.0000    0    12.011   -4.019156   -0.411857    0.593415
   4 F     9.0000    0    18.998   -5.903585   -2.099855    0.267330
   5 F     9.0000    0    18.998   -2.760321   -1.149926    2.665355
   6 F     9.0000    0    18.998   -5.152447    1.781297    1.206821
   7 C     6.0000    0    12.011    2.144464    0.395071   -0.788032
   8 C     6.0000    0    12.011    4.314573    1.897636   -0.978097
   9 C     6.0000    0    12.011    6.665509    0.944892   -0.366097
  10 C     6.0000    0    12.011    6.942216   -1.527008    0.443700
  11 C     6.0000    0    12.011    4.812014   -3.030476    0.643719
  12 C     6.0000    0    12.011    2.448107   -2.095258    0.048448
  13 H     1.0000    0     1.008    0.364983    5.101934   -0.242300
  14 H     1.0000    0     1.008   -2.534177    4.510919   -1.759702
  15 H     1.0000    0     1.008    0.269742    4.694682   -3.580074
  16 H     1.0000    0     1.008   -3.579255    0.574350   -3.263483
  17 H     1.0000    0     1.008   -1.818061   -2.118504   -2.314453
  18 H     1.0000    0     1.008    4.182030    3.820520   -1.628635
  19 H     1.0000    0     1.008    8.303432    2.151014   -0.535348
  20 H     1.0000    0     1.008    8.782099   -2.266998    0.917462
  21 H     1.0000    0     1.008    4.981081   -4.960157    1.287740
  22 H     1.0000    0     1.008    0.844618   -3.328416    0.294228

--------------------------------
INTERNAL COORDINATES (ANGSTROEM)
--------------------------------
 C      0   0   0     0.000000000000     0.00000000     0.00000000
 N      1   0   0     1.449232713322     0.00000000     0.00000000
 C      2   1   0     1.429173616671   117.17123523     0.00000000
 C      3   2   1     1.535925097221   113.40545374   275.40168357
 F      4   3   2     1.349841783057   111.44494821   186.06156558
 F      4   3   2     1.341059752819   113.97125057   306.22061900
 F      4   3   2     1.346081646145   112.86212246    67.17711762
 C      2   1   3     1.382587702373   120.59712506   180.34027388
 C      8   2   1     1.400390981666   120.22891770   346.39615667
 C      9   8   2     1.380854759010   120.97399201   180.74721039
 C     10   9   8     1.384244223750   120.85926532     0.24544371
 C     11  10   9     1.383794053849   118.73848907   359.65445301
 C     12  11  10     1.381652841828   120.94118683     0.03327278
 H      1   2   3     1.090128483761   110.32268497   133.85524201
 H      1   2   3     1.086643504032   109.43654696    15.31763417
 H      1   2   3     1.093464552688   111.20117010   255.19577134
 H      3   2   1     1.094901545144   110.28728290    34.26442104
 H      3   2   1     1.092661195490   111.17705084   154.64582740
 H      9   8   2     1.076488664456   120.41341173     0.00000000
 H     10   9   8     1.080113776044   119.19410017   179.90984926
 H     11  10   9     1.078951377793   120.68702576   179.89373030
 H     12  11  10     1.080223959656   120.01058763   180.54746797
 H     13  12  11     1.078309922216   117.91670548   181.91041122

---------------------------
INTERNAL COORDINATES (A.U.)
---------------------------
 C      0   0   0     0.000000000000     0.00000000     0.00000000
 N      1   0   0     2.738652932498     0.00000000     0.00000000
 C      2   1   0     2.700746733334   117.17123523     0.00000000
 C      3   2   1     2.902477795964   113.40545374   275.40168357
 F      4   3   2     2.550831294102   111.44494821   186.06156558
 F      4   3   2     2.534235662052   113.97125057   306.22061900
 F      4   3   2     2.543725665113   112.86212246    67.17711762
 C      2   1   3     2.612712113612   120.59712506   180.34027388
 C      8   2   1     2.646355435762   120.22891770   346.39615667
 C      9   8   2     2.609437325251   120.97399201   180.74721039
 C     10   9   8     2.615842485351   120.85926532     0.24544371
 C     11  10   9     2.614991787524   118.73848907   359.65445301
 C     12  11  10     2.610945483209   120.94118683     0.03327278
 H      1   2   3     2.060044285096   110.32268497   133.85524201
 H      1   2   3     2.053458627824   109.43654696    15.31763417
 H      1   2   3     2.066348541732   111.20117010   255.19577134
 H      3   2   1     2.069064063929   110.28728290    34.26442104
 H      3   2   1     2.064830416639   111.17705084   154.64582740
 H      9   8   2     2.034268762092   120.41341173     0.00000000
 H     10   9   8     2.041119230198   119.19410017   179.90984926
 H     11  10   9     2.038922615846   120.68702576   179.89373030
 H     12  11  10     2.041327447050   120.01058763   180.54746797
 H     13  12  11     2.037710440479   117.91670548   181.91041122

---------------------
BASIS SET INFORMATION
---------------------
There are 4 groups of distinct atoms

 Group   1 Type C   : 11s6p1d contracted to 5s3p1d pattern {62111/411/1}
 Group   2 Type N   : 11s6p2d contracted to 5s3p2d pattern {62111/411/11}
 Group   3 Type F   : 11s6p2d contracted to 5s3p2d pattern {62111/411/11}
 Group   4 Type H   : 4s1p contracted to 2s1p pattern {31/1}

Atom   0C    basis set group =>   1
Atom   1N    basis set group =>   2
Atom   2C    basis set group =>   1
Atom   3C    basis set group =>   1
Atom   4F    basis set group =>   3
Atom   5F    basis set group =>   3
Atom   6F    basis set group =>   3
Atom   7C    basis set group =>   1
Atom   8C    basis set group =>   1
Atom   9C    basis set group =>   1
Atom  10C    basis set group =>   1
Atom  11C    basis set group =>   1
Atom  12C    basis set group =>   1
Atom  13H    basis set group =>   4
Atom  14H    basis set group =>   4
Atom  15H    basis set group =>   4
Atom  16H    basis set group =>   4
Atom  17H    basis set group =>   4
Atom  18H    basis set group =>   4
Atom  19H    basis set group =>   4
Atom  20H    basis set group =>   4
Atom  21H    basis set group =>   4
Atom  22H    basis set group =>   4
---------------------------------
AUXILIARY/J BASIS SET INFORMATION
---------------------------------
There are 4 groups of distinct atoms

 Group   1 Type C   : 12s5p4d2f1g contracted to 6s4p3d1f1g pattern {711111/2111/211/2/1}
 Group   2 Type N   : 12s5p4d2f1g contracted to 6s4p3d1f1g pattern {711111/2111/211/2/1}
 Group   3 Type F   : 12s5p4d2f1g contracted to 6s4p3d1f1g pattern {711111/2111/211/2/1}
 Group   4 Type H   : 5s2p1d contracted to 3s1p1d pattern {311/2/1}

Atom   0C    basis set group =>   1
Atom   1N    basis set group =>   2
Atom   2C    basis set group =>   1
Atom   3C    basis set group =>   1
Atom   4F    basis set group =>   3
Atom   5F    basis set group =>   3
Atom   6F    basis set group =>   3
Atom   7C    basis set group =>   1
Atom   8C    basis set group =>   1
Atom   9C    basis set group =>   1
Atom  10C    basis set group =>   1
Atom  11C    basis set group =>   1
Atom  12C    basis set group =>   1
Atom  13H    basis set group =>   4
Atom  14H    basis set group =>   4
Atom  15H    basis set group =>   4
Atom  16H    basis set group =>   4
Atom  17H    basis set group =>   4
Atom  18H    basis set group =>   4
Atom  19H    basis set group =>   4
Atom  20H    basis set group =>   4
Atom  21H    basis set group =>   4
Atom  22H    basis set group =>   4

Checking for AutoStart:
The File: sp_solv.gbw exists
Trying to determine its content:
     ... Fine, the file contains calculation information
     ... Fine, the calculation information was read
     ... Fine, the file contains a basis set
     ... Fine, the basis set was read
     ... Fine, the file contains a geometry
     ... Fine, the geometry was read
     ... Fine, the file contains a set of orbitals
     ... Fine, the orbitals can be read
     => possible old guess file was deleted
     => GBW file was renamed to GES file
     => GES file is set as startup file
     => Guess is set to MORead
     ... now leaving AutoStart

------------------------------------------------------------------------------
                             ORCA STARTUP CALCULATIONS
                           -- RI-GTO INTEGRALS CHOSEN --
------------------------------------------------------------------------------
------------------------------------------------------------------------------
                   ___                                                        
                  /   \      - P O W E R E D   B Y -                         
                 /     \                                                     
                 |  |  |   _    _      __       _____    __    __             
                 |  |  |  | |  | |    /  \     |  _  \  |  |  /  |          
                  \  \/   | |  | |   /    \    | | | |  |  | /  /          
                 / \  \   | |__| |  /  /\  \   | |_| |  |  |/  /          
                |  |  |   |  __  | /  /__\  \  |    /   |      \           
                |  |  |   | |  | | |   __   |  |    \   |  |\   \          
                \     /   | |  | | |  |  |  |  | |\  \  |  | \   \       
                 \___/    |_|  |_| |__|  |__|  |_| \__\ |__|  \__/        
                                                                              
                      - O R C A' S   B I G   F R I E N D -                    
                                      &                                       
                       - I N T E G R A L  F E E D E R -                       
                                                                              
 v1 FN, 2020, v2 2021, v3 2022-2024                                           
------------------------------------------------------------------------------


----------------------
SHARK INTEGRAL PACKAGE
----------------------

Number of atoms                             ...     23
Number of basis functions                   ...    317
Number of shells                            ...    151
Maximum angular momentum                    ...      2
Integral batch strategy                     ... SHARK/LIBINT Hybrid
RI-J (if used) integral strategy            ... SPLIT-RIJ (Revised 2003 algorithm where possible)
Printlevel                                  ...      1
Contraction scheme used                     ... SEGMENTED contraction
Prescreening option                         ... SCHWARTZ
   Thresh                                   ... 1.000e-10
   Tcut                                     ... 1.000e-11
   Tpresel                                  ... 1.000e-11 
Coulomb Range Separation                    ... NOT USED
Exchange Range Separation                   ... NOT USED
Multipole approximations                    ... NOT USED
Finite Nucleus Model                        ... NOT USED
CABS basis                                  ... NOT available
Auxiliary Coulomb fitting basis             ... AVAILABLE
   # of basis functions in Aux-J            ...    747
   # of shells in Aux-J                     ...    245
   Maximum angular momentum in Aux-J        ...      4
Auxiliary J/K fitting basis                 ... NOT available
Auxiliary Correlation fitting basis         ... NOT available
Auxiliary 'external' fitting basis          ... NOT available

Checking pre-screening integrals            ... done (  0.0 sec) Dimension = 151
Check shell pair data                       ... done (  0.0 sec)
Shell pair information
Shell pair cut-off parameter TPreSel        ...   1.0e-11
Total number of shell pairs                 ...     11476
Shell pairs after pre-screening             ...      9378
Total number of primitive shell pairs       ...     41932
Primitive shell pairs kept                  ...     22920
          la=0 lb=0:   2850 shell pairs
          la=1 lb=0:   3464 shell pairs
          la=1 lb=1:   1073 shell pairs
          la=2 lb=0:   1153 shell pairs
          la=2 lb=1:    711 shell pairs
          la=2 lb=2:    127 shell pairs

Calculating one electron integrals          ... done (  0.1 sec)
Calculating RI/J V-Matrix + Cholesky decomp.... done (  0.1 sec)
Calculating Nuclear repulsion               ... done (  0.0 sec) ENN=    834.662177994526 Eh

Diagonalization of the overlap matrix:
Smallest eigenvalue                        ... 2.803e-05
Time for diagonalization                   ...    0.009 sec
Threshold for overlap eigenvalues          ... 1.000e-07
Number of eigenvalues below threshold      ... 0
Time for construction of square roots      ...    0.021 sec
Total time needed                          ...    0.042 sec

-------------------
DFT GRID GENERATION
-------------------

General Integration Accuracy     IntAcc      ... 4.388
Radial Grid Type                 RadialGrid  ... OptM3 with GC (2021)
Angular Grid (max. ang.)         AngularGrid ... 4 (Lebedev-302)
Angular grid pruning method      GridPruning ... 4 (adaptive)
Weight generation scheme         WeightScheme... mBecke (2022)
Basis function cutoff            BFCut       ... 1.0000e-10
Integration weight cutoff        WCut        ... 1.0000e-14
Partially contracted basis set               ... off
Rotationally invariant grid construction     ... off
Angular grids for H and He will be reduced by one unit

Total number of grid points                  ...   110100
Total number of batches                      ...     1733
Average number of points per batch           ...       63
Average number of grid points per atom       ...     4787
Initializing property integral containers    ... done (  0.0 sec)

SHARK setup successfully completed in   1.8 seconds

Maximum memory used throughout the entire STARTUP-calculation: 53.8 MB
-------------------------------------------------------------------------------
                                 ORCA GUESS
                   Start orbitals & Density for SCF / CASSCF
-------------------------------------------------------------------------------

------------
SCF SETTINGS
------------
Hamiltonian:
 Density Functional     Method          .... DFT(GTOs)
  Functional kind                       .... Exchange
  Functional name                       .... Re-regularized SCAN exchange by Furness et al
  Functional family                     .... MGGA
  Functional refs                              
    [ 0] J. W. Furness, A. D. Kaplan, J. Ning, J. P. Perdew, and J. Sun.,  J. Phys. Chem. Lett. 11, 8208-8215 (2020), doi: 10.1021/acs.jpclett.0c02405
    [ 1] J. W. Furness, A. D. Kaplan, J. Ning, J. P. Perdew, and J. Sun.,  J. Phys. Chem. Lett. 11, 9248-9248 (2020), doi: 10.1021/acs.jpclett.0c03077
  Functional external parameters        .... 6
    Parameter  0 _c1        =  6.670000e-01 : c1 parameter        
    Parameter  1 _c2        =  8.000000e-01 : c2 parameter        
    Parameter  2 _d         =  1.240000e+00 : d parameter         
    Parameter  3 _k1        =  6.500000e-02 : k1 parameter        
    Parameter  4 _eta       =  1.000000e-03 : eta parameter       
    Parameter  5 _dp2       =  3.610000e-01 : dp2 parameter       
  Functional kind                       .... Correlation
  Functional name                       .... Re-regularized SCAN correlation by Furness et al
  Functional family                     .... MGGA
  Functional refs                              
    [ 0] J. W. Furness, A. D. Kaplan, J. Ning, J. P. Perdew, and J. Sun.,  J. Phys. Chem. Lett. 11, 8208-8215 (2020), doi: 10.1021/acs.jpclett.0c02405
    [ 1] J. W. Furness, A. D. Kaplan, J. Ning, J. P. Perdew, and J. Sun.,  J. Phys. Chem. Lett. 11, 9248-9248 (2020), doi: 10.1021/acs.jpclett.0c03077
  Functional external parameters        .... 1
    Parameter  0 _eta       =  1.000000e-03 : Regularization parameter
 Gradients option       PostSCFGGA      .... off
 RI-approximation to the Coulomb term is turned on
   Number of AuxJ basis functions       .... 747


General Settings:
 Integral files         IntName         .... sp_solv
 Hartree-Fock type      HFTyp           .... RHF
 Total Charge           Charge          ....    0
 Multiplicity           Mult            ....    1
 Number of Electrons    NEL             ....   98
 Basis Dimension        Dim             ....  317
 Nuclear Repulsion      ENuc            ....    834.6621779945 Eh

Convergence Acceleration:
 AO-DIIS                CNVDIIS         .... on
   Start iteration      DIISMaxIt       ....    12
   Startup error        DIISStart       ....  0.200000
   # of expansion vecs  DIISMaxEq       ....     5
   Bias factor          DIISBfac        ....   1.050
   Max. coefficient     DIISMaxC        ....  10.000
 MO-DIIS                CNVKDIIS        .... off
 Trust-Rad. Augm. Hess. CNVTRAH         .... auto
   Auto Start mean grad. ratio tolernc. ....  1.125000
   Auto Start start iteration           ....     1
   Auto Start num. interpolation iter.  ....    10
   Max. Number of Micro iterations      ....    24
   Max. Number of Macro iterations      .... Maxiter - #DIIS iter
   Number of Davidson start vectors     ....     2
   Converg. threshold    (grad. norm)   ....   3.330e-04
   Grad. Scal. Fac. for Micro threshold ....   0.100
   Minimum threshold for Micro iter.    ....   1.000e-02
   NR start threshold (gradient norm)   ....   1.000e-04
   Initial trust radius                 ....   0.400
   Minimum AH scaling param. (alpha)    ....   1.000
   Maximum AH scaling param. (alpha)    .... 1000.000
   Quad. conv. algorithm                .... NR
   White noise on init. David. guess    .... on
   Maximum white noise                  ....   0.010
   Pseudo random numbers                .... off
   Inactive MOs                         .... canonical
   Orbital update algorithm             .... Taylor
   Preconditioner                       .... Diag
   Full preconditioner red. dimension   ....   250
   COSX micro iterations for RIJONX calc.... off
 SOSCF                  CNVSOSCF        .... on
   Start iteration      SOSCFMaxIt      ....   150
   Startup grad/error   SOSCFStart      ....  0.003300
   Hessian update       SOSCFHessUp     .... L-BFGS
 Level Shifting         CNVShift        .... on
   Level shift para.    LevelShift      ....    0.2500
   Turn off err/grad.   ShiftErr        ....    0.0010
 Zerner damping         CNVZerner       .... off
 Static damping         CNVDamp         .... on
   Fraction old density DampFac         ....    0.7000
   Max. Damping (<1)    DampMax         ....    0.9800
   Min. Damping (>=0)   DampMin         ....    0.0000
   Turn off err/grad.   DampErr         ....    0.1000

SCF Procedure:
 Maximum # iterations   MaxIter         ....   125
 SCF integral mode      SCFMode         .... Direct
   Integral package                     .... SHARK and LIBINT hybrid scheme
 Reset frequency        DirectResetFreq ....    20
 Integral Threshold     Thresh          ....  1.000e-10 Eh
 Primitive CutOff       TCut            ....  1.000e-11 Eh

Convergence Tolerance:
 Convergence Check Mode ConvCheckMode   .... Total+1el-Energy
 Convergence forced     ConvForced      .... 0
 Energy Change          TolE            ....  1.000e-06 Eh
 1-El. energy change                    ....  1.000e-03 Eh
 Orbital Gradient       TolG            ....  3.330e-04
 Orbital Rotation angle TolX            ....  3.330e-04
 DIIS Error             TolErr          ....  1.000e-06

---------------------
INITIAL GUESS: MOREAD
---------------------
Guess MOs are being read from file: sp_solv.ges
Input Geometry matches current geometry (good)
Atom 0: N(Shells)= 9 and 6 - projection required
Input basis set needs projection
NBasis(read)= 202
NBasis(calc)= 317
Basis set overlap was calculated
Using GuessMode=FMatrix for the initial guess
C*T matrix was formed
Effective Fockian was calculated
Effective Fockian was diagonalized
Initial density was built
                      ------------------
                      INITIAL GUESS DONE (   0.1 sec)
                      ------------------
             **** ENERGY FILE WAS UPDATED (sp_solv.en.tmp) ****
Finished Guess after   0.4 sec
Maximum memory used throughout the entire GUESS-calculation: 26.0 MB

-------------------------------------------------------------------------------------------
                                      ORCA LEAN-SCF
                              memory conserving SCF solver
-------------------------------------------------------------------------------------------

--------------------
CPCM SOLVATION MODEL
--------------------
CPCM parameters:
  Epsilon                                         ...      78.3550
  Refrac                                          ...       1.3328
  Rsolv                                           ...       1.3000
  Surface type                                    ... GAUSSIAN VDW
  Discretization scheme                           ... Constant charge density
    Threshold for H atoms                         ...       5.0000 (charges/Ang^2)
    Threshold for non-H atoms                     ...       5.0000 (charges/Ang^2)
  Epsilon function type                           ...         CPCM
Solvent:                                          ... WATER
SMD-CDS solvent descriptors:
  Soln                                            ...       1.3328
  Soln25                                          ...       1.3323
  Sola                                            ...       0.0000
  Solb                                            ...       0.0000
  Solg                                            ...       0.0000
  Solc                                            ...       0.0000
  Solh                                            ...       0.0000
Radii:
  Scheme                                          ... Element-dependent radii
  Radius for C  used is    3.4960 Bohr (=   1.8500 Ang.)
  Radius for N  used is    3.5716 Bohr (=   1.8900 Ang.)
  Radius for F  used is    3.2692 Bohr (=   1.7300 Ang.)
  Radius for H  used is    2.2677 Bohr (=   1.2000 Ang.)
Calculating surface                               ...        done! (  0.0s)
Cavity surface points                             ...         1822
Cavity Volume                                     ...    1248.2237
Cavity Surface-area                               ...     731.0421
Calculating surface distance matrix               ...        done! (  0.0s)
Performing Cholesky decomposition & store         ...        done! (  0.1s)
Overall time for CPCM initialization              ...                 0.1s

----------------------------------------D-I-I-S--------------------------------------------
Iteration    Energy (Eh)           Delta-E    RMSDP     MaxDP     DIISErr   Damp  Time(sec)
-------------------------------------------------------------------------------------------
               ***  Starting incremental Fock matrix formation  ***
    1    -702.8476245409414105     0.00e+00  8.62e-03  4.38e-01  8.38e-01  0.700   6.2
    2    -702.9458478864593189    -9.82e-02  6.42e-03  3.18e-01  5.89e-01  0.700   5.1
    3    -703.0150866581215041    -6.92e-02  4.56e-03  2.23e-01  4.14e-01  0.700   5.3
    4    -703.0636852052122094    -4.86e-02  3.22e-03  1.56e-01  2.90e-01  0.700   5.3
    5    -703.0977699915644052    -3.41e-02  2.26e-03  1.09e-01  2.03e-01  0.700   5.4
                               ***Turning on AO-DIIS***
    6    -703.1216630611194205    -2.39e-02  1.59e-03  7.59e-02  1.42e-01  0.700   4.9
    7    -703.1384057306748900    -1.67e-02  1.12e-03  5.31e-02  9.93e-02  0.700   4.8
    8    -703.1501361308252172    -1.17e-02  2.61e-03  1.24e-01  6.96e-02  0.000   4.9
                              *** Initializing SOSCF ***
---------------------------------------S-O-S-C-F--------------------------------------
Iteration    Energy (Eh)           Delta-E    RMSDP     MaxDP     MaxGrad    Time(sec)
--------------------------------------------------------------------------------------
    9    -703.1775418374328410    -2.74e-02  1.60e-05  4.87e-04  3.17e-04     5.0
               *** Restarting incremental Fock matrix formation ***
   10    -703.1775420556344898    -2.18e-07  1.16e-05  2.70e-04  9.99e-05     6.0
   11    -703.1775414526592840     6.03e-07  5.43e-06  1.60e-04  1.80e-04     4.1
                 **** Energy Check signals convergence ****

               *****************************************************
               *                     SUCCESS                       *
               *           SCF CONVERGED AFTER  11 CYCLES          *
               *****************************************************


SMD CDS free energy correction energy :                 5.33220     Kcal/mol
Total Energy after SMD CDS correction =              -703.169044054 Eh
             **** ENERGY FILE WAS UPDATED (sp_solv.en.tmp) ****

----------------
TOTAL SCF ENERGY
----------------

Total Energy       :       -703.16904405403329 Eh          -19134.20245 eV

Components:
Nuclear Repulsion  :        834.66217799452613 Eh           22712.31253 eV
Electronic Energy  :      -1537.82299143631758 Eh          -41846.29102 eV
One Electron Energy:      -2620.94849488757563 Eh          -71319.63437 eV
Two Electron Energy:       1083.12550345125806 Eh           29473.34334 eV
CPCM Dielectric    :         -0.01672801086784 Eh              -0.45519 eV
SMD CDS (Gcds)     :          0.00849739862594 Eh               0.23123 eV

Virial components:
Potential Energy   :      -1403.79259071502884 Eh          -38199.13840 eV
Kinetic Energy     :        700.62354666099566 Eh           19064.93595 eV
Virial Ratio       :          2.00363318847214

DFT components:
N(Alpha)           :       49.000059106125 electrons
N(Beta)            :       49.000059106125 electrons
N(Total)           :       98.000118212250 electrons
E(X)               :      -87.496023950596 Eh       
E(C)               :       -3.246011802375 Eh       
E(XC)              :      -90.742035752970 Eh       

CPCM Solvation Model Properties:
Surface-charge          :         -0.03861548814533
Corrected charge        :          0.00000000000000
Outlying charge corr.   :          0.00010130577390 Eh               0.00276 eV
Free-energy (cav+disp)  :          0.00849739862594 Eh               0.23123 eV

---------------
SCF CONVERGENCE
---------------

  Last Energy change         ...   -6.0298e-07  Tolerance :   1.0000e-06
  Last MAX-Density change    ...    1.6039e-04  Tolerance :   1.0000e-05
  Last RMS-Density change    ...    5.4304e-06  Tolerance :   1.0000e-06
  Last DIIS Error            ...    3.1744e-04  Tolerance :   1.0000e-06
  Last Orbital Gradient      ...    1.7987e-04  Tolerance :   3.3300e-04
  Last Orbital Rotation      ...    2.8767e-04  Tolerance :   3.3300e-04


----------------
ORBITAL ENERGIES
----------------

  NO   OCC          E(Eh)            E(eV) 
   0   2.0000     -24.519945      -667.2216 
   1   2.0000     -24.518330      -667.1777 
   2   2.0000     -24.517421      -667.1530 
   3   2.0000     -14.188682      -386.0937 
   4   2.0000     -10.277835      -279.6741 
   5   2.0000     -10.085847      -274.4499 
   6   2.0000     -10.077400      -274.2200 
   7   2.0000     -10.051971      -273.5280 
   8   2.0000     -10.030257      -272.9372 
   9   2.0000     -10.030226      -272.9363 
  10   2.0000     -10.026274      -272.8288 
  11   2.0000     -10.025192      -272.7993 
  12   2.0000     -10.019501      -272.6445 
  13   2.0000      -1.277037       -34.7499 
  14   2.0000      -1.188076       -32.3292 
  15   2.0000      -1.185496       -32.2590 
  16   2.0000      -0.928208       -25.2578 
  17   2.0000      -0.817945       -22.2574 
  18   2.0000      -0.745458       -20.2849 
  19   2.0000      -0.717475       -19.5235 
  20   2.0000      -0.706395       -19.2220 
  21   2.0000      -0.656728       -17.8705 
  22   2.0000      -0.627137       -17.0653 
  23   2.0000      -0.572662       -15.5829 
  24   2.0000      -0.562494       -15.3063 
  25   2.0000      -0.558228       -15.1902 
  26   2.0000      -0.550855       -14.9895 
  27   2.0000      -0.519141       -14.1265 
  28   2.0000      -0.493743       -13.4354 
  29   2.0000      -0.454209       -12.3596 
  30   2.0000      -0.446435       -12.1481 
  31   2.0000      -0.430827       -11.7234 
  32   2.0000      -0.429773       -11.6947 
  33   2.0000      -0.417151       -11.3513 
  34   2.0000      -0.411483       -11.1970 
  35   2.0000      -0.397246       -10.8096 
  36   2.0000      -0.393328       -10.7030 
  37   2.0000      -0.384395       -10.4599 
  38   2.0000      -0.383527       -10.4363 
  39   2.0000      -0.369461       -10.0535 
  40   2.0000      -0.362318        -9.8592 
  41   2.0000      -0.358726        -9.7614 
  42   2.0000      -0.347678        -9.4608 
  43   2.0000      -0.345328        -9.3968 
  44   2.0000      -0.322226        -8.7682 
  45   2.0000      -0.302329        -8.2268 
  46   2.0000      -0.269065        -7.3216 
  47   2.0000      -0.237217        -6.4550 
  48   2.0000      -0.178382        -4.8540 
  49   0.0000      -0.030718        -0.8359 
  50   0.0000      -0.014027        -0.3817 
  51   0.0000       0.069456         1.8900 
  52   0.0000       0.083520         2.2727 
  53   0.0000       0.095731         2.6050 
  54   0.0000       0.103303         2.8110 
  55   0.0000       0.117793         3.2053 
  56   0.0000       0.120387         3.2759 
  57   0.0000       0.124508         3.3880 
  58   0.0000       0.130497         3.5510 
  59   0.0000       0.139229         3.7886 
*Only the first 10 virtual orbitals were printed.

                    ********************************
                    * MULLIKEN POPULATION ANALYSIS *
                    ********************************

-----------------------
MULLIKEN ATOMIC CHARGES
-----------------------
   0 C :   -0.460835
   1 N :    0.214183
   2 C :   -0.447613
   3 C :    0.580688
   4 F :   -0.215166
   5 F :   -0.208752
   6 F :   -0.221963
   7 C :    0.177226
   8 C :   -0.324982
   9 C :   -0.192891
  10 C :   -0.238336
  11 C :   -0.210541
  12 C :   -0.315063
  13 H :    0.176548
  14 H :    0.175601
  15 H :    0.177173
  16 H :    0.225127
  17 H :    0.229526
  18 H :    0.174548
  19 H :    0.175684
  20 H :    0.175058
  21 H :    0.175774
  22 H :    0.179006
Sum of atomic charges:   -0.0000000

--------------------------------
MULLIKEN REDUCED ORBITAL CHARGES
--------------------------------
  0 C s       :     3.377148  s :     3.377148
      pz      :     1.103941  p :     3.045428
      px      :     1.124576
      py      :     0.816910
      dz2     :     0.006752  d :     0.038259
      dxz     :     0.003045
      dyz     :     0.012383
      dx2y2   :     0.011080
      dxy     :     0.004998

  1 N s       :     3.178731  s :     3.178731
      pz      :     1.635383  p :     3.464670
      px      :     0.910791
      py      :     0.918497
      dz2     :     0.012861  d :     0.142416
      dxz     :     0.024556
      dyz     :     0.018364
      dx2y2   :     0.040877
      dxy     :     0.045758

  2 C s       :     3.364990  s :     3.364990
      pz      :     0.995899  p :     3.034011
      px      :     0.953399
      py      :     1.084712
      dz2     :     0.006577  d :     0.048613
      dxz     :     0.017635
      dyz     :     0.005572
      dx2y2   :     0.008524
      dxy     :     0.010305

  3 C s       :     2.959752  s :     2.959752
      pz      :     0.867588  p :     2.307145
      px      :     0.767489
      py      :     0.672069
      dz2     :     0.029324  d :     0.152414
      dxz     :     0.032464
      dyz     :     0.026303
      dx2y2   :     0.027818
      dxy     :     0.036505

  4 F s       :     3.916191  s :     3.916191
      pz      :     1.918466  p :     5.289201
      px      :     1.656366
      py      :     1.714369
      dz2     :     0.002407  d :     0.009774
      dxz     :     0.001510
      dyz     :     0.000053
      dx2y2   :     0.000160
      dxy     :     0.005644

  5 F s       :     3.919211  s :     3.919211
      pz      :     1.590146  p :     5.278710
      px      :     1.807064
      py      :     1.881500
      dz2     :     0.001491  d :     0.010831
      dxz     :     0.005518
      dyz     :     0.001612
      dx2y2   :     0.000503
      dxy     :     0.001706

  6 F s       :     3.919605  s :     3.919605
      pz      :     1.894916  p :     5.290557
      px      :     1.826094
      py      :     1.569546
      dz2     :     0.002286  d :     0.011800
      dxz     :     0.001670
      dyz     :     0.000921
      dx2y2   :     0.002320
      dxy     :     0.004603

  7 C s       :     3.153423  s :     3.153423
      pz      :     0.930111  p :     2.605193
      px      :     0.839399
      py      :     0.835684
      dz2     :     0.006815  d :     0.064158
      dxz     :     0.014667
      dyz     :     0.007943
      dx2y2   :     0.017314
      dxy     :     0.017419

  8 C s       :     3.289007  s :     3.289007
      pz      :     1.060785  p :     3.000103
      px      :     0.894752
      py      :     1.044566
      dz2     :     0.003385  d :     0.035873
      dxz     :     0.006799
      dyz     :     0.003203
      dx2y2   :     0.011236
      dxy     :     0.011250

  9 C s       :     3.236326  s :     3.236326
      pz      :     0.974806  p :     2.917504
      px      :     0.986177
      py      :     0.956522
      dz2     :     0.004422  d :     0.039061
      dxz     :     0.005164
      dyz     :     0.005863
      dx2y2   :     0.010847
      dxy     :     0.012766

 10 C s       :     3.228616  s :     3.228616
      pz      :     1.040019  p :     2.972379
      px      :     1.006362
      py      :     0.925998
      dz2     :     0.003580  d :     0.037340
      dxz     :     0.004153
      dyz     :     0.005997
      dx2y2   :     0.011872
      dxy     :     0.011738

 11 C s       :     3.247304  s :     3.247304
      pz      :     0.995017  p :     2.924203
      px      :     0.909657
      py      :     1.019530
      dz2     :     0.003274  d :     0.039034
      dxz     :     0.008533
      dyz     :     0.003335
      dx2y2   :     0.012661
      dxy     :     0.011230

 12 C s       :     3.260831  s :     3.260831
      pz      :     1.052005  p :     3.018249
      px      :     1.009238
      py      :     0.957006
      dz2     :     0.003983  d :     0.035984
      dxz     :     0.004591
      dyz     :     0.005280
      dx2y2   :     0.011022
      dxy     :     0.011108

 13 H s       :     0.805277  s :     0.805277
      pz      :     0.007980  p :     0.018174
      px      :     0.005173
      py      :     0.005022

 14 H s       :     0.805891  s :     0.805891
      pz      :     0.003851  p :     0.018508
      px      :     0.011462
      py      :     0.003196

 15 H s       :     0.804990  s :     0.804990
      pz      :     0.009507  p :     0.017837
      px      :     0.004743
      py      :     0.003587

 16 H s       :     0.757203  s :     0.757203
      pz      :     0.007898  p :     0.017670
      px      :     0.005709
      py      :     0.004063

 17 H s       :     0.752267  s :     0.752267
      pz      :     0.003991  p :     0.018207
      px      :     0.003327
      py      :     0.010888

 18 H s       :     0.804873  s :     0.804873
      pz      :     0.005450  p :     0.020578
      px      :     0.003274
      py      :     0.011854

 19 H s       :     0.804852  s :     0.804852
      pz      :     0.003948  p :     0.019464
      px      :     0.009117
      py      :     0.006399

 20 H s       :     0.805177  s :     0.805177
      pz      :     0.004806  p :     0.019765
      px      :     0.010571
      py      :     0.004389

 21 H s       :     0.804766  s :     0.804766
      pz      :     0.004820  p :     0.019460
      px      :     0.003154
      py      :     0.011486

 22 H s       :     0.800532  s :     0.800532
      pz      :     0.004600  p :     0.020462
      px      :     0.009076
      py      :     0.006787


------------------------
MULLIKEN OVERLAP CHARGES
------------------------
B(  0-C ,  1-N ) :   0.4953 B(  0-C ,  2-C ) :  -0.1082 B(  0-C ,  7-C ) :  -0.1760 
B(  0-C , 13-H ) :   0.8006 B(  0-C , 14-H ) :   0.7642 B(  0-C , 15-H ) :   0.8432 
B(  1-N ,  2-C ) :   0.3306 B(  1-N ,  3-C ) :  -0.0922 B(  1-N ,  7-C ) :   0.7720 
B(  1-N ,  8-C ) :  -0.1344 B(  1-N , 12-C ) :  -0.1063 B(  1-N , 13-H ) :  -0.0620 
B(  1-N , 15-H ) :  -0.1173 B(  1-N , 17-H ) :  -0.0568 B(  2-C ,  3-C ) :   0.6690 
B(  2-C ,  4-F ) :  -0.2022 B(  2-C ,  5-F ) :  -0.2244 B(  2-C ,  6-F ) :  -0.1639 
B(  2-C ,  7-C ) :  -0.1952 B(  2-C ,  8-C ) :   0.0555 B(  2-C , 16-H ) :   0.7498 
B(  2-C , 17-H ) :   0.8001 B(  3-C ,  4-F ) :   0.5660 B(  3-C ,  5-F ) :   0.5749 
B(  3-C ,  6-F ) :   0.5573 B(  3-C , 17-H ) :  -0.0510 B(  4-F ,  5-F ) :  -0.1366 
B(  4-F ,  6-F ) :  -0.1415 B(  5-F ,  6-F ) :  -0.1449 B(  7-C ,  8-C ) :   0.6337 
B(  7-C , 10-C ) :  -0.1005 B(  7-C , 12-C ) :   0.7170 B(  7-C , 18-H ) :  -0.0842 
B(  7-C , 22-H ) :  -0.0826 B(  8-C ,  9-C ) :   0.7466 B(  8-C , 10-C ) :  -0.1347 
B(  8-C , 11-C ) :  -0.1328 B(  8-C , 12-C ) :  -0.2628 B(  8-C , 18-H ) :   0.8291 
B(  8-C , 19-H ) :  -0.0754 B(  9-C , 10-C ) :   0.8537 B(  9-C , 11-C ) :  -0.1211 
B(  9-C , 12-C ) :  -0.1129 B(  9-C , 18-H ) :  -0.0558 B(  9-C , 19-H ) :   0.8426 
B(  9-C , 20-H ) :  -0.0802 B( 10-C , 11-C ) :   0.8453 B( 10-C , 12-C ) :  -0.1407 
B( 10-C , 19-H ) :  -0.0787 B( 10-C , 20-H ) :   0.8436 B( 10-C , 21-H ) :  -0.0762 
B( 11-C , 12-C ) :   0.6906 B( 11-C , 20-H ) :  -0.0815 B( 11-C , 21-H ) :   0.8383 
B( 12-C , 21-H ) :  -0.0715 B( 12-C , 22-H ) :   0.8003 B( 13-H , 15-H ) :  -0.0622 



                     *******************************
                     * LOEWDIN POPULATION ANALYSIS *
                     *******************************

----------------------
LOEWDIN ATOMIC CHARGES
----------------------
   0 C :   -0.114595
   1 N :   -0.883669
   2 C :    0.007998
   3 C :    0.519166
   4 F :   -0.225475
   5 F :   -0.210166
   6 F :   -0.219571
   7 C :    0.147012
   8 C :   -0.172986
   9 C :   -0.168655
  10 C :   -0.223376
  11 C :   -0.169231
  12 C :   -0.176616
  13 H :    0.185411
  14 H :    0.192274
  15 H :    0.175157
  16 H :    0.220576
  17 H :    0.219521
  18 H :    0.185429
  19 H :    0.176975
  20 H :    0.173827
  21 H :    0.177158
  22 H :    0.183836

-------------------------------
LOEWDIN REDUCED ORBITAL CHARGES
-------------------------------
  0 C s       :     2.878675  s :     2.878675
      pz      :     1.109017  p :     3.144381
      px      :     1.115395
      py      :     0.919969
      dz2     :     0.016102  d :     0.091539
      dxz     :     0.007644
      dyz     :     0.028989
      dx2y2   :     0.026318
      dxy     :     0.012486

  1 N s       :     3.079008  s :     3.079008
      pz      :     1.618887  p :     4.044398
      px      :     1.209965
      py      :     1.215546
      dz2     :     0.074688  d :     0.760263
      dxz     :     0.118234
      dyz     :     0.117452
      dx2y2   :     0.226126
      dxy     :     0.223764

  2 C s       :     2.840347  s :     2.840347
      pz      :     1.003461  p :     3.042808
      px      :     0.972440
      py      :     1.066907
      dz2     :     0.013900  d :     0.108848
      dxz     :     0.039467
      dyz     :     0.011582
      dx2y2   :     0.020516
      dxy     :     0.023383

  3 C s       :     2.707855  s :     2.707855
      pz      :     0.893337  p :     2.448586
      px      :     0.809358
      py      :     0.745891
      dz2     :     0.063161  d :     0.324393
      dxz     :     0.074117
      dyz     :     0.049424
      dx2y2   :     0.053200
      dxy     :     0.084491

  4 F s       :     3.740332  s :     3.740332
      pz      :     1.895497  p :     5.335856
      px      :     1.702409
      py      :     1.737950
      dz2     :     0.020101  d :     0.149286
      dxz     :     0.032394
      dyz     :     0.017901
      dx2y2   :     0.038215
      dxy     :     0.040675

  5 F s       :     3.735040  s :     3.735040
      pz      :     1.660264  p :     5.323509
      px      :     1.806813
      py      :     1.856432
      dz2     :     0.046035  d :     0.151618
      dxz     :     0.040087
      dyz     :     0.024885
      dx2y2   :     0.014968
      dxy     :     0.025643

  6 F s       :     3.738187  s :     3.738187
      pz      :     1.881626  p :     5.331664
      px      :     1.818238
      py      :     1.631799
      dz2     :     0.018145  d :     0.149720
      dxz     :     0.020115
      dyz     :     0.034020
      dx2y2   :     0.032124
      dxy     :     0.045317

  7 C s       :     2.771988  s :     2.771988
      pz      :     0.914437  p :     2.944110
      px      :     0.979818
      py      :     1.049855
      dz2     :     0.013228  d :     0.136890
      dxz     :     0.028782
      dyz     :     0.015449
      dx2y2   :     0.039587
      dxy     :     0.039843

  8 C s       :     2.887832  s :     2.887832
      pz      :     1.054904  p :     3.207769
      px      :     1.054426
      py      :     1.098439
      dz2     :     0.005543  d :     0.077385
      dxz     :     0.012876
      dyz     :     0.005964
      dx2y2   :     0.027287
      dxy     :     0.025715

  9 C s       :     2.904849  s :     2.904849
      pz      :     0.983823  p :     3.179064
      px      :     1.100519
      py      :     1.094722
      dz2     :     0.007789  d :     0.084742
      dxz     :     0.009912
      dyz     :     0.011250
      dx2y2   :     0.025418
      dxy     :     0.030374

 10 C s       :     2.904001  s :     2.904001
      pz      :     1.044072  p :     3.237545
      px      :     1.102024
      py      :     1.091449
      dz2     :     0.006221  d :     0.081831
      dxz     :     0.007692
      dyz     :     0.011626
      dx2y2   :     0.028231
      dxy     :     0.028061

 11 C s       :     2.904970  s :     2.904970
      pz      :     0.986168  p :     3.179578
      px      :     1.097457
      py      :     1.095953
      dz2     :     0.005651  d :     0.084683
      dxz     :     0.016573
      dyz     :     0.006025
      dx2y2   :     0.030294
      dxy     :     0.026140

 12 C s       :     2.889052  s :     2.889052
      pz      :     1.047067  p :     3.210017
      px      :     1.105543
      py      :     1.057407
      dz2     :     0.006872  d :     0.077546
      dxz     :     0.008629
      dyz     :     0.009622
      dx2y2   :     0.025302
      dxy     :     0.027121

 13 H s       :     0.773228  s :     0.773228
      pz      :     0.019477  p :     0.041360
      px      :     0.011762
      py      :     0.010121

 14 H s       :     0.765907  s :     0.765907
      pz      :     0.008219  p :     0.041819
      px      :     0.027336
      py      :     0.006263

 15 H s       :     0.783830  s :     0.783830
      pz      :     0.023044  p :     0.041012
      px      :     0.010899
      py      :     0.007069

 16 H s       :     0.737291  s :     0.737291
      pz      :     0.019250  p :     0.042133
      px      :     0.012793
      py      :     0.010090

 17 H s       :     0.737146  s :     0.737146
      pz      :     0.009383  p :     0.043333
      px      :     0.008112
      py      :     0.025837

 18 H s       :     0.767016  s :     0.767016
      pz      :     0.012637  p :     0.047555
      px      :     0.007041
      py      :     0.027877

 19 H s       :     0.777870  s :     0.777870
      pz      :     0.008717  p :     0.045155
      px      :     0.021384
      py      :     0.015054

 20 H s       :     0.779996  s :     0.779996
      pz      :     0.011001  p :     0.046178
      px      :     0.025011
      py      :     0.010166

 21 H s       :     0.777684  s :     0.777684
      pz      :     0.010819  p :     0.045158
      px      :     0.007090
      py      :     0.027249

 22 H s       :     0.768758  s :     0.768758
      pz      :     0.010477  p :     0.047407
      px      :     0.021212
      py      :     0.015718


---------------------------------
LOEWDIN BOND ORDERS (THRESH 0.050000)
---------------------------------
B(  0-C ,  1-N ) :   1.3385 B(  0-C ,  2-C ) :   0.0762 B(  0-C ,  7-C ) :   0.0747 
B(  0-C , 13-H ) :   0.8465 B(  0-C , 14-H ) :   0.8417 B(  0-C , 15-H ) :   0.8519 
B(  1-N ,  2-C ) :   1.3256 B(  1-N ,  3-C ) :   0.1470 B(  1-N ,  7-C ) :   1.4177 
B(  1-N ,  8-C ) :   0.2162 B(  1-N , 12-C ) :   0.2097 B(  1-N , 13-H ) :   0.0978 
B(  1-N , 14-H ) :   0.0992 B(  1-N , 15-H ) :   0.1035 B(  1-N , 16-H ) :   0.0936 
B(  1-N , 17-H ) :   0.0887 B(  2-C ,  3-C ) :   0.8665 B(  2-C ,  4-F ) :   0.1152 
B(  2-C ,  5-F ) :   0.1073 B(  2-C ,  6-F ) :   0.1106 B(  2-C ,  7-C ) :   0.0761 
B(  2-C , 16-H ) :   0.7894 B(  2-C , 17-H ) :   0.7878 B(  3-C ,  4-F ) :   1.2731 
B(  3-C ,  5-F ) :   1.2811 B(  3-C ,  6-F ) :   1.2724 B(  4-F ,  5-F ) :   0.2286 
B(  4-F ,  6-F ) :   0.2298 B(  5-F ,  6-F ) :   0.2328 B(  7-C ,  8-C ) :   1.2726 
B(  7-C ,  9-C ) :   0.0890 B(  7-C , 10-C ) :   0.0972 B(  7-C , 11-C ) :   0.0895 
B(  7-C , 12-C ) :   1.2758 B(  8-C ,  9-C ) :   1.5311 B(  8-C , 10-C ) :   0.0938 
B(  8-C , 11-C ) :   0.1208 B(  8-C , 12-C ) :   0.0834 B(  8-C , 18-H ) :   0.8520 
B(  8-C , 19-H ) :   0.0561 B(  9-C , 10-C ) :   1.4961 B(  9-C , 11-C ) :   0.0892 
B(  9-C , 12-C ) :   0.1222 B(  9-C , 18-H ) :   0.0542 B(  9-C , 19-H ) :   0.8685 
B(  9-C , 20-H ) :   0.0543 B( 10-C , 11-C ) :   1.4932 B( 10-C , 12-C ) :   0.0940 
B( 10-C , 19-H ) :   0.0535 B( 10-C , 20-H ) :   0.8729 B( 10-C , 21-H ) :   0.0534 
B( 11-C , 12-C ) :   1.5334 B( 11-C , 20-H ) :   0.0544 B( 11-C , 21-H ) :   0.8683 
B( 11-C , 22-H ) :   0.0546 B( 12-C , 21-H ) :   0.0562 B( 12-C , 22-H ) :   0.8517 


------------------------------------------
LOEWDIN REDUCED ORBITAL POPULATIONS PER MO
-------------------------------------------
THRESHOLD FOR PRINTING IS 0.1%%
                      0         1         2         3         4         5   
                 -24.51995 -24.51833 -24.51742 -14.18868 -10.27784 -10.08585
                   2.00000   2.00000   2.00000   2.00000   2.00000   2.00000
                  --------  --------  --------  --------  --------  --------
 1 N  s               0.0       0.0       0.0      99.8       0.0       0.0
 1 N  dxy             0.0       0.0       0.0       0.0       0.0       0.2
 2 C  s               0.0       0.0       0.0       0.0       0.0      99.4
 3 C  s               0.0       0.0       0.0       0.0      98.5       0.0
 4 F  s               0.0       0.0     100.0       0.0       0.0       0.0
 4 F  dxy             0.0       0.0       0.0       0.0       0.2       0.0
 5 F  s             100.0       0.0       0.0       0.0       0.0       0.0
 5 F  dxz             0.0       0.0       0.0       0.0       0.2       0.0
 6 F  s               0.0     100.0       0.0       0.0       0.0       0.0
 6 F  dxy             0.0       0.0       0.0       0.0       0.2       0.0

                      6         7         8         9        10        11   
                 -10.07740 -10.05197 -10.03026 -10.03023 -10.02627 -10.02519
                   2.00000   2.00000   2.00000   2.00000   2.00000   2.00000
                  --------  --------  --------  --------  --------  --------
 0 C  s               0.0      99.4       0.0       0.0       0.0       0.0
 1 N  py              0.0       0.1       0.0       0.0       0.0       0.0
 1 N  dx2y2           0.1       0.2       0.0       0.0       0.0       0.0
 1 N  dxy             0.1       0.0       0.0       0.0       0.0       0.0
 7 C  s              99.2       0.0       0.0       0.0       0.0       0.0
 7 C  py              0.0       0.0       0.0       0.0       0.1       0.0
 8 C  s               0.0       0.0       0.0       0.2       0.0      99.4
 8 C  px              0.1       0.0       0.0       0.1       0.0       0.0
 9 C  s               0.0       0.0       0.4      98.9       0.0       0.3
 9 C  px              0.0       0.0       0.0       0.0       0.0       0.1
10 C  py              0.0       0.0       0.0       0.1       0.0       0.0
11 C  s               0.0       0.0      98.8       0.4       0.4       0.0
11 C  px              0.0       0.0       0.0       0.0       0.1       0.0
12 C  s               0.0       0.0       0.4       0.0      99.2       0.0
12 C  px              0.0       0.0       0.1       0.0       0.0       0.0
12 C  py              0.1       0.0       0.0       0.0       0.0       0.0

                     12        13        14        15        16        17   
                 -10.01950  -1.27704  -1.18808  -1.18550  -0.92821  -0.81794
                   2.00000   2.00000   2.00000   2.00000   2.00000   2.00000
                  --------  --------  --------  --------  --------  --------
 0 C  s               0.0       0.0       0.0       0.0       6.6       0.7
 0 C  pz              0.0       0.0       0.0       0.0       0.1       0.0
 0 C  px              0.0       0.0       0.0       0.0       0.1       0.2
 0 C  py              0.0       0.0       0.0       0.0       5.1       0.3
 0 C  dx2y2           0.0       0.0       0.0       0.0       0.2       0.0
 1 N  s               0.0       0.0       0.0       0.0      40.6       1.6
 1 N  pz              0.0       0.0       0.0       0.0       0.0       0.2
 1 N  px              0.0       0.1       0.0       0.0       0.0       2.8
 1 N  py              0.0       0.0       0.0       0.0       0.1       0.2
 1 N  dz2             0.0       0.0       0.0       0.0       0.8       0.0
 1 N  dxz             0.0       0.0       0.0       0.0       0.1       0.1
 1 N  dx2y2           0.0       0.0       0.0       0.0       0.0       0.2
 1 N  dxy             0.0       0.0       0.0       0.0       0.0       0.4
 2 C  s               0.0       0.9       0.0       0.0       8.8       2.0
 2 C  pz              0.0       1.5       0.0       0.0       0.2       0.0
 2 C  px              0.0       0.8       0.1       0.0       3.8       0.1
 2 C  py              0.0       0.0       0.0       0.2       1.9       0.3
 2 C  dxy             0.0       0.0       0.0       0.0       0.2       0.0
 3 C  s               0.0      16.5       0.0       0.0       0.4       0.2
 3 C  pz              0.0       2.6       3.8       1.6       1.1       0.4
 3 C  px              0.0       1.1       8.7       1.7       1.0       0.2
 3 C  py              0.0       0.0       3.2      12.3       0.1       0.0
 3 C  dz2             0.0       0.0       0.9       0.1       0.0       0.0
 3 C  dxz             0.0       0.2       0.6       0.0       0.0       0.0
 3 C  dyz             0.0       0.0       0.5       0.0       0.0       0.0
 3 C  dx2y2           0.0       0.0       0.2       0.2       0.0       0.0
 3 C  dxy             0.0       0.0       0.0       1.9       0.0       0.0
 4 F  s               0.0      21.1       6.3      48.3       0.0       0.0
 4 F  pz              0.0       0.1       0.0       0.0       0.0       0.0
 4 F  px              0.0       1.0       0.1       0.5       0.0       0.0
 4 F  py              0.0       0.9       0.1       0.3       0.0       0.0
 4 F  dz2             0.0       0.1       0.0       0.0       0.0       0.0
 4 F  dxz             0.0       0.1       0.1       0.0       0.0       0.0
 4 F  dx2y2           0.0       0.0       0.3       0.1       0.0       0.0
 4 F  dxy             0.0       0.3       0.0       0.0       0.0       0.0
 5 F  s               0.0      23.9      49.7       1.5       0.1       0.0
 5 F  pz              0.0       1.2       0.6       0.0       0.1       0.0
 5 F  px              0.0       0.8       0.2       0.0       0.0       0.0
 5 F  py              0.0       0.2       0.1       0.1       0.0       0.0
 5 F  dxz             0.0       0.5       0.0       0.1       0.0       0.0
 5 F  dyz             0.0       0.1       0.0       0.1       0.0       0.0
 5 F  dxy             0.0       0.1       0.0       0.2       0.0       0.0
 6 F  s               0.0      22.5      23.3      29.7       0.1       0.1
 6 F  px              0.0       0.3       0.1       0.2       0.0       0.0
 6 F  py              0.0       1.7       0.3       0.3       0.0       0.0
 6 F  dz2             0.0       0.2       0.0       0.0       0.0       0.0
 6 F  dyz             0.0       0.0       0.1       0.0       0.0       0.0
 6 F  dx2y2           0.0       0.2       0.0       0.1       0.0       0.0
 6 F  dxy             0.0       0.2       0.2       0.1       0.0       0.0
 7 C  s               0.0       0.0       0.0       0.0      10.7       6.9
 7 C  pz              0.0       0.0       0.0       0.0       0.3       0.3
 7 C  px              0.0       0.0       0.0       0.0       4.5       5.0
 7 C  py              0.0       0.0       0.0       0.0       0.7       0.7
 7 C  dz2             0.0       0.0       0.0       0.0       0.1       0.1
 7 C  dx2y2           0.0       0.0       0.0       0.0       0.1       0.0
 7 C  dxy             0.0       0.0       0.0       0.0       0.1       0.0
 8 C  s               0.0       0.0       0.0       0.0       1.6      10.5
 8 C  pz              0.0       0.0       0.0       0.0       0.0       0.3
 8 C  px              0.0       0.0       0.0       0.0       1.3       0.2
 8 C  py              0.0       0.0       0.0       0.0       0.3       2.2
 9 C  s               0.1       0.0       0.0       0.0       0.2      11.9
 9 C  px              0.0       0.0       0.0       0.0       0.2       1.6
 9 C  py              0.1       0.0       0.0       0.0       0.0       1.0
10 C  s              99.5       0.0       0.0       0.0       0.1      11.8
10 C  pz              0.0       0.0       0.0       0.0       0.0       0.1
10 C  px              0.0       0.0       0.0       0.0       0.1       2.3
10 C  py              0.0       0.0       0.0       0.0       0.0       0.4
11 C  s               0.1       0.0       0.0       0.0       0.2      11.9
11 C  pz              0.0       0.0       0.0       0.0       0.0       0.2
11 C  px              0.1       0.0       0.0       0.0       0.1       0.0
11 C  py              0.0       0.0       0.0       0.0       0.1       2.4
12 C  s               0.0       0.0       0.0       0.0       1.6      10.3
12 C  pz              0.0       0.0       0.0       0.0       0.2       0.0
12 C  px              0.0       0.0       0.0       0.0       0.1       2.3
12 C  py              0.0       0.0       0.0       0.0       1.3       0.5
13 H  s               0.0       0.0       0.0       0.0       0.5       0.0
14 H  s               0.0       0.0       0.0       0.0       0.5       0.1
15 H  s               0.0       0.0       0.0       0.0       0.5       0.1
16 H  s               0.0       0.0       0.0       0.0       0.7       0.3
17 H  s               0.0       0.0       0.0       0.0       0.7       0.2
18 H  s               0.0       0.0       0.0       0.0       0.1       0.9
19 H  s               0.0       0.0       0.0       0.0       0.0       1.1
20 H  s               0.0       0.0       0.0       0.0       0.0       1.1
21 H  s               0.0       0.0       0.0       0.0       0.0       1.1
22 H  s               0.0       0.0       0.0       0.0       0.1       0.9

                     18        19        20        21        22        23   
                  -0.74546  -0.71747  -0.70640  -0.65673  -0.62714  -0.57266
                   2.00000   2.00000   2.00000   2.00000   2.00000   2.00000
                  --------  --------  --------  --------  --------  --------
 0 C  s               2.1       5.5       7.2      11.8       4.6       0.4
 0 C  px              0.7       0.0       0.1       0.1       0.6       0.6
 0 C  py              0.1       0.1       0.2       0.8       0.8       0.1
 1 N  s               0.9       0.1       0.9       1.7       2.9       0.1
 1 N  pz              0.1       0.4       0.3       0.0       0.6       0.0
 1 N  px              9.0       1.6       1.2       0.3       5.8       2.0
 1 N  py              3.3       5.2       4.9       9.5       1.0       0.1
 1 N  dz2             0.0       0.0       0.0       0.2       0.4       0.0
 1 N  dyz             0.0       0.0       0.0       0.1       0.0       0.1
 1 N  dx2y2           0.1       0.2       1.8       0.4       0.1       1.2
 1 N  dxy             1.6       0.3       0.1       0.2       0.1       0.8
 2 C  s              17.2       0.0       1.1       1.4       4.5       0.5
 2 C  pz              0.7       0.0       0.3       0.7       0.6       0.0
 2 C  px              1.4       0.2       0.4       3.2       1.2       2.3
 2 C  py              0.3       0.6       1.1       0.2       0.0       0.5
 3 C  s               6.5       0.0       1.7       5.8       1.8       0.1
 3 C  pz              5.8       0.0       0.6       0.1       3.7       3.3
 3 C  px              2.6       0.0       0.2       0.1       1.0       0.0
 3 C  py              0.0       0.0       0.0       0.0       0.0       0.1
 3 C  dxz             0.1       0.0       0.0       0.0       0.0       0.0
 4 F  s               1.7       0.0       0.6       2.8       1.0       0.1
 4 F  pz              0.1       0.0       0.0       0.3       1.6       1.1
 4 F  px              2.1       0.0       0.9       4.8       1.7       0.6
 4 F  py              1.0       0.0       0.5       4.3       2.5       0.2
 4 F  dz2             0.1       0.0       0.0       0.1       0.0       0.0
 4 F  dxz             0.1       0.0       0.0       0.0       0.2       0.1
 4 F  dyz             0.0       0.0       0.0       0.0       0.1       0.1
 4 F  dxy             0.4       0.0       0.1       0.4       0.1       0.0
 5 F  s               1.5       0.0       0.5       2.4       1.9       0.7
 5 F  pz              2.6       0.0       1.0       5.0       3.4       1.5
 5 F  px              0.1       0.0       0.1       2.9       4.4       1.5
 5 F  py              0.2       0.0       0.1       0.7       0.9       1.0
 5 F  dz2             0.4       0.0       0.1       0.1       0.0       0.0
 5 F  dxz             0.0       0.0       0.0       0.3       0.3       0.0
 6 F  s               1.5       0.0       0.4       2.8       1.3       0.1
 6 F  pz              0.7       0.0       0.1       0.4       0.1       0.6
 6 F  px              0.9       0.0       0.2       1.6       0.5       0.4
 6 F  py              1.3       0.0       0.7       7.1       6.6       0.9
 6 F  dz2             0.0       0.0       0.0       0.1       0.1       0.0
 6 F  dxz             0.2       0.0       0.0       0.0       0.0       0.0
 6 F  dyz             0.2       0.0       0.0       0.0       0.0       0.1
 6 F  dx2y2           0.0       0.0       0.0       0.2       0.2       0.0
 6 F  dxy             0.2       0.0       0.1       0.2       0.1       0.0
 7 C  s               3.4       4.6       4.6       0.1       0.4       0.4
 7 C  pz              0.1       0.4       0.1       0.1       0.4       0.8
 7 C  px              0.1       0.8       1.7       2.5       5.7       1.3
 7 C  py              2.3       6.8       0.8       0.1       1.1      10.2
 7 C  dx2y2           0.0       0.1       0.0       0.1       0.1       0.1
 7 C  dxy             0.0       0.0       0.2       0.0       0.1       0.1
 8 C  s               1.3       4.0      12.0       0.6       2.8       2.9
 8 C  pz              0.0       0.0       0.0       0.0       0.0       0.3
 8 C  px              1.9       5.3       0.0       1.2       0.3       7.1
 8 C  py              0.1       0.2       0.2       0.1       0.1       0.5
 8 C  dxy             0.0       0.1       0.0       0.0       0.0       0.1
 9 C  s               0.6      15.9       1.5       1.4       0.0       7.3
 9 C  pz              0.2       0.0       0.6       0.1       0.4       0.0
 9 C  px              0.3       0.1       2.1       0.6       1.7       2.2
 9 C  py              1.0       0.1       3.6       0.4       2.5       0.2
 9 C  dx2y2           0.0       0.0       0.1       0.0       0.1       0.0
10 C  s               4.0       5.5       6.2       2.0       5.4       0.6
10 C  pz              0.0       0.3       0.2       0.0       0.0       0.7
10 C  px              0.3       0.6       0.9       0.3       0.4       1.0
10 C  py              0.1       3.9       3.0       0.4       0.1       9.0
10 C  dx2y2           0.0       0.1       0.0       0.0       0.0       0.1
10 C  dxy             0.0       0.0       0.1       0.0       0.0       0.1
11 C  s               3.7       2.0      13.5       0.3       0.0       4.1
11 C  pz              0.0       0.1       0.0       0.0       0.1       0.3
11 C  px              0.3       6.4       0.3       1.5       4.7       5.6
11 C  py              0.2       0.1       0.2       0.0       0.0       0.6
11 C  dxy             0.0       0.1       0.0       0.0       0.1       0.1
12 C  s               0.3      15.1       1.1       1.4       2.9       6.5
12 C  pz              0.1       0.0       0.7       0.0       0.0       0.1
12 C  px              0.5       0.2       2.5       0.4       0.2       3.0
12 C  py              0.9       0.2       3.5       0.0       0.1       0.1
12 C  dx2y2           0.0       0.0       0.1       0.0       0.0       0.0
13 H  s               0.5       1.0       1.2       3.3       1.1       0.0
13 H  pz              0.0       0.0       0.1       0.2       0.1       0.0
14 H  s               0.2       1.2       1.6       2.7       2.3       0.4
14 H  px              0.0       0.1       0.1       0.2       0.1       0.0
15 H  s               0.4       1.0       1.3       3.0       1.3       0.1
15 H  pz              0.0       0.1       0.1       0.2       0.1       0.0
16 H  s               3.2       0.0       0.1       0.2       2.4       0.5
16 H  pz              0.2       0.0       0.0       0.0       0.1       0.0
17 H  s               3.2       0.1       0.4       0.6       1.3       0.2
17 H  py              0.3       0.0       0.0       0.1       0.1       0.0
18 H  s               0.3       0.8       1.9       0.3       0.8       1.6
18 H  py              0.0       0.1       0.2       0.0       0.0       0.1
19 H  s               0.1       2.7       0.3       0.4       0.0       3.8
19 H  px              0.0       0.2       0.0       0.0       0.0       0.2
19 H  py              0.0       0.1       0.0       0.0       0.0       0.1
20 H  s               0.5       0.9       1.1       0.5       1.7       0.3
20 H  px              0.0       0.1       0.1       0.0       0.1       0.0
21 H  s               0.5       0.4       2.4       0.1       0.0       2.1
21 H  py              0.0       0.0       0.2       0.0       0.0       0.2
22 H  s               0.1       2.8       0.2       0.1       0.9       3.3
22 H  px              0.0       0.2       0.0       0.0       0.0       0.1
22 H  py              0.0       0.1       0.0       0.0       0.0       0.1

                     24        25        26        27        28        29   
                  -0.56249  -0.55823  -0.55086  -0.51914  -0.49374  -0.45421
                   2.00000   2.00000   2.00000   2.00000   2.00000   2.00000
                  --------  --------  --------  --------  --------  --------
 0 C  s               1.6       0.0       1.0       0.1       1.2       0.4
 0 C  pz              0.0       0.0       0.1       0.8       0.7       0.2
 0 C  px              0.1       0.0       0.0       1.3       1.2       2.9
 0 C  py              1.6       0.0       1.7       0.1       7.1       6.7
 0 C  dx2y2           0.0       0.0       0.1       0.0       0.1       0.1
 1 N  s               0.8       0.0       1.7       0.3       1.6       0.0
 1 N  pz              0.1       0.0       1.3       3.3       0.7       2.2
 1 N  px              3.2       0.1       1.1       5.5       3.9       5.0
 1 N  py              0.0       0.0       0.0       0.4       3.7       9.7
 1 N  dz2             0.1       0.0       0.1       0.1       0.3       0.0
 1 N  dxz             0.1       0.1       0.0       0.6       0.2       0.1
 1 N  dyz             0.1       0.0       0.1       0.1       0.0       0.2
 1 N  dx2y2           0.5       0.0       0.0       0.1       0.8       0.7
 1 N  dxy             0.2       0.2       0.1       0.1       0.5       0.6
 2 C  s               0.1       0.0       0.0       1.8       2.1       0.4
 2 C  pz              0.0       0.4       1.8       7.1       5.0       6.5
 2 C  px              1.2       0.8       1.8       1.1       0.3       8.0
 2 C  py              3.7       0.7       0.2       0.6       7.8       0.8
 2 C  dz2             0.0       0.0       0.1       0.1       0.0       0.0
 2 C  dxz             0.0       0.0       0.0       0.1       0.0       0.0
[...]
 5 F  s              48.5      19.3      17.8       7.8       0.0       0.0
 5 F  pz              7.8       3.0       9.1       3.3       0.0       0.0
 5 F  px              5.9       2.4       3.7       1.0       0.0       0.0
 5 F  py              0.7       0.8       0.4       2.4       0.0       0.0
 5 F  dz2             0.8       0.1       2.1       0.8       0.0       0.0
 5 F  dxz             4.7       1.3       5.3       1.2       0.0       0.0
 5 F  dyz             0.5       0.2       1.3       1.1       0.0       0.0
 5 F  dx2y2           0.2       0.0       0.5       0.0       0.0       0.0
 5 F  dxy             0.5       0.1       0.1       1.5       0.0       0.0
 6 F  s              10.5      20.0      17.1       5.6       0.0       0.0
 6 F  pz              0.3       0.1       1.3       0.0       0.0       0.0
 6 F  px              0.1       0.9       1.6       2.9       0.0       0.0
 6 F  py              0.4       6.5      10.7       2.6       0.0       0.0
 6 F  dz2             0.0       0.7       2.2       0.2       0.0       0.0
 6 F  dxz             0.2       0.1       0.4       0.0       0.0       0.0
 6 F  dyz             0.4       0.2       1.5       0.0       0.0       0.0
 6 F  dx2y2           0.4       0.7       2.8       0.3       0.0       0.0
 6 F  dxy             0.2       0.8       2.9       3.1       0.0       0.0
 7 C  s               0.2       0.0       0.0       0.1       5.0       0.2
 7 C  px              0.2       0.0       0.0       0.0       0.0       0.0
 7 C  py              0.2       0.0       0.0       0.0       0.0       0.1
 7 C  dx2y2           0.1       0.0       0.0       0.0       0.0       0.0
 8 C  s               0.1       0.0       0.0       0.0      14.5      17.9
 8 C  dx2y2           0.2       0.0       0.0       0.0       0.0       0.0
 9 C  s               0.0       0.0       0.0       0.0      21.8      28.6
 9 C  dxy             0.3       0.0       0.0       0.0       0.0       0.0
10 C  s               0.0       0.0       0.0       0.0      21.6       0.5
10 C  dx2y2           0.2       0.0       0.0       0.0       0.0       0.0
10 C  dxy             0.2       0.0       0.0       0.0       0.0       0.0
11 C  s               0.0       0.0       0.0       0.0      21.4      23.2
11 C  py              0.1       0.0       0.0       0.0       0.0       0.0
11 C  dx2y2           0.5       0.0       0.0       0.0       0.0       0.0
12 C  s               0.1       0.0       0.0       0.0      14.9      27.9
12 C  px              0.3       0.0       0.0       0.0       0.0       0.1
12 C  py              0.2       0.0       0.0       0.0       0.0       0.0
12 C  dxy             0.6       0.0       0.0       0.0       0.0       0.0
17 H  s               0.1       0.1       0.0       0.0       0.0       0.0
18 H  py              0.1       0.0       0.0       0.0       0.0       0.0
20 H  s               0.1       0.0       0.0       0.0       0.0       0.0
20 H  px              0.1       0.0       0.0       0.0       0.0       0.0
21 H  s               0.1       0.0       0.0       0.0       0.0       0.0
21 H  py              0.2       0.0       0.0       0.0       0.0       0.0
22 H  s               0.3       0.0       0.0       0.0       0.0       0.0
22 H  px              0.5       0.0       0.0       0.0       0.0       0.0
22 H  py              0.2       0.0       0.0       0.0       0.0       0.0

                    306       307       308       309       310       311   
                  22.01892  22.05998  22.12274  22.20770  22.24404  22.25743
                   0.00000   0.00000   0.00000   0.00000   0.00000   0.00000
                  --------  --------  --------  --------  --------  --------
 0 C  s               4.5       5.7      85.9       1.8       0.1       0.5
 1 N  s               0.0       0.0       0.3       0.0       0.1       0.2
 2 C  s              12.8       0.4       0.3      10.5      12.0      62.7
 3 C  s              63.0      23.1       0.3       3.7       1.1       7.5
 7 C  s               1.0       8.9       2.2       0.4      37.6      11.1
 8 C  s               7.2      15.3       4.1      18.3       4.0       3.9
 9 C  s               0.4       0.0       1.5      22.2       3.3      10.0
10 C  s               7.2      31.5       3.8       1.0      18.3       3.1
11 C  s               1.2       3.3       0.5      14.1      22.6       0.1
12 C  s               2.1      11.0       0.7      27.6       0.4       0.5

                    312       313       314       315       316   
                  22.36219  32.05153  57.21013  57.25354  57.28350
                   0.00000   0.00000   0.00000   0.00000   0.00000
                  --------  --------  --------  --------  --------
 0 C  s               0.1       0.0       0.0       0.0       0.0
 1 N  s               0.0      99.8       0.0       0.0       0.0
 3 C  s               0.6       0.0       0.1       0.0       0.0
 4 F  s               0.0       0.0      95.4       1.6       2.9
 5 F  s               0.0       0.0       1.6       8.8      89.5
 6 F  s               0.0       0.0       2.9      89.5       7.5
 7 C  s              32.5       0.1       0.0       0.0       0.0
 8 C  s              14.2       0.0       0.0       0.0       0.0
 9 C  s              11.9       0.0       0.0       0.0       0.0
10 C  s              12.8       0.0       0.0       0.0       0.0
11 C  s              13.2       0.0       0.0       0.0       0.0
12 C  s              14.4       0.0       0.0       0.0       0.0


                      *****************************
                      * MAYER POPULATION ANALYSIS *
                      *****************************

  NA   - Mulliken gross atomic population
  ZA   - Total nuclear charge
  QA   - Mulliken gross atomic charge
  VA   - Mayer's total valence
  BVA  - Mayer's bonded valence
  FA   - Mayer's free valence

  ATOM       NA         ZA         QA         VA         BVA        FA
  0 C      6.4608     6.0000    -0.4608     3.7885     3.7885     0.0000
  1 N      6.7858     7.0000     0.2142     3.0367     3.0367     0.0000
  2 C      6.4476     6.0000    -0.4476     3.7724     3.7724    -0.0000
  3 C      5.4193     6.0000     0.5807     4.0507     4.0507    -0.0000
  4 F      9.2152     9.0000    -0.2152     0.9613     0.9613     0.0000
  5 F      9.2088     9.0000    -0.2088     0.9738     0.9738     0.0000
  6 F      9.2220     9.0000    -0.2220     0.9702     0.9702    -0.0000
  7 C      5.8228     6.0000     0.1772     3.7056     3.7056     0.0000
  8 C      6.3250     6.0000    -0.3250     3.6879     3.6879    -0.0000
  9 C      6.1929     6.0000    -0.1929     3.7276     3.7276    -0.0000
 10 C      6.2383     6.0000    -0.2383     3.7333     3.7333    -0.0000
 11 C      6.2105     6.0000    -0.2105     3.7503     3.7503    -0.0000
 12 C      6.3151     6.0000    -0.3151     3.7215     3.7215     0.0000
 13 H      0.8235     1.0000     0.1765     0.9497     0.9497    -0.0000
 14 H      0.8244     1.0000     0.1756     0.9553     0.9553     0.0000
 15 H      0.8228     1.0000     0.1772     0.9462     0.9462    -0.0000
 16 H      0.7749     1.0000     0.2251     0.9356     0.9356    -0.0000
 17 H      0.7705     1.0000     0.2295     0.9356     0.9356    -0.0000
 18 H      0.8255     1.0000     0.1745     0.9614     0.9614     0.0000
 19 H      0.8243     1.0000     0.1757     0.9594     0.9594    -0.0000
 20 H      0.8249     1.0000     0.1751     0.9604     0.9604    -0.0000
 21 H      0.8242     1.0000     0.1758     0.9596     0.9596    -0.0000
 22 H      0.8210     1.0000     0.1790     0.9583     0.9583     0.0000

  Mayer bond orders larger than 0.100000
B(  0-C ,  1-N ) :   0.8798 B(  0-C , 13-H ) :   0.9503 B(  0-C , 14-H ) :   0.9429 
B(  0-C , 15-H ) :   0.9539 B(  1-N ,  2-C ) :   0.8875 B(  1-N ,  7-C ) :   1.2072 
B(  2-C ,  3-C ) :   0.9834 B(  2-C , 16-H ) :   0.9184 B(  2-C , 17-H ) :   0.9423 
B(  3-C ,  4-F ) :   1.0192 B(  3-C ,  5-F ) :   1.0315 B(  3-C ,  6-F ) :   1.0136 
B(  7-C ,  8-C ) :   1.2634 B(  7-C , 12-C ) :   1.2728 B(  8-C ,  9-C ) :   1.3848 
B(  8-C , 18-H ) :   0.9560 B(  9-C , 10-C ) :   1.3638 B(  9-C , 19-H ) :   0.9637 
B( 10-C , 11-C ) :   1.3630 B( 10-C , 20-H ) :   0.9616 B( 11-C , 12-C ) :   1.4008 
B( 11-C , 21-H ) :   0.9625 B( 12-C , 22-H ) :   0.9393 

-------
TIMINGS
-------

Total SCF time: 0 days 0 hours 0 min 57 sec 

Total time                  ....      57.851 sec
Sum of individual times     ....      57.122 sec  ( 98.7%)

SCF preparation             ....       0.377 sec  (  0.7%)
Fock matrix formation       ....      54.883 sec  ( 94.9%)
  Startup                   ....       0.065 sec  (  0.1% of F)
  Split-RI-J                ....      11.738 sec  ( 21.4% of F)
  XC integration            ....      30.783 sec  ( 56.1% of F)
    XC Preparation          ....       0.000 sec  (  0.0% of XC)
    Basis function eval.    ....       5.407 sec  ( 17.6% of XC)
    Density eval.           ....      10.201 sec  ( 33.1% of XC)
    XC-Functional eval.     ....       2.875 sec  (  9.3% of XC)
    XC-Potential eval.      ....      10.948 sec  ( 35.6% of XC)
  CPCM terms                ....      11.577 sec  ( 21.1% of F)
Diagonalization             ....       0.000 sec  (  0.0%)
Density matrix formation    ....       0.350 sec  (  0.6%)
Total Energy calculation    ....       0.058 sec  (  0.1%)
Population analysis         ....       0.210 sec  (  0.4%)
Orbital Transformation      ....       0.092 sec  (  0.2%)
Orbital Orthonormalization  ....       0.000 sec  (  0.0%)
DIIS solution               ....       1.022 sec  (  1.8%)
  MO trafo                  ....       0.000 sec  (  0.0 % of DIIS)
  Orb grad                  ....       0.000 sec  (  0.0 % of DIIS)
  Energy W gradient         ....       0.000 sec  (  0.0 % of DIIS)
  DIIS error                ....       0.031 sec  (  3.1 % of DIIS)
  DIIS work                 ....       0.921 sec  ( 90.1 % of DIIS)
  Form Q                    ....       0.000 sec  (  0.0 % of DIIS)
  Form QpQm                 ....       0.000 sec  (  0.0 % of DIIS)
  Exp/Cayley                ....       0.000 sec  (  0.0 % of DIIS)
  Orb update                ....       0.000 sec  (  0.0 % of DIIS)
  Wake-sleep                ....       0.027 sec  (  2.6 % of DIIS)
SOSCF solution              ....       0.131 sec  (  0.2%)
  MO trafo                  ....       0.073 sec  ( 56.0 % of SOSCF)
  Orb grad                  ....       0.001 sec  (  1.1 % of SOSCF)
  Rot update                ....       0.016 sec  ( 11.9 % of SOSCF)
  Step                      ....       0.041 sec  ( 30.9 % of SOSCF)
Finished LeanSCF after  58.0 sec

Maximum memory used throughout the entire LEANSCF-calculation: 47.2 MB


-------------------------------------------------------------------------------
                          DFT DISPERSION CORRECTION                            
                                                                               
                                DFTD4 V3.4.0                                   
-------------------------------------------------------------------------------
The R2SCAN3C composite method is recognized
Using three-body term ABC
Active option DFTDOPT                   ...         5   

-------------------------   ----------------
Dispersion correction           -0.008511200
-------------------------   ----------------

------------------   -----------------
gCP correction             0.018543162
------------------   -----------------

-------------------------   --------------------
FINAL SINGLE POINT ENERGY      -703.159012091377
-------------------------   --------------------


------------------------------------------------------------------------------
                              ORCA PROPERTY CALCULATIONS
------------------------------------------------------------------------------

GBWName                                 ... sp_solv.gbw
Number of atoms                         ...     23
Number of basis functions               ...    317
Max core memory                         ...   1024 MB

Electric properties:
Dipole moment                           ... YES
Quadrupole moment                       ...  NO
Static polarizability (Dipole/Dipole)   ...  NO
Static polarizability (Dipole/Quad.)    ...  NO
Static polarizability (Quad./Quad.)     ...  NO
Static polarizability (Velocity)        ...  NO

Atomic electric properties:
Dipole moment                           ...  NO
Quadrupole moment                       ...  NO
Static polarizability                   ...  NO

Choice of electric origin               ... Center of mass
Position of electric origin             ...     0.000039     0.000010    -0.000017

General magnetic properties:
Magnetizability                         ...  NO

EPR properties:
g-Tensor (aka g-matrix)                 ...  NO
Zero-Field splitting spin-orbit         ...  NO
Zero-field splitting spin-spin          ...  NO
Hyperfine couplings                     ...  NO (   0 nuclei)
Quadrupole couplings                    ...  NO (   0 nuclei)
Contact density                         ...  NO (   0 nuclei)

NMR properties:
Chemical shifts                         ...  NO (   0 nuclei)
Spin-rotation constants                 ...  NO (   0 nuclei)
Spin-spin couplings                     ...  NO (   0 nuclei,    0 pairs)

Choice of magnetic origin               ... GIAO
Position of magnetic origin             ...     0.000000     0.000000     0.000000

Properties with geometric perturbations:
SCF Hessian                             ...  NO
IR spectrum                             ...  NO
VCD spectrum                            ...  NO
X-ray spectroscopy properties:
SCF XES/XAS/RIXS spectra                ...  NO


-------------
DIPOLE MOMENT
-------------

Method             : SCF
Type of density    : Electron Density
Multiplicity       :   1
Irrep              :   0
Energy             :  -703.1690440540332929 Eh
Relativity type    : 
Basis              : AO
                                X                 Y                 Z
Electronic contribution:    -16.784498904      -4.219966600       6.295436529
Nuclear contribution   :     16.601668299       4.784686830      -7.407709636
                        -----------------------------------------
Total Dipole Moment    :     -0.182830605       0.564720230      -1.112273107
                        -----------------------------------------
Magnitude (a.u.)       :      1.260748759
Magnitude (Debye)      :      3.204568673



--------------------
Rotational spectrum 
--------------------
 
Rotational constants in cm-1:             0.054955             0.016005             0.013562 
Rotational constants in MHz :          1647.495887           479.805807           406.575435 

Dipole components along the rotational axes: 
x,y,z [a.u.] :    -0.110016     0.967489    -0.800843 
x,y,z [Debye]:    -0.279638     2.459162    -2.035580 

 

Dipole moment calculation done in   0.0 sec 

Maximum memory used throughout the entire PROP-calculation: 23.4 MB

--------------------------------
SUGGESTED CITATIONS FOR THIS RUN
--------------------------------

Below you find a list of papers that are relevant to this ORCA run
We neither can nor want to force you to cite these papers, but we appreciate if you do
You receive ORCA, which is the product of decades of hard work by many enthusiastic individuals, for free
The only thing we kindly ask in return is that you cite our papers,
We deeply appreciate it, if you show your appreciation for ORCA by not just citing the generic ORCA reference.

Please note that relegating all ORCA citations to the supporting information does *not* help us.
SI sections are not indexed - citations you put there will not count into any citation statistics
But we need these citations in order to attract the funding resources that allow us to do what we are doing

Therefore, if you are a happy ORCA user, please consider citing a few of the papers listed below in the main body of your paper

In addition to the list printed below, the program has created the file sp_solv.bibtex that contains the list in bibtex format
You can import this file easily into all common literature databanks and citation aid programs


List of essential papers. We consider these as the minimum necessary citations

  1. Neese,F.
     Software update: the ORCA program system, version 5.0
     WIRES Comput. Molec. Sci., 2022 12(1)e1606
     doi.org/10.1002/wcms.1606
  2. Grimme,S.; Hansen,A.; Ehlert,S.; Mewes,J.
     r2SCAN-3c: A 'Swiss army knife' composite electronic-structure method
     J. Chem. Phys., 2021 154 064103
     doi.org/10.1063/5.0040021

List of papers to cite with high priority. The work reported in these papers was absolutely
necessary for this run to complete.
Our perspective: the developers of density functionals and basis sets usually get cited in chemistry papers
Good! But without the algorithms to do something with them, the functionals or basis sets would not do anything.
Hence, in our opinion, the algorithm design and method developments papers are equally worthy of getting cited

  1. Neese,F.
     An improvement of the resolution of the identity approximation for the formation of the Coulomb matrix
     J. Comp. Chem., 2003 24(14)1740-1747
     doi.org/10.1002/jcc.10318
  2. Garcia-Rates,M.; Neese,F.
     Effect of the Solute Cavity on the Solvation Energy and its Derivatives within the Framework of the Gaussian Charge Scheme
     J. Comput. Chem., 2020 41 922-939
     doi.org/10.1002/jcc.26139
  3. Neese,F.
     The SHARK Integral Generation and Digestion System
     J. Comp. Chem., 2022  1-16
     doi.org/10.1002/jcc.26942
  4. Lehtola,S.; Steigemann,C.; Oliveira,M.; Marques,M.
     Recent developments in Libxc - A comprehensive library of functionals for density functional theory
     Software X, 2018 7 
     doi.org/10.1016/j.softx.2017.11.002
  5. Caldeweyher,E.; Bannwarth,C.; Grimme,S.
     Extension of the D3 dispersion coefficient model
     J. Chem. Phys., 2017 147 034112-XXXX
     doi.org/10.1063/1.4993215
  6. Caldeweyher,E.; Ehlert,S.; Hansen,A.; Neugebauer,H.; Spicher,S.; Bannwarth,C.; Grimme,S.
     A generally applicable atomic-charge dependent London dispersion correction
     J. Chem. Phys., 2019 150 154122-XXXX
     doi.org/10.1063/1.5090222
  7. Caldeweyher,E.; Mewes,J.; Ehlert,S.; Grimme,S.
     Extension and evaluation of the D4 London-dispersion model for periodic systems
     Phys. Chem. Chem. Phys., 2020 22(16)8499-8512
     doi.org/10.1039/D0CP00502A

List of suggested additional citations. These are papers that are important in the 'surrounding' of 
of this run, or papers that preceded the highly important papers. If you like your results we are grateful for a citation.

  1. Neese,F.
     The ORCA program system
     WIRES Comput. Molec. Sci., 2012 2(1)73-78
     doi.org/10.1002/wcms.81
  2. Neese,F.
     Software update: the ORCA program system, version 4.0
     WIRES Comput. Molec. Sci., 2018 8(1)1-6
     doi.org/10.1002/wcms.1327
  3. Neese,F.; Wennmohs,F.; Becker,U.; Riplinger,C.
     The ORCA quantum chemistry program package
     J. Chem. Phys., 2020 152 Art. No. L224108
     doi.org/10.1063/5.0004608

List of optional additional citations

  1. Neese,F.
     Approximate second-order SCF convergence for spin unrestricted wavefunctions
     Chem. Phys. Lett., 2000 325(1-3)93-98
     doi.org/10.1016/s0009-2614(00)00662-x

Timings for individual modules:

Sum of individual times          ...       60.362 sec (=   1.006 min)
Startup calculation              ...        1.828 sec (=   0.030 min)   3.0 %
SCF iterations                   ...       58.410 sec (=   0.974 min)  96.8 %
Property calculations            ...        0.124 sec (=   0.002 min)   0.2 %
                             ****ORCA TERMINATED NORMALLY****
TOTAL RUN TIME: 0 days 0 hours 1 minutes 1 seconds 241 msec
