 Entering Gaussian System
 *********************************************
 Gaussian 98:
 frequency output generated by the xtb code
 *********************************************
                         Standard orientation:
 --------------------------------------------------------------------
  Center     Atomic     Atomic              Coordinates (Angstroms)
  Number     Number      Type              X           Y           Z
 --------------------------------------------------------------------
    1          6             0       -2.414470   -0.053410    0.159878
    2          8             0       -1.174865    0.152842   -0.486311
    3          6             0       -0.068949   -0.108415    0.350210
    4          6             0        1.208359    0.144178   -0.444900
    5          8             0        2.308421   -0.125059    0.394927
    6          1             0       -2.513867   -1.092596    0.490769
    7          1             0       -3.180384    0.175882   -0.576251
    8          1             0       -2.518312    0.609276    1.025520
    9          1             0       -0.086903    0.546679    1.233192
   10          1             0       -0.083343   -1.151455    0.698108
   11          1             0        1.212640    1.187677   -0.782837
   12          1             0        1.210349   -0.510838   -1.324693
   13          1             0        3.128014    0.028799   -0.095524
 --------------------------------------------------------------------
     1 basis functions        1 primitive gaussians
     1 alpha electrons        1 beta electrons
 
 Harmonic frequencies (cm**-1), IR intensities (km*mol⁻¹),
 Raman scattering activities (A**4/amu), Raman depolarization ratios,
 reduced masses (AMU), force constants (mDyne/A) and normal coordinates:
                      1                      2                      3
                        a                      a                      a 
 Frequencies --    75.7664               100.5785               189.9727
 Red. masses --     9.2360                 8.7669                10.5063
 Frc consts  --     0.0000                 0.0000                 0.0000
 IR Inten    --     0.0608                22.7880                12.1158
 Raman Activ --     0.0000                 0.0000                 0.0000
 Depolar     --     0.0000                 0.0000                 0.0000
 Atom AN      X      Y      Z        X      Y      Z        X      Y      Z
   1   6    -0.00   0.30   0.10    -0.00   0.29   0.09     0.16  -0.11   0.37
   2   8    -0.00  -0.00  -0.00     0.00  -0.51  -0.16    -0.17   0.07  -0.22
   3   6     0.00  -0.53  -0.17    -0.00  -0.14  -0.04     0.03   0.13  -0.43
   4   6    -0.00  -0.22  -0.07    -0.00   0.39   0.12     0.17   0.07  -0.20
   5   8     0.00   0.43   0.14     0.00  -0.15  -0.05    -0.28  -0.11   0.36
   6   1    -0.10   0.08  -0.04    -0.05   0.17   0.28     0.14  -0.04   0.12
   7   1    -0.00   0.23   0.07     0.00  -0.05  -0.02    -0.07  -0.07   0.22
   8   1     0.10   0.04   0.08     0.05   0.30  -0.13     0.14  -0.04   0.12
   9   1     0.04  -0.27   0.04    -0.10  -0.07   0.01     0.03   0.03  -0.12
  10   1    -0.03  -0.20  -0.19     0.10  -0.05  -0.05     0.03   0.04  -0.12
  11   1    -0.11  -0.08  -0.07     0.00   0.17   0.22     0.13   0.02  -0.05
  12   1     0.11  -0.10   0.01    -0.00   0.27  -0.08     0.13   0.02  -0.05
  13   1     0.00   0.18   0.06    -0.00   0.05   0.02     0.01  -0.07   0.21
                      4                      5                      6
                        a                      a                      a 
 Frequencies --   222.7719               266.5682               414.6097
 Red. masses --     3.6968                 2.2143                12.8045
 Frc consts  --     0.0000                 0.0000                 0.0000
 IR Inten    --     2.5785               236.2868                 0.7619
 Raman Activ --     0.0000                 0.0000                 0.0000
 Depolar     --     0.0000                 0.0000                 0.0000
 Atom AN      X      Y      Z        X      Y      Z        X      Y      Z
   1   6     0.00  -0.07  -0.02    -0.00  -0.00  -0.00    -0.46  -0.01   0.04
   2   8    -0.00   0.37   0.11     0.00   0.00   0.00    -0.43  -0.01   0.03
   3   6     0.00  -0.16  -0.05     0.00  -0.09  -0.03    -0.03   0.06  -0.18
   4   6     0.00  -0.09  -0.03    -0.00   0.08   0.03     0.33  -0.02   0.08
   5   8    -0.00   0.01   0.01    -0.00   0.25   0.08     0.57  -0.02   0.06
   6   1     0.27   0.08   0.38     0.01   0.00   0.02    -0.15  -0.00   0.00
   7   1     0.00  -0.53  -0.16     0.00  -0.02  -0.01    -0.10   0.01  -0.02
   8   1    -0.27   0.28  -0.27    -0.01   0.01  -0.01    -0.15   0.00   0.00
   9   1     0.05  -0.14   0.06    -0.01  -0.08   0.03    -0.01   0.02  -0.05
  10   1    -0.05  -0.08  -0.13     0.01  -0.05  -0.07    -0.01   0.02  -0.05
  11   1    -0.03  -0.03  -0.01    -0.01   0.03   0.02     0.14  -0.01   0.02
  12   1     0.03  -0.03  -0.01     0.01   0.04   0.01     0.14  -0.01   0.02
  13   1     0.00   0.07   0.02    -0.00  -0.90  -0.29     0.11   0.01  -0.03
                      7                      8                      9
                        a                      a                      a 
 Frequencies --   429.2187               832.1607               977.5633
 Red. masses --    10.3058                 2.1751                10.0142
 Frc consts  --     0.0000                 0.0000                 0.0000
 IR Inten    --     5.4826                 0.3743                99.7238
 Raman Activ --     0.0000                 0.0000                 0.0000
 Depolar     --     0.0000                 0.0000                 0.0000
 Atom AN      X      Y      Z        X      Y      Z        X      Y      Z
   1   6     0.27  -0.04   0.13     0.00   0.01   0.00    -0.44  -0.01   0.03
   2   8    -0.06   0.14  -0.45     0.00   0.07   0.02     0.12   0.13  -0.42
   3   6    -0.35  -0.01   0.02    -0.00  -0.20  -0.06     0.33  -0.13   0.41
   4   6    -0.14  -0.12   0.38     0.00  -0.20  -0.06     0.14   0.01  -0.04
   5   8     0.32   0.03  -0.09    -0.00   0.08   0.02    -0.12   0.03  -0.08
   6   1     0.20  -0.02   0.06     0.02  -0.00  -0.01     0.10  -0.00   0.04
   7   1    -0.07  -0.06   0.18     0.00  -0.01  -0.01    -0.36  -0.08   0.24
   8   1     0.20  -0.02   0.06    -0.02  -0.01   0.01     0.10  -0.02   0.04
   9   1    -0.21  -0.00   0.00     0.23   0.31  -0.27     0.06  -0.02   0.08
  10   1    -0.21  -0.00   0.00    -0.23   0.10   0.40     0.06  -0.03   0.08
  11   1    -0.08  -0.04   0.10    -0.22   0.09   0.41    -0.04   0.00  -0.01
  12   1    -0.08  -0.03   0.10     0.22   0.31  -0.28    -0.04   0.00  -0.01
  13   1    -0.01   0.05  -0.16     0.00  -0.02  -0.01     0.06  -0.04   0.12
                     10                     11                     12
                        a                      a                      a 
 Frequencies --  1017.7844              1085.8370              1095.8366
 Red. masses --     8.5544                11.7745                12.9777
 Frc consts  --     0.0000                 0.0000                 0.0000
 IR Inten    --    23.8625               112.4946               136.6135
 Raman Activ --     0.0000                 0.0000                 0.0000
 Depolar     --     0.0000                 0.0000                 0.0000
 Atom AN      X      Y      Z        X      Y      Z        X      Y      Z
   1   6     0.22   0.05  -0.15     0.02  -0.02   0.08    -0.37  -0.09   0.28
   2   8    -0.19  -0.03   0.09     0.03  -0.01   0.03     0.68   0.01  -0.02
   3   6    -0.36  -0.11   0.36    -0.16  -0.01   0.01    -0.38   0.05  -0.16
   4   6     0.12   0.14  -0.45     0.61  -0.09   0.30    -0.08   0.05  -0.16
   5   8     0.16  -0.01   0.03    -0.41   0.13  -0.41     0.13  -0.02   0.06
   6   1     0.09   0.01  -0.00    -0.07  -0.01  -0.00    -0.09  -0.02   0.02
   7   1    -0.03  -0.01   0.04     0.11   0.02  -0.08     0.04   0.02  -0.05
   8   1     0.09  -0.01  -0.01    -0.07   0.01   0.00    -0.09   0.00   0.03
   9   1    -0.16  -0.03   0.09    -0.18  -0.01   0.01    -0.14   0.01  -0.02
  10   1    -0.16  -0.03   0.09    -0.18   0.00   0.02    -0.13   0.01  -0.02
  11   1     0.03   0.04  -0.10     0.12  -0.02   0.03    -0.01   0.01  -0.04
  12   1     0.03   0.03  -0.11     0.12  -0.01   0.04    -0.01   0.01  -0.04
  13   1     0.28  -0.12   0.37     0.05  -0.04   0.12     0.10  -0.04   0.11
                     13                     14                     15
                        a                      a                      a 
 Frequencies --  1101.8315              1130.9364              1151.1539
 Red. masses --     4.9335                 4.2476                 5.8091
 Frc consts  --     0.0000                 0.0000                 0.0000
 IR Inten    --     0.1700                 2.4532                57.0526
 Raman Activ --     0.0000                 0.0000                 0.0000
 Depolar     --     0.0000                 0.0000                 0.0000
 Atom AN      X      Y      Z        X      Y      Z        X      Y      Z
   1   6    -0.00  -0.18  -0.05     0.00  -0.36  -0.11    -0.11   0.10  -0.32
   2   8     0.00  -0.04  -0.01     0.00   0.22   0.07     0.17  -0.11   0.33
   3   6    -0.00   0.38   0.12    -0.00  -0.15  -0.05    -0.28   0.03  -0.10
   4   6     0.00  -0.36  -0.11    -0.00   0.20   0.06     0.13   0.00  -0.01
   5   8    -0.00   0.12   0.03     0.00  -0.08  -0.02    -0.06  -0.01   0.02
   6   1    -0.22   0.03   0.15    -0.42   0.07   0.31     0.28   0.03   0.05
   7   1     0.00   0.10   0.03    -0.00   0.19   0.06    -0.39  -0.09   0.27
   8   1     0.22   0.11  -0.11     0.42   0.23  -0.21     0.28  -0.05   0.02
   9   1     0.15  -0.21   0.26     0.04   0.09  -0.09     0.05  -0.01   0.01
  10   1    -0.16  -0.03  -0.33    -0.04   0.02   0.13     0.05   0.00   0.01
  11   1     0.11   0.03   0.32    -0.13  -0.01  -0.17     0.21   0.00  -0.01
  12   1    -0.11   0.20  -0.24     0.13  -0.11   0.13     0.21   0.00  -0.00
  13   1     0.00   0.01   0.01    -0.00  -0.01  -0.00    -0.20   0.09  -0.29
                     16                     17                     18
                        a                      a                      a 
 Frequencies --  1183.7806              1205.2633              1258.3807
 Red. masses --     2.6662                 5.2325                 1.9489
 Frc consts  --     0.0000                 0.0000                 0.0000
 IR Inten    --    31.2908                45.9974                 0.0758
 Raman Activ --     0.0000                 0.0000                 0.0000
 Depolar     --     0.0000                 0.0000                 0.0000
 Atom AN      X      Y      Z        X      Y      Z        X      Y      Z
   1   6     0.00   0.07   0.02    -0.04   0.06  -0.18     0.00  -0.00  -0.00
   2   8    -0.00  -0.18  -0.06     0.02  -0.07   0.23    -0.00   0.05   0.01
   3   6     0.00   0.19   0.06     0.06   0.10  -0.33    -0.00   0.20   0.06
   4   6     0.00   0.19   0.06    -0.12  -0.09   0.27    -0.00  -0.18  -0.05
   5   8     0.00  -0.12  -0.04     0.04   0.06  -0.18    -0.00  -0.06  -0.02
   6   1     0.06  -0.02  -0.06     0.14   0.02   0.02     0.00   0.00   0.00
   7   1     0.00  -0.03  -0.01    -0.18  -0.04   0.12     0.00   0.01   0.00
   8   1    -0.07  -0.05   0.04     0.14  -0.03   0.01    -0.00   0.01  -0.00
   9   1     0.46  -0.11   0.14     0.09   0.01  -0.07    -0.43  -0.05   0.08
  10   1    -0.46  -0.01  -0.18     0.08   0.03  -0.06     0.44   0.01  -0.09
  11   1    -0.39  -0.00  -0.17    -0.27  -0.02   0.05    -0.50  -0.01   0.08
  12   1     0.39  -0.10   0.13    -0.27  -0.01   0.06     0.50   0.04  -0.06
  13   1    -0.00  -0.02  -0.01     0.36  -0.15   0.49     0.00  -0.02  -0.01
                     19                     20                     21
                        a                      a                      a 
 Frequencies --  1305.1731              1364.5207              1391.9120
 Red. masses --     3.8889                 4.6762                 2.5448
 Frc consts  --     0.0000                 0.0000                 0.0000
 IR Inten    --    40.3988                 3.7310                 0.2519
 Raman Activ --     0.0000                 0.0000                 0.0000
 Depolar     --     0.0000                 0.0000                 0.0000
 Atom AN      X      Y      Z        X      Y      Z        X      Y      Z
   1   6     0.03  -0.02   0.08    -0.02  -0.02   0.05    -0.32  -0.02   0.07
   2   8    -0.01   0.05  -0.15    -0.03   0.02  -0.07    -0.10  -0.01   0.03
   3   6    -0.31  -0.03   0.10    -0.35  -0.01   0.03     0.09  -0.00   0.02
   4   6    -0.22  -0.05   0.15     0.42   0.02  -0.05    -0.06   0.00  -0.00
   5   8    -0.00   0.05  -0.16    -0.00  -0.04   0.12    -0.00   0.00  -0.02
   6   1    -0.03  -0.01  -0.04     0.07  -0.02  -0.04     0.51  -0.07  -0.06
   7   1     0.07   0.02  -0.05     0.10   0.03  -0.09     0.37   0.12  -0.38
   8   1    -0.03   0.03  -0.02     0.07   0.04  -0.02     0.51   0.09  -0.01
   9   1     0.47   0.02   0.01     0.34  -0.02   0.03    -0.06  -0.01   0.01
  10   1     0.47  -0.02   0.00     0.34   0.00   0.04    -0.06   0.00   0.02
  11   1     0.35  -0.02   0.01    -0.43  -0.00  -0.04     0.07   0.00   0.01
  12   1     0.35   0.01   0.02    -0.43   0.03  -0.03     0.07  -0.01   0.01
  13   1     0.14  -0.06   0.18    -0.11   0.05  -0.14     0.01  -0.01   0.02
                     22                     23                     24
                        a                      a                      a 
 Frequencies --  1455.1619              1475.8750              1477.4746
 Red. masses --     1.5316                 1.6114                 1.8277
 Frc consts  --     0.0000                 0.0000                 0.0000
 IR Inten    --     6.5587                 4.6820                 3.7580
 Raman Activ --     0.0000                 0.0000                 0.0000
 Depolar     --     0.0000                 0.0000                 0.0000
 Atom AN      X      Y      Z        X      Y      Z        X      Y      Z
   1   6    -0.00   0.20   0.06     0.05  -0.06   0.19    -0.00  -0.00   0.00
   2   8    -0.00   0.03   0.01    -0.01  -0.02   0.06     0.00  -0.01   0.03
   3   6     0.00   0.00   0.00     0.02   0.02  -0.07     0.01  -0.03   0.10
   4   6    -0.00  -0.00  -0.00    -0.01  -0.00   0.01    -0.02  -0.07   0.23
   5   8     0.00   0.00   0.00     0.00   0.00  -0.00     0.02  -0.01   0.04
   6   1    -0.42  -0.02  -0.21     0.02  -0.20  -0.62     0.01  -0.01  -0.02
   7   1     0.00  -0.68  -0.21    -0.16  -0.05   0.17    -0.01  -0.00   0.00
   8   1     0.42  -0.14   0.17     0.01   0.52  -0.40     0.01   0.02  -0.01
   9   1    -0.01   0.00   0.00    -0.03  -0.11   0.07    -0.03   0.19  -0.14
  10   1     0.01   0.00  -0.00    -0.03   0.04   0.12    -0.03  -0.08  -0.23
  11   1    -0.00  -0.00   0.00     0.01  -0.01  -0.03    -0.00  -0.19  -0.60
  12   1     0.00   0.00  -0.00     0.01   0.02  -0.02    -0.00   0.51  -0.38
  13   1    -0.00  -0.00  -0.00     0.00  -0.00   0.00    -0.01   0.00  -0.01
                     25                     26                     27
                        a                      a                      a 
 Frequencies --  1490.8068              2853.9441              2887.5006
 Red. masses --     1.7467                 1.9483                 1.4148
 Frc consts  --     0.0000                 0.0000                 0.0000
 IR Inten    --     0.7213                65.2311                50.6288
 Raman Activ --     0.0000                 0.0000                 0.0000
 Depolar     --     0.0000                 0.0000                 0.0000
 Atom AN      X      Y      Z        X      Y      Z        X      Y      Z
   1   6    -0.00   0.01  -0.03    -0.00   0.01   0.00    -0.00   0.00  -0.01
   2   8    -0.02   0.02  -0.06    -0.00   0.01   0.00     0.02  -0.01   0.02
   3   6     0.03   0.07  -0.22    -0.00   0.27   0.09    -0.02  -0.06   0.18
   4   6    -0.04  -0.03   0.08    -0.00  -0.05  -0.01     0.00   0.01  -0.02
   5   8     0.01  -0.00   0.01     0.00  -0.00  -0.00    -0.00   0.00  -0.00
   6   1    -0.02   0.04   0.12    -0.01  -0.02   0.01     0.00  -0.03   0.01
   7   1     0.03   0.01  -0.03     0.00   0.00   0.00     0.01  -0.00   0.01
   8   1    -0.03  -0.10   0.08     0.01  -0.01  -0.02     0.00   0.02   0.02
   9   1     0.00  -0.50   0.38     0.01  -0.38  -0.54     0.01  -0.44  -0.52
  10   1     0.00   0.19   0.59    -0.01  -0.62   0.23     0.00   0.66  -0.18
  11   1     0.02  -0.07  -0.23     0.00   0.12  -0.05     0.00  -0.10   0.03
  12   1     0.02   0.19  -0.15    -0.00   0.07   0.11     0.00   0.07   0.08
  13   1     0.00  -0.00   0.00    -0.00   0.00   0.00    -0.01  -0.00   0.00
                     28                     29                     30
                        a                      a                      a 
 Frequencies --  2891.9359              2909.8946              2919.3360
 Red. masses --     2.0083                 1.9401                 1.4329
 Frc consts  --     0.0000                 0.0000                 0.0000
 IR Inten    --   124.1758                67.8050                82.3870
 Raman Activ --     0.0000                 0.0000                 0.0000
 Depolar     --     0.0000                 0.0000                 0.0000
 Atom AN      X      Y      Z        X      Y      Z        X      Y      Z
   1   6     0.00  -0.00  -0.00     0.00  -0.28  -0.09    -0.00  -0.01   0.02
   2   8    -0.00  -0.00  -0.00     0.00  -0.01  -0.00    -0.00   0.00  -0.00
   3   6     0.00  -0.06  -0.02    -0.00   0.01   0.00     0.01   0.01  -0.03
   4   6    -0.00  -0.28  -0.09    -0.00   0.00   0.00     0.01   0.06  -0.18
   5   8    -0.00  -0.01  -0.00     0.00   0.00   0.00    -0.01   0.00  -0.01
   6   1     0.00   0.00  -0.00     0.05   0.63  -0.23     0.00   0.05  -0.01
   7   1    -0.00  -0.00  -0.00    -0.00  -0.05  -0.01    -0.00   0.00  -0.00
   8   1    -0.00   0.00   0.00    -0.05   0.39   0.55     0.00  -0.03  -0.04
   9   1    -0.00   0.08   0.10     0.01  -0.02  -0.02    -0.00   0.06   0.08
  10   1     0.00   0.12  -0.04    -0.01  -0.02   0.01    -0.00  -0.10   0.02
  11   1     0.01   0.63  -0.22     0.00   0.00  -0.00    -0.00  -0.66   0.17
  12   1    -0.01   0.38   0.54    -0.00  -0.00  -0.00    -0.00   0.44   0.53
  13   1     0.00   0.01   0.00    -0.00  -0.00   0.00    -0.00  -0.00   0.00
                     31                     32                     33
                        a                      a                      a 
 Frequencies --  2931.4595              3036.8926              3492.5607
 Red. masses --     1.4148                 1.7182                 1.8783
 Frc consts  --     0.0000                 0.0000                 0.0000
 IR Inten    --    69.6046                18.0126                98.5072
 Raman Activ --     0.0000                 0.0000                 0.0000
 Depolar     --     0.0000                 0.0000                 0.0000
 Atom AN      X      Y      Z        X      Y      Z        X      Y      Z
   1   6    -0.01  -0.06   0.18    -0.17   0.05  -0.18    -0.00   0.00  -0.00
   2   8    -0.02  -0.01   0.02    -0.01   0.00  -0.00     0.00  -0.00   0.00
   3   6     0.00  -0.00   0.01     0.00   0.00  -0.00     0.00   0.00  -0.00
   4   6    -0.00  -0.00   0.01     0.00   0.00  -0.00     0.00   0.00  -0.00
   5   8     0.00  -0.00   0.00    -0.00  -0.00   0.00     0.20   0.04  -0.12
   6   1     0.06   0.67  -0.18    -0.02   0.01  -0.03     0.00  -0.00   0.00
   7   1     0.00  -0.01   0.02     0.68  -0.21   0.66     0.00  -0.00   0.00
   8   1     0.06  -0.45  -0.52    -0.02   0.01  -0.02     0.00   0.00   0.00
   9   1    -0.00  -0.03  -0.03     0.00   0.01   0.01    -0.00   0.00   0.00
  10   1    -0.00   0.04  -0.01     0.00  -0.01   0.00    -0.00  -0.00   0.00
  11   1     0.00   0.05  -0.01    -0.00  -0.00   0.00    -0.00   0.00   0.00
  12   1     0.00  -0.03  -0.04    -0.00   0.00   0.00    -0.00  -0.00   0.00
  13   1    -0.00  -0.00   0.00     0.00   0.00  -0.00    -0.82  -0.15   0.49
