15
 energy: -556.558117934924 gnorm: 0.001887737669 xtb: 6.7.1 (edcfbbe)
C            2.26900152601538       -0.56318427191630        0.58868205959913
C            1.53830923985186       -0.12393576841405       -0.67897755633033
C            0.58309336546449        1.05233674420648       -0.46224863907506
C           -0.52907971441310        0.81361542687813        0.55222477206078
S           -1.69055033379134       -0.55774908738397        0.10719308781003
H            1.57892828950845       -0.96233167905012        1.33984937178586
H            2.80813999465741        0.27699202862365        1.04278724200716
H            2.99776180877451       -1.34947957403047        0.36561062709856
H            0.98066253866583       -0.97128980553030       -1.09372030130365
H            2.27374751845468        0.16899721020273       -1.43650641236590
H            0.13507037860895        1.34316500834757       -1.42033097996740
H            1.15632600950289        1.92026577422366       -0.10764159591396
H           -0.12468376028396        0.53098734293184        1.52914231219963
H           -1.11954650461519        1.72236365301505        0.69770385640435
H           -2.16287329933249        0.01215246291862       -1.01701986421525
15
 energy: -556.558132441546 gnorm: 0.000512714875 xtb: 6.7.1 (edcfbbe)
C            2.26869176309432       -0.56360718986587        0.58731709888251
C            1.53708860677955       -0.12466791595348       -0.67910053685919
C            0.58337018250974        1.05148549260309       -0.46083915508918
C           -0.52968106026484        0.81626615671370        0.55318792332856
S           -1.69434658404788       -0.55535594849557        0.11347829962982
H            1.58012499744314       -0.96687185423224        1.33701879397129
H            2.80463838410488        0.27667363777429        1.04370481020577
H            3.00062435129050       -1.34629599023555        0.36388404096723
H            0.97985996479344       -0.97245605527680       -1.09498592714019
H            2.27144535127136        0.16945791642620       -1.43839215874051
H            0.13627768212017        1.34520216718255       -1.41874174097130
H            1.15872934113716        1.91824454447517       -0.10442125131352
H           -0.12790246962937        0.53395270763671        1.53101581862869
H           -1.11882045440345        1.72593329919527        0.69443666882541
H           -2.15579338962261        0.00494489499692       -1.02081447349806
15
 energy: -556.558142659698 gnorm: 0.001241570683 xtb: 6.7.1 (edcfbbe)
C            2.26758012815623       -0.56546203551192        0.58523014236203
C            1.53401567071996       -0.12568918469838       -0.67897875972443
C            0.58282903395031        1.05126519135166       -0.45870353327929
C           -0.52993773682255        0.82121391177855        0.55632947733282
S           -1.69574273486011       -0.55233536070840        0.12002500497505
H            1.58078537356766       -0.97585132767202        1.33271006877074
H            2.79762065885766        0.27658534699456        1.04513678440148
H            3.00504001819008       -1.34239110349748        0.35970873508333
H            0.97618496424742       -0.97330629162086       -1.09508989552337
H            2.26666806657393        0.16860530948464       -1.44040453801807
H            0.13621919452377        1.34901650186328       -1.41566596550792
H            1.16131903046848        1.91578506826754       -0.10085091630241
H           -0.12923637602942        0.54240288455148        1.53554932677546
H           -1.11802817299281        1.73223604783977        0.69165166257223
H           -2.14101142159976       -0.00916819043867       -1.02989887204888
15
 energy: -556.558148564977 gnorm: 0.001433023237 xtb: 6.7.1 (edcfbbe)
C            2.26515380517633       -0.56715334680418        0.58364232938668
C            1.53082204240336       -0.12608891345974       -0.67966413677350
C            0.58291846427780        1.05294431548104       -0.45747777250818
C           -0.53019271875920        0.82493687707862        0.55750186620595
S           -1.69550959173993       -0.55190908245270        0.12816729020702
H            1.57966282367142       -0.98425774751516        1.32890392187435
H            2.79017250908252        0.27605999158040        1.04760503590841
H            3.00716870293362       -1.33916987994921        0.35558791639404
H            0.97085035026413       -0.97257281084709       -1.09502156637248
H            2.26279451179215        0.16700558935660       -1.44197444978894
H            0.13613950887491        1.35278967881925       -1.41357917339841
H            1.16395463074023        1.91554085131998       -0.09935422710270
H           -0.12976716705031        0.54938868517953        1.53786984048787
H           -1.11861282366138        1.73637131383474        0.68968112622263
H           -2.12125058307986       -0.02097782009570       -1.03513882318261
15
 energy: -556.558153921935 gnorm: 0.000650592535 xtb: 6.7.1 (edcfbbe)
C            2.26208524283615       -0.56858016297758        0.58281397865309
C            1.52835915321905       -0.12571068955228       -0.68068736395669
C            0.58281526170037        1.05520383809024       -0.45709597705943
C           -0.52886656504084        0.82803045304887        0.55972428305359
S           -1.69142759617716       -0.55108761756070        0.13244362326829
H            1.57685735685489       -0.99017281659876        1.32580121314846
H            2.78407205464847        0.27449763452175        1.05046304626633
H            3.00656153909405       -1.33762039069008        0.35309020311698
H            0.96555184914997       -0.97056765835785       -1.09514606854178
H            2.26068912572663        0.16567870010810       -1.44297324099029
H            0.13506623727717        1.35499505371385       -1.41273870512099
H            1.16548623922703        1.91686524391772       -0.10010282585330
H           -0.12710696266365        0.55542940263238        1.54047490795876
H           -1.11929168381594        1.73853514135575        0.69033218178078
H           -2.10654800953075       -0.03258761864002       -1.03964974723911
15
 energy: -556.558156495465 gnorm: 0.000445831274 xtb: 6.7.1 (edcfbbe)
C            2.25977148534265       -0.56990034195359        0.58295664601761
C            1.52797835489281       -0.12430538501230       -0.68101120236605
C            0.58238350595233        1.05715638652942       -0.45810158308893
C           -0.52780515773455        0.82903766586946        0.56023963610246
S           -1.68698741407304       -0.55224243827217        0.13429097653952
H            1.57272710448853       -0.99172138713554        1.32397092900465
H            2.78140784195109        0.27237250376227        1.05228978130193
H            3.00388235972267       -1.33926630536231        0.35339423578338
H            0.96429108329096       -0.96807101830835       -1.09609010320829
H            2.26160680081207        0.16640916362968       -1.44209599987130
H            0.13323140934643        1.35557539415549       -1.41357152124910
H            1.16499797254079        1.91930889105080       -0.10271586996197
H           -0.12340198626855        0.55786019760034        1.54026638922587
H           -1.11884974467949        1.73897788253216        0.69200645638943
H           -2.10093115000695       -0.03828236881970       -1.03907925245202
15
 energy: -556.558156495465 gnorm: 0.000445831274 xtb: 6.7.1 (edcfbbe)
C            2.25977148534265       -0.56990034195359        0.58295664601761
C            1.52797835489281       -0.12430538501230       -0.68101120236605
C            0.58238350595233        1.05715638652942       -0.45810158308893
C           -0.52780515773455        0.82903766586946        0.56023963610246
S           -1.68698741407304       -0.55224243827217        0.13429097653952
H            1.57272710448853       -0.99172138713554        1.32397092900465
H            2.78140784195109        0.27237250376227        1.05228978130193
H            3.00388235972267       -1.33926630536231        0.35339423578338
H            0.96429108329096       -0.96807101830835       -1.09609010320829
H            2.26160680081207        0.16640916362968       -1.44209599987130
H            0.13323140934643        1.35557539415549       -1.41357152124910
H            1.16499797254079        1.91930889105080       -0.10271586996197
H           -0.12340198626855        0.55786019760034        1.54026638922587
H           -1.11884974467949        1.73897788253216        0.69200645638943
H           -2.10093115000695       -0.03828236881970       -1.03907925245202
