      -----------------------------------------------------------      
     |                   =====================                   |     
     |                           x T B                           |     
     |                   =====================                   |     
     |                         S. Grimme                         |     
     |          Mulliken Center for Theoretical Chemistry        |     
     |                    University of Bonn                     |     
      -----------------------------------------------------------      

   * xtb version 6.7.1 (edcfbbe) compiled by 'albert@albert-system' on 2024-07-22

   xtb is free software: you can redistribute it and/or modify it under
   the terms of the GNU Lesser General Public License as published by
   the Free Software Foundation, either version 3 of the License, or
   (at your option) any later version.
   
   xtb is distributed in the hope that it will be useful,
   but WITHOUT ANY WARRANTY; without even the implied warranty of
   MERCHANTABILITY or FITNESS FOR A PARTICULAR PURPOSE.  See the
   GNU Lesser General Public License for more details.
   
   Cite this work as:
   * C. Bannwarth, E. Caldeweyher, S. Ehlert, A. Hansen, P. Pracht,
     J. Seibert, S. Spicher, S. Grimme, WIREs Comput. Mol. Sci., 2020, 11,
     e01493. DOI: 10.1002/wcms.1493
   
   for GFN2-xTB:
   * C. Bannwarth, S. Ehlert and S. Grimme., J. Chem. Theory Comput., 2019,
     15, 1652-1671. DOI: 10.1021/acs.jctc.8b01176
   for GFN1-xTB:
   * S. Grimme, C. Bannwarth, P. Shushkov, J. Chem. Theory Comput., 2017,
     13, 1989-2009. DOI: 10.1021/acs.jctc.7b00118
   for GFN0-xTB:
   * P. Pracht, E. Caldeweyher, S. Ehlert, S. Grimme, ChemRxiv, 2019, preprint.
     DOI: 10.26434/chemrxiv.8326202.v1
   for GFN-FF:
   * S. Spicher and S. Grimme, Angew. Chem. Int. Ed., 2020, 59, 15665-15673.
     DOI: 10.1002/anie.202004239
   
   for ALPB and GBSA implicit solvation:
   * S. Ehlert, M. Stahn, S. Spicher, S. Grimme, J. Chem. Theory Comput.,
     2021, 17, 4250-4261. DOI: 10.1021/acs.jctc.1c00471
   
   for ddCOSMO and CPCM-X implicit solvation:
   * M. Stahn, S. Ehlert, S. Grimme, J. Phys. Chem. A,
     2023, XX, XXXX-XXXX. DOI: 10.1021/acs.jpca.3c04382
   
   for DFT-D4:
   * E. Caldeweyher, C. Bannwarth and S. Grimme, J. Chem. Phys., 2017,
     147, 034112. DOI: 10.1063/1.4993215
   * E. Caldeweyher, S. Ehlert, A. Hansen, H. Neugebauer, S. Spicher,
     C. Bannwarth and S. Grimme, J. Chem. Phys., 2019, 150, 154122.
     DOI: 10.1063/1.5090222
   * E. Caldeweyher, J.-M. Mewes, S. Ehlert and S. Grimme, Phys. Chem. Chem. Phys.
     2020, 22, 8499-8512. DOI: 10.1039/D0CP00502A
   
   for sTDA-xTB:
   * S. Grimme and C. Bannwarth, J. Chem. Phys., 2016, 145, 054103.
     DOI: 10.1063/1.4959605
   
   in the mass-spec context:
   * V. Asgeirsson, C. Bauer and S. Grimme, Chem. Sci., 2017, 8, 4879.
     DOI: 10.1039/c7sc00601b
   * J. Koopman and S. Grimme, ACS Omega 2019, 4, 12, 15120-15133.
     DOI: 10.1021/acsomega.9b02011
   
   for metadynamics refer to:
   * S. Grimme, J. Chem. Theory Comput., 2019, 155, 2847-2862
     DOI: 10.1021/acs.jctc.9b00143
   
   for SPH calculations refer to:
   * S. Spicher and S. Grimme, J. Chem. Theory Comput., 2021, 17, 1701-1714
     DOI: 10.1021/acs.jctc.0c01306
   
   for ONIOM refer to:
   * C. Plett, A. Katbashev, S. Ehlert, S. Grimme, M. Bursch,
     Phys. Chem. Chem. Phys., 2023, 25, 17860-17868. DOI: 10.1039/D3CP02178E
   
   for DIPRO refer to:
   * J. Kohn, N. Gildemeister, S. Grimme, D. Fazzi, A. Hansen,
     J. Chem. Phys., 2023, just accepted.
   
   for PTB refer to:
   * S. Grimme, M. Mueller, A. Hansen, J. Chem. Phys., 2023, 158, 124111.
     DOI: 10.1063/5.0137838
   
   with help from (in alphabetical order)
   P. Atkinson, C. Bannwarth, F. Bohle, G. Brandenburg, E. Caldeweyher
   M. Checinski, S. Dohm, S. Ehlert, S. Ehrlich, I. Gerasimov, C. Hölzer
   A. Katbashev, J. Kohn, J. Koopman, C. Lavigne, S. Lehtola, F. März, M. Müller,
   F. Musil, H. Neugebauer, J. Pisarek, C. Plett, P. Pracht, F. Pultar,
   J. Seibert, P. Shushkov, S. Spicher, M. Stahn, M. Steiner, T. Strunk,
   J. Stückrath, T. Rose, and J. Unsleber
   
 * started run on 2025/04/11 at 12:14:59.740     
   ID    Z sym.   atoms
    1    6 C      1-3, 5-7
    2    1 H      4, 9-21
    3    8 O      8

           -------------------------------------------------
          |                Calculation Setup                |
           -------------------------------------------------

          program call               : /srv/scratch/z5358697/.xtb/bin/xtb gas.coord --gfn2 --sp --chrg 0 --norestart --parallel 1
          hostname                   : k121
          coordinate file            : gas.coord
          omp threads                :                     1


           -------------------------------------------------
          |                 G F N 2 - x T B                 |
           -------------------------------------------------

        Reference                      10.1021/acs.jctc.8b01176
      * Hamiltonian:
        H0-scaling (s, p, d)           1.850000    2.230000    2.230000
        zeta-weighting                 0.500000
      * Dispersion:
        s8                             2.700000
        a1                             0.520000
        a2                             5.000000
        s9                             5.000000
      * Repulsion:
        kExp                           1.500000    1.000000
        rExp                           1.000000
      * Coulomb:
        alpha                          2.000000
        third order                    shell-resolved
        anisotropic                    true
        a3                             3.000000
        a5                             4.000000
        cn-shift                       1.200000
        cn-exp                         4.000000
        max-rad                        5.000000


          ...................................................
          :                      SETUP                      :
          :.................................................:
          :  # basis functions                  42          :
          :  # atomic orbitals                  42          :
          :  # shells                           28          :
          :  # electrons                        44          :
          :  max. iterations                   250          :
          :  Hamiltonian                  GFN2-xTB          :
          :  restarted?                      false          :
          :  GBSA solvation                  false          :
          :  PC potential                    false          :
          :  electronic temp.          300.0000000     K    :
          :  accuracy                    1.0000000          :
          :  -> integral cutoff          0.2500000E+02      :
          :  -> integral neglect         0.1000000E-07      :
          :  -> SCF convergence          0.1000000E-05 Eh   :
          :  -> wf. convergence          0.1000000E-03 e    :
          :  Broyden damping             0.4000000          :
          :  net charge                          0          :
          :  unpaired electrons                  0          :
          ...................................................

 iter      E             dE          RMSdq      gap      omega  full diag
   1    -24.3179297 -0.243179E+02  0.293E+00   12.08       0.0  T
   2    -24.3622852 -0.443555E-01  0.158E+00   11.80       1.0  T
   3    -24.3631455 -0.860247E-03  0.702E-01   11.89       1.0  T
   4    -24.3633853 -0.239859E-03  0.123E-01   11.90       1.0  T
   5    -24.3634599 -0.745786E-04  0.628E-02   11.92       1.0  T
   6    -24.3634611 -0.120758E-05  0.986E-03   11.92       2.2  T
   7    -24.3634617 -0.563240E-06  0.417E-03   11.92       5.2  T
   8    -24.3634617 -0.251548E-07  0.114E-03   11.92      19.1  T
   9    -24.3634617 -0.280632E-08  0.507E-04   11.92      43.1  T
  10    -24.3634617 -0.326619E-09  0.990E-05   11.92     220.4  T

   *** convergence criteria satisfied after 10 iterations ***

         #    Occupation            Energy/Eh            Energy/eV
      -------------------------------------------------------------
         1        2.0000           -0.6786872             -18.4680
       ...           ...                  ...                  ...
        16        2.0000           -0.4543905             -12.3646
        17        2.0000           -0.4539112             -12.3516
        18        2.0000           -0.4370028             -11.8915
        19        2.0000           -0.4301295             -11.7044
        20        2.0000           -0.4273430             -11.6286
        21        2.0000           -0.4142462             -11.2722
        22        2.0000           -0.3998315             -10.8800 (HOMO)
        23                          0.0383158               1.0426 (LUMO)
        24                          0.0692470               1.8843
        25                          0.0912835               2.4840
        26                          0.1105241               3.0075
        27                          0.1226782               3.3382
       ...                                ...                  ...
        42                          0.3087788               8.4023
      -------------------------------------------------------------
                  HL-Gap            0.4381473 Eh           11.9226 eV
             Fermi-level           -0.1807578 Eh           -4.9187 eV

 SCC (total)                   0 d,  0 h,  0 min,  0.014 sec
 SCC setup                      ...        0 min,  0.000 sec (  1.337%)
 Dispersion                     ...        0 min,  0.000 sec (  0.828%)
 classical contributions        ...        0 min,  0.000 sec (  0.172%)
 integral evaluation            ...        0 min,  0.002 sec ( 10.757%)
 iterations                     ...        0 min,  0.007 sec ( 51.762%)
 molecular gradient             ...        0 min,  0.005 sec ( 33.984%)
 printout                       ...        0 min,  0.000 sec (  1.064%)

         :::::::::::::::::::::::::::::::::::::::::::::::::::::
         ::                     SUMMARY                     ::
         :::::::::::::::::::::::::::::::::::::::::::::::::::::
         :: total energy             -24.054050155274 Eh    ::
         :: gradient norm              0.004753916530 Eh/a0 ::
         :: HOMO-LUMO gap             11.922594691331 eV    ::
         ::.................................................::
         :: SCC energy               -24.363389893980 Eh    ::
         :: -> isotropic ES            0.028763182943 Eh    ::
         :: -> anisotropic ES          0.006134985775 Eh    ::
         :: -> anisotropic XC          0.009410871160 Eh    ::
         :: -> dispersion             -0.013291562899 Eh    ::
         :: repulsion energy           0.309339738706 Eh    ::
         :: add. restraining           0.000000000000 Eh    ::
         :: total charge               0.000000000000 e     ::
         :::::::::::::::::::::::::::::::::::::::::::::::::::::

           -------------------------------------------------
          |                Property Printout                |
           -------------------------------------------------

    * Orbital Energies and Occupations

         #    Occupation            Energy/Eh            Energy/eV
      -------------------------------------------------------------
         1        2.0000           -0.6786872             -18.4680
       ...           ...                  ...                  ...
        10        2.0000           -0.5144140             -13.9979
        11        2.0000           -0.4985512             -13.5663
        12        2.0000           -0.4822306             -13.1222
        13        2.0000           -0.4746379             -12.9156
        14        2.0000           -0.4691811             -12.7671
        15        2.0000           -0.4620522             -12.5731
        16        2.0000           -0.4543905             -12.3646
        17        2.0000           -0.4539112             -12.3516
        18        2.0000           -0.4370028             -11.8915
        19        2.0000           -0.4301295             -11.7044
        20        2.0000           -0.4273430             -11.6286
        21        2.0000           -0.4142462             -11.2722
        22        2.0000           -0.3998315             -10.8800 (HOMO)
        23                          0.0383158               1.0426 (LUMO)
        24                          0.0692470               1.8843
        25                          0.0912835               2.4840
        26                          0.1105241               3.0075
        27                          0.1226782               3.3382
        28                          0.1335240               3.6334
        29                          0.1401258               3.8130
        30                          0.1601914               4.3590
        31                          0.1791184               4.8741
        32                          0.1892775               5.1505
        33                          0.1991705               5.4197
       ...                                ...                  ...
        42                          0.3087788               8.4023
      -------------------------------------------------------------
                  HL-Gap            0.4381473 Eh           11.9226 eV
             Fermi-level           -0.1807578 Eh           -4.9187 eV

     #   Z          covCN         q      C6AA      α(0)
     1   6 C        3.751    -0.102    22.509     6.766
     2   6 C        3.799    -0.066    21.759     6.642
     3   6 C        3.727     0.113    18.822     6.194
     4   1 H        0.923     0.005     2.973     2.697
     5   6 C        3.849    -0.016    20.832     6.492
     6   6 C        3.755    -0.110    22.650     6.786
     7   6 C        3.757    -0.107    22.603     6.778
     8   8 O        1.655    -0.447    21.787     6.301
     9   1 H        0.925     0.048     2.346     2.395
    10   1 H        0.925     0.036     2.501     2.473
    11   1 H        0.925     0.031     2.569     2.506
    12   1 H        0.925     0.033     2.538     2.491
    13   1 H        0.924     0.025     2.660     2.550
    14   1 H        0.924     0.046     2.364     2.405
    15   1 H        0.925     0.036     2.505     2.475
    16   1 H        0.925     0.033     2.545     2.495
    17   1 H        0.925     0.040     2.445     2.445
    18   1 H        0.925     0.033     2.540     2.492
    19   1 H        0.925     0.053     2.283     2.363
    20   1 H        0.925     0.032     2.552     2.498
    21   1 H        0.805     0.282     0.779     1.386

 Mol. C6AA /au·bohr⁶  :       2906.246910
 Mol. C8AA /au·bohr⁸  :      60031.855127
 Mol. α(0) /au        :         79.631363


Wiberg/Mayer (AO) data.
largest (>0.10) Wiberg bond orders for each atom

 ---------------------------------------------------------------------------
     #   Z sym  total        # sym  WBO       # sym  WBO       # sym  WBO
 ---------------------------------------------------------------------------
     1   6 C    3.996 --     2 C    1.020    11 H    0.987    10 H    0.986
                             9 H    0.986
     2   6 C    3.998 --     1 C    1.020     3 C    0.987    13 H    0.976
                            12 H    0.975
     3   6 C    3.953 --     2 C    0.987     8 O    0.983     5 C    0.980
                             4 H    0.961
     4   1 H    1.000 --     3 C    0.961
     5   6 C    3.994 --     6 C    1.010     7 C    1.008     3 C    0.980
                            14 H    0.966
     6   6 C    3.997 --     5 C    1.010    16 H    0.987    17 H    0.985
                            15 H    0.984
     7   6 C    3.996 --     5 C    1.008    20 H    0.987    18 H    0.987
                            19 H    0.984
     8   8 O    1.957 --     3 C    0.983    21 H    0.904
     9   1 H    0.998 --     1 C    0.986
    10   1 H    0.999 --     1 C    0.986
    11   1 H    0.999 --     1 C    0.987
    12   1 H    0.999 --     2 C    0.975
    13   1 H    0.999 --     2 C    0.976
    14   1 H    0.998 --     5 C    0.966
    15   1 H    0.999 --     6 C    0.984
    16   1 H    0.999 --     6 C    0.987
    17   1 H    0.998 --     6 C    0.985
    18   1 H    0.999 --     7 C    0.987
    19   1 H    0.997 --     7 C    0.984
    20   1 H    0.999 --     7 C    0.987
    21   1 H    0.920 --     8 O    0.904
 ---------------------------------------------------------------------------

Topologies differ in total number of bonds
Writing topology from bond orders to xtbtopo.mol

molecular dipole:
                 x           y           z       tot (Debye)
 q only:        0.176      -0.250       0.250
   full:        0.321      -0.285       0.483       1.643
molecular quadrupole (traceless):
                xx          xy          yy          xz          yz          zz
 q only:        1.111       1.364      -1.012       1.112       1.759      -0.099
  q+dip:        1.332       2.291      -2.282       1.768       2.961       0.950
   full:        1.346       2.291      -1.865       1.832       2.836       0.519


           -------------------------------------------------
          | TOTAL ENERGY              -24.054050155274 Eh   |
          | GRADIENT NORM               0.004753916530 Eh/α |
          | HOMO-LUMO GAP              11.922594691331 eV   |
           -------------------------------------------------

------------------------------------------------------------------------
 * finished run on 2025/04/11 at 12:14:59.791     
------------------------------------------------------------------------
 total:
 * wall-time:     0 d,  0 h,  0 min,  0.051 sec
 *  cpu-time:     0 d,  0 h,  0 min,  0.020 sec
 * ratio c/w:     0.395 speedup
 SCF:
 * wall-time:     0 d,  0 h,  0 min,  0.014 sec
 *  cpu-time:     0 d,  0 h,  0 min,  0.013 sec
 * ratio c/w:     0.919 speedup

