 Entering Gaussian System
 *********************************************
 Gaussian 98:
 frequency output generated by the xtb code
 *********************************************
                         Standard orientation:
 --------------------------------------------------------------------
  Center     Atomic     Atomic              Coordinates (Angstroms)
  Number     Number      Type              X           Y           Z
 --------------------------------------------------------------------
    1          6             0       -2.213906    0.604344   -0.891224
    2          6             0       -1.792888    0.560142    0.572647
    3          6             0       -0.886502   -0.641913    0.866547
    4          6             0        0.422775   -0.534356    0.129875
    5          8             0        0.827280   -1.326405   -0.696142
    6          8             0        1.105957    0.546312    0.490720
    7          6             0        2.367440    0.773151   -0.140406
    8          1             0       -2.851130    1.464653   -1.077388
    9          1             0       -1.342978    0.673215   -1.540521
   10          1             0       -2.761520   -0.296470   -1.158198
   11          1             0       -2.679448    0.487573    1.203303
   12          1             0       -1.260913    1.476030    0.833366
   13          1             0       -1.369975   -1.571027    0.564960
   14          1             0       -0.665802   -0.676046    1.934051
   15          1             0        2.250060    0.770949   -1.224875
   16          1             0        3.070282   -0.012096    0.140514
   17          1             0        2.703664    1.741921    0.215268
 --------------------------------------------------------------------
     1 basis functions        1 primitive gaussians
     1 alpha electrons        1 beta electrons
 
 Harmonic frequencies (cm**-1), IR intensities (km*mol⁻¹),
 Raman scattering activities (A**4/amu), Raman depolarization ratios,
 reduced masses (AMU), force constants (mDyne/A) and normal coordinates:
                      1                      2                      3
                        a                      a                      a 
 Frequencies --    23.4786                34.0288                83.4837
 Red. masses --     8.4191                 5.2222                 9.0299
 Frc consts  --     0.0000                 0.0000                 0.0000
 IR Inten    --     1.5125                 1.2243                 0.1363
 Raman Activ --     0.0000                 0.0000                 0.0000
 Depolar     --     0.0000                 0.0000                 0.0000
 Atom AN      X      Y      Z        X      Y      Z        X      Y      Z
   1   6    -0.16  -0.35  -0.09    -0.09  -0.16  -0.02    -0.57  -0.01   0.14
   2   6    -0.02   0.05  -0.11     0.00   0.02  -0.04     0.04   0.12  -0.04
   3   6     0.06   0.16   0.13     0.04   0.07   0.06    -0.01   0.03  -0.26
   4   6    -0.00   0.11   0.02    -0.00   0.05  -0.02     0.08   0.01  -0.10
   5   8    -0.24   0.28  -0.24    -0.21   0.21  -0.27     0.30  -0.12   0.11
   6   8     0.22  -0.09   0.22     0.16  -0.11   0.17    -0.00   0.08  -0.13
   7   6     0.14  -0.11   0.08     0.11  -0.05   0.10     0.19  -0.09   0.22
   8   1    -0.05  -0.12  -0.08    -0.03  -0.05  -0.03    -0.11   0.05   0.08
   9   1    -0.06  -0.15  -0.06    -0.04  -0.07  -0.02    -0.24  -0.12  -0.07
  10   1    -0.05  -0.12   0.06    -0.03  -0.06   0.04    -0.28   0.03   0.16
  11   1     0.01   0.05  -0.00     0.01   0.03   0.01     0.08   0.09   0.10
  12   1    -0.01   0.04  -0.11     0.00   0.02  -0.05     0.08   0.02  -0.11
  13   1     0.02   0.02   0.10     0.01   0.01   0.05    -0.02   0.03  -0.12
  14   1     0.03   0.12   0.04     0.02   0.06   0.02    -0.01  -0.05  -0.07
  15   1    -0.04   0.28   0.03     0.10  -0.48   0.02     0.14  -0.03   0.05
  16   1    -0.05  -0.21  -0.24     0.17   0.24   0.40     0.01  -0.04   0.13
  17   1     0.20  -0.17   0.26    -0.19   0.19  -0.33     0.06  -0.03   0.08
                      4                      5                      6
                        a                      a                      a 
 Frequencies --   142.0446               202.0299               228.9053
 Red. masses --     6.7040                 9.0114                 6.9181
 Frc consts  --     0.0000                 0.0000                 0.0000
 IR Inten    --     1.9548                 6.5026                 5.9502
 Raman Activ --     0.0000                 0.0000                 0.0000
 Depolar     --     0.0000                 0.0000                 0.0000
 Atom AN      X      Y      Z        X      Y      Z        X      Y      Z
   1   6     0.03  -0.02  -0.02     0.27  -0.17   0.08    -0.04   0.07  -0.05
   2   6     0.32   0.18  -0.10     0.09  -0.02   0.13    -0.26  -0.21   0.02
   3   6    -0.04  -0.09  -0.02     0.04  -0.04   0.12    -0.05  -0.07  -0.06
   4   6     0.01  -0.17   0.07    -0.12   0.06  -0.15     0.04   0.16   0.14
   5   8     0.01  -0.06  -0.05    -0.13   0.04  -0.14     0.14   0.26   0.13
   6   8    -0.03  -0.22   0.26    -0.31   0.24  -0.38     0.16   0.12   0.15
   7   6    -0.27   0.29  -0.08     0.06  -0.07   0.26     0.03  -0.25  -0.25
   8   1     0.24   0.15  -0.07     0.31   0.10  -0.10     0.29   0.23  -0.07
   9   1    -0.01  -0.33  -0.07     0.12  -0.35   0.05     0.04  -0.29   0.02
  10   1    -0.26   0.11   0.14    -0.14   0.06   0.10    -0.30   0.20  -0.01
  11   1     0.12   0.20   0.03     0.01   0.03   0.02    -0.10  -0.14  -0.04
  12   1     0.21   0.01  -0.12     0.05  -0.01   0.03    -0.13  -0.05   0.09
  13   1    -0.06   0.01  -0.04    -0.00  -0.01   0.06     0.05  -0.04  -0.08
  14   1    -0.05  -0.06  -0.00     0.07  -0.00   0.02    -0.07  -0.06  -0.01
  15   1    -0.17   0.11  -0.02     0.18  -0.01   0.06    -0.08  -0.14  -0.06
  16   1     0.02   0.14  -0.11    -0.08  -0.07   0.18    -0.02  -0.10  -0.08
  17   1    -0.14   0.10  -0.02     0.03  -0.04   0.13     0.09  -0.07  -0.17
                      7                      8                      9
                        a                      a                      a 
 Frequencies --   282.8094               381.9961               422.7991
 Red. masses --     9.2008                 7.7819                10.9845
 Frc consts  --     0.0000                 0.0000                 0.0000
 IR Inten    --    15.3512                 3.9814                10.4128
 Raman Activ --     0.0000                 0.0000                 0.0000
 Depolar     --     0.0000                 0.0000                 0.0000
 Atom AN      X      Y      Z        X      Y      Z        X      Y      Z
   1   6    -0.10   0.14  -0.06    -0.18   0.26  -0.16    -0.07   0.07  -0.09
   2   6    -0.28  -0.13  -0.01     0.15  -0.19  -0.24     0.25  -0.22  -0.17
   3   6     0.09   0.15   0.08     0.25  -0.04   0.34    -0.02  -0.33   0.04
   4   6     0.07  -0.07  -0.08     0.04  -0.13   0.05     0.04   0.08   0.29
   5   8    -0.22  -0.35   0.01     0.15   0.09  -0.11    -0.50   0.03   0.15
   6   8     0.23  -0.19  -0.11    -0.21   0.03  -0.01     0.10   0.24  -0.12
   7   6     0.22   0.36   0.09    -0.17  -0.13   0.06     0.21   0.11  -0.02
   8   1     0.13   0.16  -0.02    -0.03   0.13   0.14    -0.05   0.03   0.12
   9   1     0.00  -0.10   0.01    -0.11   0.12  -0.12    -0.08   0.09  -0.10
  10   1    -0.18   0.14  -0.05    -0.13   0.14  -0.11    -0.04   0.04  -0.06
  11   1    -0.10  -0.16  -0.05     0.05  -0.04  -0.05     0.08   0.04  -0.02
  12   1    -0.19   0.00   0.08     0.04  -0.05  -0.08     0.17  -0.11  -0.08
  13   1     0.06  -0.01   0.13     0.08  -0.10   0.36     0.07  -0.08  -0.16
  14   1     0.07   0.15   0.02     0.14   0.28   0.09    -0.16  -0.19   0.04
  15   1     0.11   0.18   0.02    -0.03  -0.06   0.01     0.09   0.04  -0.01
  16   1     0.14   0.16   0.00    -0.09  -0.06   0.04     0.03   0.02   0.02
  17   1    -0.05   0.11   0.12    -0.01  -0.05  -0.00     0.07   0.02   0.01
                     10                     11                     12
                        a                      a                      a 
 Frequencies --   600.7155               675.5014               814.7108
 Red. masses --    11.5591                 9.7670                 5.4681
 Frc consts  --     0.0000                 0.0000                 0.0000
 IR Inten    --    12.0367                20.7508                19.8277
 Raman Activ --     0.0000                 0.0000                 0.0000
 Depolar     --     0.0000                 0.0000                 0.0000
 Atom AN      X      Y      Z        X      Y      Z        X      Y      Z
   1   6     0.03  -0.02   0.03     0.03  -0.00   0.01    -0.09  -0.00   0.04
   2   6     0.16  -0.10  -0.03     0.03  -0.16  -0.00    -0.29  -0.02   0.07
   3   6     0.38   0.15  -0.30    -0.20  -0.18   0.05    -0.04  -0.07  -0.09
   4   6     0.05   0.28  -0.26    -0.46   0.35  -0.42     0.26  -0.13   0.04
   5   8    -0.30  -0.30   0.13     0.11   0.02   0.24    -0.05  -0.18  -0.17
   6   8    -0.06   0.16   0.31     0.14  -0.13   0.10    -0.00   0.26   0.14
   7   6    -0.24  -0.08   0.09     0.14   0.04  -0.05     0.01   0.04   0.02
   8   1     0.01   0.01   0.05     0.02   0.02   0.06     0.08   0.05  -0.14
   9   1    -0.02  -0.01  -0.03     0.02   0.05   0.02     0.21   0.05   0.32
  10   1    -0.02   0.01   0.02     0.01   0.02  -0.08     0.07   0.03  -0.26
  11   1     0.06  -0.15  -0.00     0.04   0.20   0.06     0.08   0.32   0.28
  12   1    -0.04   0.01   0.04     0.21  -0.13  -0.11     0.21  -0.08  -0.30
  13   1     0.15   0.02  -0.08    -0.01  -0.13   0.21     0.05  -0.09   0.10
  14   1     0.18   0.03  -0.10     0.16   0.11  -0.02     0.02   0.12  -0.03
  15   1    -0.15  -0.08   0.03     0.01   0.03  -0.01    -0.06  -0.05   0.01
  16   1    -0.10  -0.06  -0.00     0.08   0.05  -0.04    -0.06  -0.05   0.00
  17   1     0.04  -0.03  -0.07    -0.01   0.03  -0.00     0.13  -0.00  -0.08
                     13                     14                     15
                        a                      a                      a 
 Frequencies --   874.9281               899.4909               942.7963
 Red. masses --     7.9172                 7.8297                 6.0654
 Frc consts  --     0.0000                 0.0000                 0.0000
 IR Inten    --    23.9686                13.3183                 4.0887
 Raman Activ --     0.0000                 0.0000                 0.0000
 Depolar     --     0.0000                 0.0000                 0.0000
 Atom AN      X      Y      Z        X      Y      Z        X      Y      Z
   1   6    -0.06  -0.09   0.00    -0.11   0.00  -0.29    -0.15   0.25  -0.21
   2   6    -0.03  -0.12   0.02    -0.07   0.12   0.16    -0.11   0.20   0.14
   3   6     0.24   0.23  -0.02     0.12  -0.09   0.52     0.23  -0.31  -0.04
   4   6    -0.03   0.14   0.12     0.03   0.12  -0.28     0.02   0.10   0.06
   5   8    -0.02   0.23   0.17     0.09  -0.19  -0.10    -0.06   0.09   0.11
   6   8     0.04  -0.35  -0.28     0.03   0.06   0.09     0.07  -0.10  -0.11
   7   6    -0.23  -0.13   0.05    -0.02   0.02   0.04    -0.12  -0.07   0.03
   8   1     0.10   0.08   0.07    -0.01   0.02  -0.04    -0.12  -0.09  -0.50
   9   1     0.11   0.08   0.17    -0.03   0.04  -0.08     0.04  -0.14   0.02
  10   1    -0.02   0.07  -0.30    -0.05   0.03  -0.15     0.12  -0.12   0.21
  11   1     0.11   0.07   0.18    -0.06   0.11  -0.01    -0.01   0.05   0.06
  12   1     0.02   0.03  -0.26    -0.07   0.09  -0.06     0.10  -0.06   0.18
  13   1     0.13   0.10  -0.22    -0.05   0.13  -0.22     0.24  -0.20   0.06
  14   1    -0.01  -0.13   0.00     0.01  -0.48   0.13     0.13   0.01  -0.02
  15   1     0.06   0.06  -0.00    -0.06  -0.04   0.01     0.03   0.03  -0.00
  16   1     0.03   0.05   0.02    -0.04  -0.03  -0.00     0.02   0.03   0.01
  17   1    -0.26  -0.02   0.15     0.08  -0.00  -0.06    -0.13  -0.01   0.08
                     16                     17                     18
                        a                      a                      a 
 Frequencies --  1005.3224              1073.0719              1080.0550
 Red. masses --     9.1630                 8.7375                 5.0286
 Frc consts  --     0.0000                 0.0000                 0.0000
 IR Inten    --    12.1377                82.0475                15.0787
 Raman Activ --     0.0000                 0.0000                 0.0000
 Depolar     --     0.0000                 0.0000                 0.0000
 Atom AN      X      Y      Z        X      Y      Z        X      Y      Z
   1   6    -0.15  -0.01  -0.16    -0.04  -0.11  -0.24    -0.22   0.12   0.10
   2   6     0.15   0.07   0.12     0.13   0.05   0.26     0.30  -0.13  -0.16
   3   6     0.19  -0.03  -0.12    -0.16  -0.10  -0.15    -0.10   0.03   0.15
   4   6    -0.27  -0.18   0.11    -0.03  -0.12   0.09    -0.10   0.05  -0.14
   5   8    -0.03   0.11   0.09    -0.04   0.03   0.02     0.05  -0.06  -0.03
   6   8    -0.37  -0.05   0.19     0.43   0.24  -0.14     0.20   0.07  -0.04
   7   6     0.41   0.09  -0.20    -0.28  -0.08   0.16    -0.12   0.02   0.09
   8   1     0.03   0.03  -0.15     0.03   0.03   0.07     0.01  -0.01  -0.34
   9   1     0.08   0.01   0.11    -0.03   0.05  -0.08     0.16  -0.07   0.30
  10   1     0.01   0.01  -0.18    -0.07   0.04  -0.19     0.12  -0.06  -0.03
  11   1     0.15  -0.22   0.16     0.05  -0.10   0.07     0.22  -0.34   0.12
  12   1    -0.13   0.13  -0.02    -0.06   0.06   0.07    -0.07   0.03   0.04
  13   1    -0.15   0.08   0.02    -0.35   0.06   0.20    -0.16   0.09  -0.01
  14   1     0.25  -0.07  -0.07     0.34  -0.02  -0.11    -0.38   0.10   0.11
  15   1     0.06   0.01  -0.04    -0.03   0.02   0.03    -0.04  -0.03   0.02
  16   1     0.06   0.00  -0.02     0.03   0.04  -0.02    -0.04  -0.02   0.00
  17   1     0.10   0.02  -0.04    -0.08  -0.01   0.03     0.05  -0.00  -0.04
                     19                     20                     21
                        a                      a                      a 
 Frequencies --  1113.6732              1117.5621              1140.6150
 Red. masses --     3.8558                 8.3261                 6.3301
 Frc consts  --     0.0000                 0.0000                 0.0000
 IR Inten    --     1.7648                27.9121                27.0274
 Raman Activ --     0.0000                 0.0000                 0.0000
 Depolar     --     0.0000                 0.0000                 0.0000
 Atom AN      X      Y      Z        X      Y      Z        X      Y      Z
   1   6    -0.00   0.02   0.01    -0.01   0.04  -0.35    -0.03   0.01  -0.04
   2   6    -0.01  -0.01  -0.02     0.11  -0.34   0.40     0.06  -0.06   0.05
   3   6     0.02   0.02   0.02    -0.18   0.40  -0.03    -0.09   0.03   0.04
   4   6    -0.00  -0.01   0.00     0.10   0.02   0.02     0.20   0.11  -0.08
   5   8    -0.00   0.00  -0.01     0.02   0.00  -0.03     0.00  -0.13  -0.09
   6   8    -0.14   0.11  -0.15    -0.11  -0.11  -0.02    -0.13   0.23   0.26
   7   6     0.22  -0.22   0.30     0.05   0.07   0.01     0.06  -0.32  -0.27
   8   1    -0.00  -0.00  -0.02    -0.07  -0.04  -0.09    -0.01  -0.00  -0.03
   9   1     0.00  -0.01   0.01    -0.08  -0.03  -0.19     0.00  -0.01   0.00
  10   1     0.01  -0.01   0.02    -0.01  -0.02   0.01     0.01  -0.00  -0.02
  11   1    -0.00   0.01  -0.00     0.07   0.05   0.18     0.02  -0.01   0.02
  12   1     0.01  -0.01  -0.00     0.28  -0.26   0.22     0.02  -0.02   0.04
  13   1     0.03  -0.00  -0.02     0.04   0.07  -0.05    -0.11   0.04   0.04
  14   1    -0.02  -0.01   0.01    -0.12   0.08   0.01    -0.10   0.03   0.03
  15   1    -0.54   0.04   0.13    -0.05  -0.05   0.01     0.25   0.22  -0.08
  16   1     0.45   0.14  -0.40    -0.06  -0.04  -0.00     0.23   0.17   0.05
  17   1    -0.16   0.11  -0.16     0.10   0.01  -0.06    -0.50  -0.03   0.30
                     22                     23                     24
                        a                      a                      a 
 Frequencies --  1184.2887              1211.6952              1246.1988
 Red. masses --     5.5108                 9.8374                 3.6543
 Frc consts  --     0.0000                 0.0000                 0.0000
 IR Inten    --    38.5784               364.2573                14.6882
 Raman Activ --     0.0000                 0.0000                 0.0000
 Depolar     --     0.0000                 0.0000                 0.0000
 Atom AN      X      Y      Z        X      Y      Z        X      Y      Z
   1   6    -0.04  -0.26  -0.15     0.11  -0.00  -0.07     0.27   0.15  -0.09
   2   6     0.10   0.37   0.23    -0.14   0.03   0.06    -0.20  -0.08   0.10
   3   6    -0.01  -0.24  -0.07     0.24   0.09  -0.02     0.07  -0.18  -0.04
   4   6     0.09   0.16  -0.06    -0.55  -0.40  -0.01     0.11   0.14  -0.04
   5   8     0.00  -0.02   0.00     0.08  -0.04  -0.07    -0.03   0.01   0.04
   6   8    -0.07  -0.10  -0.02     0.22   0.31   0.10    -0.04  -0.08  -0.03
   7   6     0.03   0.02   0.01    -0.07  -0.06  -0.01     0.01   0.02   0.01
   8   1     0.09   0.07   0.18    -0.02  -0.02   0.07    -0.10  -0.07   0.05
   9   1    -0.01   0.12  -0.02    -0.05   0.01  -0.12    -0.12  -0.05  -0.27
  10   1    -0.11   0.08  -0.30    -0.04   0.01   0.07    -0.01  -0.00   0.26
  11   1     0.03  -0.11   0.05     0.06  -0.01   0.15     0.23  -0.11   0.41
  12   1    -0.08   0.12   0.18     0.06  -0.04  -0.03    -0.21   0.20  -0.41
  13   1     0.23  -0.20   0.05     0.28  -0.04  -0.17    -0.23   0.05   0.09
  14   1    -0.41   0.29   0.07    -0.23   0.07   0.05    -0.18   0.10   0.03
  15   1    -0.04  -0.02   0.01     0.10   0.07  -0.02    -0.03  -0.02   0.01
  16   1    -0.01  -0.02  -0.01     0.08   0.07   0.01    -0.02  -0.02  -0.01
  17   1     0.02   0.01  -0.02    -0.03  -0.01   0.02     0.01   0.00  -0.01
                     25                     26                     27
                        a                      a                      a 
 Frequencies --  1302.2410              1332.6093              1375.5104
 Red. masses --     4.3551                 4.5423                 2.5894
 Frc consts  --     0.0000                 0.0000                 0.0000
 IR Inten    --     8.5729                 6.4594                15.4669
 Raman Activ --     0.0000                 0.0000                 0.0000
 Depolar     --     0.0000                 0.0000                 0.0000
 Atom AN      X      Y      Z        X      Y      Z        X      Y      Z
   1   6     0.04   0.03  -0.02    -0.07   0.11   0.04     0.00  -0.00  -0.01
   2   6     0.10   0.05  -0.08     0.30  -0.24   0.36    -0.01   0.01  -0.02
   3   6    -0.48   0.14   0.12    -0.06   0.01  -0.10    -0.02   0.00   0.00
   4   6     0.05   0.00   0.04    -0.05  -0.05   0.01     0.08   0.04  -0.02
   5   8     0.03  -0.06  -0.08     0.01  -0.00  -0.01    -0.01   0.03   0.03
   6   8     0.00   0.03   0.01     0.01   0.03   0.01    -0.12  -0.07   0.03
   7   6    -0.01  -0.01  -0.01    -0.02  -0.01   0.00    -0.28  -0.12   0.10
   8   1     0.00   0.01   0.03    -0.03  -0.03  -0.21     0.00   0.00   0.01
   9   1     0.00  -0.00  -0.02    -0.04  -0.06  -0.04     0.01   0.00   0.01
  10   1     0.01  -0.01   0.06     0.05  -0.00  -0.06    -0.00  -0.00   0.01
  11   1     0.21  -0.25   0.22    -0.26   0.24  -0.34     0.02  -0.00   0.02
  12   1    -0.15   0.14  -0.11    -0.31   0.29  -0.37     0.00  -0.01   0.02
  13   1     0.52  -0.29  -0.04     0.15  -0.08  -0.03    -0.01  -0.01   0.03
  14   1     0.30  -0.19  -0.06    -0.07   0.12  -0.01    -0.00  -0.03   0.00
  15   1    -0.00   0.00  -0.00     0.03   0.02  -0.00     0.48   0.25  -0.05
  16   1    -0.00   0.00   0.01     0.02   0.02  -0.01     0.37   0.28  -0.17
  17   1    -0.02  -0.00   0.02     0.03  -0.00  -0.02     0.45  -0.06  -0.34
                     28                     29                     30
                        a                      a                      a 
 Frequencies --  1414.5497              1425.2627              1434.4450
 Red. masses --     3.1536                 1.5135                 2.0930
 Frc consts  --     0.0000                 0.0000                 0.0000
 IR Inten    --     1.4263                13.2301                 7.4678
 Raman Activ --     0.0000                 0.0000                 0.0000
 Depolar     --     0.0000                 0.0000                 0.0000
 Atom AN      X      Y      Z        X      Y      Z        X      Y      Z
   1   6    -0.14   0.04  -0.40     0.00   0.00   0.00     0.00  -0.00   0.07
   2   6     0.05  -0.06   0.05     0.00  -0.00  -0.00    -0.00   0.02   0.01
   3   6     0.03   0.02  -0.05    -0.01  -0.01   0.01     0.10   0.21  -0.19
   4   6    -0.02  -0.01  -0.01     0.00  -0.00   0.00    -0.03  -0.02  -0.03
   5   8    -0.00   0.01   0.01    -0.00   0.00  -0.00    -0.01   0.02   0.02
   6   8     0.01   0.00  -0.00     0.03  -0.02   0.03     0.01   0.01   0.01
   7   6     0.01   0.00   0.00     0.11  -0.10   0.15     0.02   0.00   0.01
   8   1     0.05   0.16   0.47    -0.01  -0.01  -0.00     0.02   0.00  -0.06
   9   1     0.30  -0.04   0.39    -0.00  -0.01  -0.00    -0.05  -0.00  -0.06
  10   1     0.10  -0.21   0.45    -0.00   0.00  -0.01     0.02   0.01  -0.07
  11   1    -0.03   0.12  -0.03     0.00   0.00   0.00    -0.02  -0.04  -0.04
  12   1    -0.10   0.06  -0.00    -0.00   0.00   0.00     0.04  -0.01  -0.04
  13   1    -0.00  -0.03   0.09     0.00   0.01  -0.04     0.03  -0.20   0.64
  14   1    -0.07  -0.05   0.01     0.02   0.03  -0.00    -0.31  -0.57   0.03
  15   1    -0.00  -0.00   0.00     0.19   0.42  -0.01    -0.00   0.01   0.00
  16   1    -0.01  -0.01  -0.01    -0.33  -0.33  -0.07    -0.03  -0.03  -0.00
  17   1    -0.01   0.01  -0.00    -0.34   0.32  -0.54    -0.03   0.02  -0.02
                     31                     32                     33
                        a                      a                      a 
 Frequencies --  1451.0220              1477.8527              1496.1412
 Red. masses --     1.5975                 1.9378                 1.5161
 Frc consts  --     0.0000                 0.0000                 0.0000
 IR Inten    --     2.3651                 0.5728                 2.5971
 Raman Activ --     0.0000                 0.0000                 0.0000
 Depolar     --     0.0000                 0.0000                 0.0000
 Atom AN      X      Y      Z        X      Y      Z        X      Y      Z
   1   6     0.00  -0.00   0.00    -0.02   0.01  -0.05    -0.18  -0.08   0.06
   2   6     0.00  -0.00   0.00    -0.07   0.17   0.21    -0.05  -0.01   0.01
   3   6     0.00   0.00   0.00    -0.02  -0.01   0.02     0.00  -0.01   0.01
   4   6    -0.01   0.01   0.02     0.02   0.03   0.00     0.00  -0.00   0.00
   5   8     0.00  -0.03  -0.02     0.00  -0.01  -0.01     0.00  -0.00   0.00
   6   8    -0.03   0.04   0.04    -0.01  -0.01   0.00     0.00   0.00   0.00
   7   6    -0.03   0.17   0.13    -0.00  -0.00   0.00    -0.00  -0.00   0.00
   8   1    -0.00  -0.00  -0.01    -0.01   0.01   0.04     0.56   0.40  -0.10
   9   1    -0.00   0.01  -0.00     0.05   0.02   0.06    -0.23   0.23  -0.27
  10   1    -0.01   0.01  -0.00    -0.01  -0.01   0.07     0.43  -0.30   0.11
  11   1    -0.00  -0.00  -0.00    -0.18  -0.57  -0.29     0.01  -0.01   0.03
  12   1     0.01  -0.00  -0.00     0.46  -0.12  -0.47     0.01  -0.01  -0.03
  13   1     0.00   0.00  -0.00    -0.01   0.02  -0.04    -0.01   0.02  -0.04
  14   1     0.00   0.00  -0.00     0.01   0.04   0.00     0.01   0.03  -0.00
  15   1     0.42  -0.51  -0.04     0.01   0.01  -0.00     0.01   0.00  -0.00
  16   1     0.02  -0.21  -0.64     0.00   0.01   0.00    -0.00  -0.00  -0.00
  17   1    -0.20   0.05   0.10     0.01  -0.00  -0.01    -0.00   0.00  -0.00
                     34                     35                     36
                        a                      a                      a 
 Frequencies --  1502.3803              1699.3240              2985.9500
 Red. masses --     1.5787                13.2975                 1.9587
 Frc consts  --     0.0000                 0.0000                 0.0000
 IR Inten    --     0.3782               674.3638                17.1729
 Raman Activ --     0.0000                 0.0000                 0.0000
 Depolar     --     0.0000                 0.0000                 0.0000
 Atom AN      X      Y      Z        X      Y      Z        X      Y      Z
   1   6     0.07  -0.20  -0.05     0.00   0.00   0.00     0.00   0.00  -0.00
   2   6     0.03  -0.06   0.00    -0.01   0.01   0.00    -0.02  -0.01   0.01
   3   6    -0.01   0.01  -0.00    -0.07   0.01   0.06     0.00   0.00   0.01
   4   6     0.01  -0.01  -0.01     0.31  -0.49  -0.55     0.00  -0.00   0.00
   5   8    -0.01   0.01   0.01    -0.20   0.38   0.40    -0.00   0.00  -0.00
   6   8    -0.00  -0.00   0.00     0.00   0.04   0.03    -0.00   0.00  -0.00
   7   6     0.00  -0.00  -0.00     0.01   0.00  -0.01    -0.13   0.13  -0.23
   8   1     0.10  -0.01  -0.33    -0.00  -0.00   0.01    -0.00   0.00  -0.00
   9   1     0.05   0.68   0.13    -0.00  -0.02  -0.00    -0.01  -0.00   0.01
  10   1    -0.43   0.14   0.38     0.01  -0.00  -0.01    -0.00  -0.01  -0.00
  11   1    -0.01   0.03  -0.01     0.00  -0.02   0.01     0.05   0.00  -0.04
  12   1    -0.03   0.01  -0.01    -0.00   0.00  -0.01     0.03   0.05   0.01
  13   1    -0.00  -0.00   0.02     0.05  -0.02  -0.04    -0.01  -0.01  -0.00
  14   1    -0.01  -0.02   0.00    -0.03   0.01   0.01    -0.00   0.00  -0.02
  15   1    -0.00   0.01   0.00     0.00  -0.03  -0.00     0.07   0.02   0.69
  16   1    -0.00  -0.00   0.01    -0.01  -0.02  -0.02     0.42  -0.48   0.15
  17   1    -0.00   0.00  -0.00    -0.03  -0.00   0.02    -0.02   0.01  -0.04
                     37                     38                     39
                        a                      a                      a 
 Frequencies --  2987.1458              2988.7011              2996.2291
 Red. masses --     1.8206                 1.8761                 1.3852
 Frc consts  --     0.0000                 0.0000                 0.0000
 IR Inten    --    20.1260                15.8426                20.5010
 Raman Activ --     0.0000                 0.0000                 0.0000
 Depolar     --     0.0000                 0.0000                 0.0000
 Atom AN      X      Y      Z        X      Y      Z        X      Y      Z
   1   6     0.03   0.01  -0.01    -0.03  -0.01   0.01     0.00   0.00  -0.00
   2   6    -0.19  -0.10   0.07     0.14   0.12  -0.02    -0.00   0.00   0.00
   3   6    -0.02   0.03  -0.14    -0.05  -0.02  -0.20    -0.00   0.00  -0.01
   4   6     0.00  -0.00  -0.01    -0.00  -0.00  -0.01    -0.00  -0.00  -0.00
   5   8    -0.00   0.00   0.00    -0.00   0.00   0.00    -0.00   0.00   0.00
   6   8    -0.00   0.00   0.00    -0.00  -0.00   0.00     0.01   0.00  -0.01
   7   6     0.00  -0.00   0.02    -0.01   0.01  -0.01     0.10  -0.11  -0.11
   8   1    -0.00   0.01  -0.00    -0.00  -0.01   0.00    -0.00   0.00  -0.00
   9   1    -0.08  -0.00   0.06     0.07   0.00  -0.06    -0.00  -0.00   0.00
  10   1    -0.03  -0.06  -0.02     0.03   0.05   0.02    -0.00  -0.00  -0.00
  11   1     0.52   0.04  -0.37    -0.26  -0.01   0.19     0.01   0.00  -0.00
  12   1     0.16   0.31   0.10    -0.24  -0.43  -0.12    -0.00  -0.01  -0.00
  13   1    -0.06  -0.10  -0.05     0.05   0.11   0.01    -0.01  -0.01  -0.00
  14   1     0.12  -0.01   0.58     0.14  -0.02   0.71     0.01  -0.00   0.03
  15   1    -0.01  -0.00  -0.06     0.00   0.00   0.03     0.09  -0.02   0.67
  16   1    -0.01   0.01  -0.00     0.04  -0.05   0.02    -0.45   0.50  -0.21
  17   1     0.00   0.00   0.00    -0.00   0.00  -0.00    -0.02  -0.10  -0.04
                     40                     41                     42
                        a                      a                      a 
 Frequencies --  2999.4320              3011.2466              3021.9974
 Red. masses --     1.4824                 1.7724                 1.8865
 Frc consts  --     0.0000                 0.0000                 0.0000
 IR Inten    --    31.6092                37.0545                94.4813
 Raman Activ --     0.0000                 0.0000                 0.0000
 Depolar     --     0.0000                 0.0000                 0.0000
 Atom AN      X      Y      Z        X      Y      Z        X      Y      Z
   1   6     0.02  -0.02  -0.01    -0.01  -0.03  -0.00    -0.24  -0.06   0.12
   2   6    -0.04   0.13   0.13     0.03   0.06   0.02    -0.05  -0.02   0.02
   3   6    -0.02  -0.04   0.05     0.11   0.21   0.08    -0.00  -0.00   0.01
   4   6     0.00  -0.00   0.00     0.00   0.01   0.00     0.00  -0.00   0.00
   5   8    -0.00   0.00   0.00     0.00  -0.00  -0.00    -0.00   0.00  -0.00
   6   8    -0.00  -0.00   0.00    -0.00  -0.00  -0.00     0.00   0.00  -0.00
   7   6     0.00   0.00   0.00    -0.00   0.00   0.00     0.00  -0.00  -0.00
   8   1    -0.04   0.06  -0.01    -0.03   0.03  -0.01     0.02  -0.09   0.03
   9   1    -0.06  -0.01   0.05     0.00  -0.00  -0.00     0.72   0.05  -0.53
  10   1     0.03   0.04   0.01     0.04   0.07   0.02     0.11   0.24   0.08
  11   1     0.52   0.07  -0.35     0.01   0.01  -0.00     0.13   0.01  -0.09
  12   1    -0.35  -0.56  -0.14    -0.13  -0.21  -0.06     0.03   0.05   0.02
  13   1     0.09   0.17   0.06    -0.42  -0.78  -0.26     0.00   0.01   0.00
  14   1    -0.05  -0.00  -0.22     0.01   0.03  -0.01    -0.01   0.00  -0.02
  15   1     0.00   0.00  -0.00    -0.00   0.00  -0.01     0.00  -0.00   0.01
  16   1    -0.00   0.00  -0.00     0.00  -0.01   0.00    -0.00   0.00  -0.00
  17   1    -0.00  -0.00  -0.00     0.00   0.01   0.00    -0.00  -0.00  -0.00
                     43                     44                     45
                        a                      a                      a 
 Frequencies --  3036.3588              3045.5504              3056.4539
 Red. masses --     1.8156                 1.4509                 1.8009
 Frc consts  --     0.0000                 0.0000                 0.0000
 IR Inten    --    71.5050                37.8379                 2.9922
 Raman Activ --     0.0000                 0.0000                 0.0000
 Depolar     --     0.0000                 0.0000                 0.0000
 Atom AN      X      Y      Z        X      Y      Z        X      Y      Z
   1   6     0.01   0.26   0.07    -0.14   0.12  -0.09     0.00  -0.00  -0.00
   2   6     0.01   0.03   0.01    -0.01   0.01   0.00    -0.00   0.00   0.00
   3   6     0.01   0.01   0.01     0.00   0.00   0.00    -0.00  -0.00  -0.00
   4   6     0.00   0.00   0.00     0.00   0.00  -0.00     0.00  -0.00  -0.00
   5   8    -0.00  -0.00  -0.00    -0.00   0.00   0.00    -0.00   0.00   0.00
   6   8    -0.00  -0.00  -0.00    -0.00  -0.00   0.00    -0.00  -0.00   0.00
   7   6    -0.00  -0.00  -0.00    -0.00  -0.00  -0.00    -0.07  -0.24  -0.10
   8   1     0.22  -0.26   0.07     0.52  -0.71   0.13    -0.00   0.00  -0.00
   9   1     0.20   0.05  -0.13    -0.19   0.00   0.11     0.00  -0.00   0.00
  10   1    -0.45  -0.70  -0.19     0.15   0.29   0.07     0.00   0.00   0.00
  11   1     0.02   0.01  -0.01     0.03   0.00  -0.02     0.00   0.00  -0.00
  12   1    -0.06  -0.10  -0.02    -0.01  -0.02  -0.01    -0.00  -0.00  -0.00
  13   1    -0.03  -0.05  -0.02    -0.00  -0.01  -0.00     0.00   0.01   0.00
  14   1    -0.00   0.00  -0.02    -0.00   0.00  -0.00    -0.00  -0.00  -0.00
  15   1    -0.00   0.00   0.00     0.00  -0.00   0.00     0.01  -0.03   0.06
  16   1     0.00  -0.00   0.00    -0.00   0.00  -0.00    -0.04   0.01  -0.03
  17   1     0.00   0.01   0.00     0.00   0.00   0.00     0.29   0.86   0.32
