      -----------------------------------------------------------      
     |                   =====================                   |     
     |                           x T B                           |     
     |                   =====================                   |     
     |                         S. Grimme                         |     
     |          Mulliken Center for Theoretical Chemistry        |     
     |                    University of Bonn                     |     
      -----------------------------------------------------------      

   * xtb version 6.7.1 (edcfbbe) compiled by 'albert@albert-system' on 2024-07-22

   xtb is free software: you can redistribute it and/or modify it under
   the terms of the GNU Lesser General Public License as published by
   the Free Software Foundation, either version 3 of the License, or
   (at your option) any later version.
   
   xtb is distributed in the hope that it will be useful,
   but WITHOUT ANY WARRANTY; without even the implied warranty of
   MERCHANTABILITY or FITNESS FOR A PARTICULAR PURPOSE.  See the
   GNU Lesser General Public License for more details.
   
   Cite this work as:
   * C. Bannwarth, E. Caldeweyher, S. Ehlert, A. Hansen, P. Pracht,
     J. Seibert, S. Spicher, S. Grimme, WIREs Comput. Mol. Sci., 2020, 11,
     e01493. DOI: 10.1002/wcms.1493
   
   for GFN2-xTB:
   * C. Bannwarth, S. Ehlert and S. Grimme., J. Chem. Theory Comput., 2019,
     15, 1652-1671. DOI: 10.1021/acs.jctc.8b01176
   for GFN1-xTB:
   * S. Grimme, C. Bannwarth, P. Shushkov, J. Chem. Theory Comput., 2017,
     13, 1989-2009. DOI: 10.1021/acs.jctc.7b00118
   for GFN0-xTB:
   * P. Pracht, E. Caldeweyher, S. Ehlert, S. Grimme, ChemRxiv, 2019, preprint.
     DOI: 10.26434/chemrxiv.8326202.v1
   for GFN-FF:
   * S. Spicher and S. Grimme, Angew. Chem. Int. Ed., 2020, 59, 15665-15673.
     DOI: 10.1002/anie.202004239
   
   for ALPB and GBSA implicit solvation:
   * S. Ehlert, M. Stahn, S. Spicher, S. Grimme, J. Chem. Theory Comput.,
     2021, 17, 4250-4261. DOI: 10.1021/acs.jctc.1c00471
   
   for ddCOSMO and CPCM-X implicit solvation:
   * M. Stahn, S. Ehlert, S. Grimme, J. Phys. Chem. A,
     2023, XX, XXXX-XXXX. DOI: 10.1021/acs.jpca.3c04382
   
   for DFT-D4:
   * E. Caldeweyher, C. Bannwarth and S. Grimme, J. Chem. Phys., 2017,
     147, 034112. DOI: 10.1063/1.4993215
   * E. Caldeweyher, S. Ehlert, A. Hansen, H. Neugebauer, S. Spicher,
     C. Bannwarth and S. Grimme, J. Chem. Phys., 2019, 150, 154122.
     DOI: 10.1063/1.5090222
   * E. Caldeweyher, J.-M. Mewes, S. Ehlert and S. Grimme, Phys. Chem. Chem. Phys.
     2020, 22, 8499-8512. DOI: 10.1039/D0CP00502A
   
   for sTDA-xTB:
   * S. Grimme and C. Bannwarth, J. Chem. Phys., 2016, 145, 054103.
     DOI: 10.1063/1.4959605
   
   in the mass-spec context:
   * V. Asgeirsson, C. Bauer and S. Grimme, Chem. Sci., 2017, 8, 4879.
     DOI: 10.1039/c7sc00601b
   * J. Koopman and S. Grimme, ACS Omega 2019, 4, 12, 15120-15133.
     DOI: 10.1021/acsomega.9b02011
   
   for metadynamics refer to:
   * S. Grimme, J. Chem. Theory Comput., 2019, 155, 2847-2862
     DOI: 10.1021/acs.jctc.9b00143
   
   for SPH calculations refer to:
   * S. Spicher and S. Grimme, J. Chem. Theory Comput., 2021, 17, 1701-1714
     DOI: 10.1021/acs.jctc.0c01306
   
   for ONIOM refer to:
   * C. Plett, A. Katbashev, S. Ehlert, S. Grimme, M. Bursch,
     Phys. Chem. Chem. Phys., 2023, 25, 17860-17868. DOI: 10.1039/D3CP02178E
   
   for DIPRO refer to:
   * J. Kohn, N. Gildemeister, S. Grimme, D. Fazzi, A. Hansen,
     J. Chem. Phys., 2023, just accepted.
   
   for PTB refer to:
   * S. Grimme, M. Mueller, A. Hansen, J. Chem. Phys., 2023, 158, 124111.
     DOI: 10.1063/5.0137838
   
   with help from (in alphabetical order)
   P. Atkinson, C. Bannwarth, F. Bohle, G. Brandenburg, E. Caldeweyher
   M. Checinski, S. Dohm, S. Ehlert, S. Ehrlich, I. Gerasimov, C. Hölzer
   A. Katbashev, J. Kohn, J. Koopman, C. Lavigne, S. Lehtola, F. März, M. Müller,
   F. Musil, H. Neugebauer, J. Pisarek, C. Plett, P. Pracht, F. Pultar,
   J. Seibert, P. Shushkov, S. Spicher, M. Stahn, M. Steiner, T. Strunk,
   J. Stückrath, T. Rose, and J. Unsleber
   
 * started run on 2025/04/11 at 11:16:06.870     
   ID    Z sym.   atoms
    1    6 C      1-5
    2    8 O      6, 7
    3    1 H      8-17

           -------------------------------------------------
          |                Calculation Setup                |
           -------------------------------------------------

          program call               : /srv/scratch/z5358697/.xtb/bin/xtb xtb_opt.coord --opt normal --orca -I xtb_opt-xcontrol-inp
          hostname                   : k114
          coordinate file            : xtb_opt.coord
          omp threads                :                    11

           -------------------------------------------------
          |                   Orca driver                   |
           -------------------------------------------------
orca executable           : /apps/z_install_tree/linux-rocky8-ivybridge/gcc-12.2.0/orca-6.0.0-srtngmq3qlimg2qxbl6avaaiffipurdx/bin/orca
orca input file           : xtb_opt.inp
orca input line           : 
orca parallel             : true
orca number of threads    : 11
                         * ORCA takes the control...
  ------------------------------------------------------------------------

                                 *****************
                                 * O   R   C   A *
                                 *****************

                                            #,                                       
                                            ###                                      
                                            ####                                     
                                            #####                                    
                                            ######                                   
                                           ########,                                 
                                     ,,################,,,,,                         
                               ,,#################################,,                 
                          ,,##########################################,,             
                       ,#########################################, ''#####,          
                    ,#############################################,,   '####,        
                  ,##################################################,,,,####,       
                ,###########''''           ''''###############################       
              ,#####''   ,,,,##########,,,,          '''####'''          '####       
            ,##' ,,,,###########################,,,                        '##       
           ' ,,###''''                  '''############,,,                           
         ,,##''                                '''############,,,,        ,,,,,,###''
      ,#''                                            '''#######################'''  
     '                                                          ''''####''''         
             ,#######,   #######,   ,#######,      ##                                
            ,#'     '#,  ##    ##  ,#'     '#,    #''#        ,####,   ,####,        
            ##       ##  ##   ,#'  ##            #'  '#       #'       #'  '#        
            ##       ##  #######   ##           ,######,      #####,   #    #        
            '#,     ,#'  ##    ##  '#,     ,#' ,#      #,     #,   #   #,  ,#        
             '#######'   ##     ##  '#######'  #'      '#     '####' # '####'        



                #########################################################
                #                        -***-                          #
                #          Department of theory and spectroscopy        #
                #                                                       #
                #                      Frank Neese                      #
                #                                                       #
                #     Directorship, Architecture, Infrastructure        #
                #                    SHARK, DRIVERS                     #
                #        Core code/Algorithms in most modules           #
                #                                                       #
                #        Max Planck Institute fuer Kohlenforschung      #
                #                Kaiser Wilhelm Platz 1                 #
                #                 D-45470 Muelheim/Ruhr                 #
                #                      Germany                          #
                #                                                       #
                #                  All rights reserved                  #
                #                        -***-                          #
                #########################################################


                         Program Version 6.0.0  -   RELEASE  -


 With contributions from (in alphabetic order):
   Daniel Aravena         : Magnetic Suceptibility
   Michael Atanasov       : Ab Initio Ligand Field Theory (pilot matlab implementation)
   Alexander A. Auer      : GIAO ZORA, VPT2 properties, NMR spectrum
   Ute Becker             : All parallelization in ORCA, NUMFREQ, NUMCALC
   Giovanni Bistoni       : ED, misc. LED, open-shell LED, HFLD
   Martin Brehm           : Molecular dynamics
   Dmytro Bykov           : pre 5.0 version of the SCF Hessian
   Marcos Casanova-Páez   : Triplet and SCS-CIS(D). UHF-(DLPNO)-IP/EA/STEOM-CCSD. UHF-CVS-IP/STEOM-CCSD
   Vijay G. Chilkuri      : MRCI spin determinant printing, contributions to CSF-ICE
   Pauline Colinet        : FMM embedding
   Dipayan Datta          : RHF DLPNO-CCSD density
   Achintya Kumar Dutta   : EOM-CC, STEOM-CC
   Nicolas Foglia         : Exact transition moments, OPA infrastructure, MCD improvements
   Dmitry Ganyushin       : Spin-Orbit,Spin-Spin,Magnetic field MRCI
   Miquel Garcia          : C-PCM and meta-GGA Hessian, CCSD/C-PCM, Gaussian charge scheme
   Tiago L. C. Gouveia    : GS-ROHF, GS-ROCIS
   Yang Guo               : DLPNO-NEVPT2, F12-NEVPT2, CIM, IAO-localization
   Andreas Hansen         : Spin unrestricted coupled pair/coupled cluster methods
   Ingolf Harden          : AUTO-CI MPn and infrastructure 
   Benjamin Helmich-Paris : MC-RPA, TRAH-(SCF,CASSCF), AVAS, COSX integrals, SCF dyn. polar.
   Lee Huntington         : MR-EOM, pCC
   Robert Izsak           : Overlap fitted RIJCOSX, COSX-SCS-MP3, EOM
   Riya Kayal             : Wick's Theorem for AUTO-CI, AUTO-CI UHF-CCSDT
   Emily Kempfer          : AUTO-CI, RHF CISDT and CCSDT
   Christian Kollmar      : KDIIS, OOCD, Brueckner-CCSD(T), CCSD density, CASPT2, CASPT2-K, improved NEVPT2
   Axel Koslowski         : Symmetry handling
   Simone Kossmann        : Meta GGA functionals, TD-DFT gradient, OOMP2, (MP2 Hessian; deprecated post 5.0)
   Lucas Lang             : DCDCAS
   Marvin Lechner         : AUTO-CI (C++ implementation), FIC-MRCC
   Spencer Leger          : CASSCF response
   Dagmar Lenk            : GEPOL surface, SMD, ORCA-2-JSON
   Dimitrios Liakos       : Extrapolation schemes; Compound Job, initial MDCI parallelization
   Dimitrios Manganas     : Further ROCIS development; embedding schemes. LFT, Crystal Embedding
   Dimitrios Pantazis     : SARC Basis sets
   Anastasios Papadopoulos: AUTO-CI, single reference methods and gradients
   Taras Petrenko         : pre 6.0 DFT Hessian and TD-DFT gradient, (ASA, deprecated), ECA, 1-Electron XAS/XES, NRVS
   Peter Pinski           : DLPNO-MP2, DLPNO-MP2 Gradient
   Christoph Reimann      : Effective Core Potentials
   Marius Retegan         : Local ZFS, SOC
   Christoph Riplinger    : Optimizer, TS searches, QM/MM, DLPNO-CCSD(T), (RO)-DLPNO pert. Triples
   Michael Roemelt        : Original ROCIS implementation
   Masaaki Saitow         : Open-shell DLPNO-CCSD energy and density
   Barbara Sandhoefer     : DKH picture change effects
   Kantharuban Sivalingam : CASSCF convergence/infrastructure, NEVPT2 and variants, FIC-MRCI
   Bernardo de Souza      : ESD, SOC TD-DFT
   Georgi Stoychev        : AutoAux, RI-MP2 NMR, DLPNO-MP2 response, X2C
   Van Anh Tran           : RI-MP2 g-tensors
   Willem Van den Heuvel  : Paramagnetic NMR
   Zikuan Wang            : NOTCH, Electric field optimization 
   Frank Wennmohs         : Technical directorship and infrastructure
   Hang Xu                : AUTO-CI-Response properties 


 We gratefully acknowledge several colleagues who have allowed us to
 interface, adapt or use parts of their codes:
   Stefan Grimme, W. Hujo, H. Kruse, P. Pracht,  : VdW corrections, initial TS optimization,
                  C. Bannwarth, S. Ehlert,         DFT functionals, gCP, sTDA/sTD-DF
                  L. Wittmann, M. Mueller
   Ed Valeev, F. Pavosevic, A. Kumar             : LibInt (2-el integral package), F12 methods
   Garnet Chan, S. Sharma, J. Yang, R. Olivares  : DMRG
   Ulf Ekstrom                                   : XCFun DFT Library
   Mihaly Kallay                                 : mrcc  (arbitrary order and MRCC methods)
   Frank Weinhold                                : gennbo (NPA and NBO analysis)
   Simon Mueller                                 : openCOSMO-RS
   Christopher J. Cramer and Donald G. Truhlar   : smd solvation model
   Lars Goerigk                                  : TD-DFT with DH, B97 family of functionals
   V. Asgeirsson, H. Jonsson                     : NEB implementation
   FAccTs GmbH                                   : IRC, NEB, NEB-TS, DLPNO-Multilevel, CI-OPT
                                                   MM, QMMM, 2- and 3-layer-ONIOM, Crystal-QMMM,
                                                   LR-CPCM, SF, NACMEs, symmetry and pop. for TD-DFT,
                                                   nearIR, NL-DFT gradient (VV10), updates on ESD,
                                                   ML-optimized integration grids, MBIS, APM,
                                                   GOAT, DOCKER, SOLVATOR, interface openCOSMO-RS
   S Lehtola, MJT Oliveira, MAL Marques          : LibXC Library
   Liviu Ungur et al                             : ANISO software


 Your calculation uses the libint2 library for the computation of 2-el integrals
 For citations please refer to: http://libint.valeyev.net

 Your ORCA version has been built with support for libXC version: 6.2.2
 For citations please refer to: https://libxc.gitlab.io

 This ORCA versions uses:
   CBLAS   interface :  Fast vector & matrix operations
   LAPACKE interface :  Fast linear algebra routines
   SCALAPACK package :  Parallel linear algebra routines
   Shared memory     :  Shared parallel matrices
   BLAS/LAPACK       :  OpenBLAS 0.3.27  USE64BITINT DYNAMIC_ARCH NO_AFFINITY SkylakeX SINGLE_THREADED
        Core in use  :  SkylakeX
   Copyright (c) 2011-2014, The OpenBLAS Project




***************************************
The coordinates will be read from file: xtb_opt.xyz
***************************************


Your calculation utilizes the geometrical counterpoise correction gCP
Please cite in your paper:
H.Kruse, S. Grimme J.Chem.Phys., 136, (2012), 154101 
   

Your calculation utilizes the atom-pairwise dispersion correction
based on EEQ partial charges (D4)


Your calculation utilizes the SMD solvation module
Please cite in your paper:
A.V. Marenich, C.J. Cramer, D.G. Truhlar J. Phys. Chem. B, 113, (2009), 6378 

================================================================================

----- Orbital basis set information -----
Your calculation utilizes the basis: def2-mTZVPP
   Stefan Grimme, Andreas Hansen, Sebastian Ehlert, and Jan-Michael Mewes 
   J. Chem. Phys. 154, 064103 (2021). DOI: 10.1063/5.0040021

----- AuxJ basis set information -----
Your calculation utilizes the auxiliary basis: def2/J
   F. Weigend, Phys. Chem. Chem. Phys. 8, 1057 (2006).

================================================================================
                                        WARNINGS
                       Please study these warnings very carefully!
================================================================================

Using LibXC functional ID 497 : Re-regularized SCAN exchange by Furness et al
[ 1]  J. W. Furness, A. D. Kaplan, J. Ning, J. P. Perdew, and J. Sun.,  J. Phys. Chem. Lett. 11, 8208-8215 (2020)
[ 2]  J. W. Furness, A. D. Kaplan, J. Ning, J. P. Perdew, and J. Sun.,  J. Phys. Chem. Lett. 11, 9248-9248 (2020)
Using LibXC functional ID 498 : Re-regularized SCAN correlation by Furness et al
[ 1]  J. W. Furness, A. D. Kaplan, J. Ning, J. P. Perdew, and J. Sun.,  J. Phys. Chem. Lett. 11, 8208-8215 (2020)
[ 2]  J. W. Furness, A. D. Kaplan, J. Ning, J. P. Perdew, and J. Sun.,  J. Phys. Chem. Lett. 11, 9248-9248 (2020)
Using LibXC functional ID 497 : Re-regularized SCAN exchange by Furness et al
[ 1]  J. W. Furness, A. D. Kaplan, J. Ning, J. P. Perdew, and J. Sun.,  J. Phys. Chem. Lett. 11, 8208-8215 (2020)
[ 2]  J. W. Furness, A. D. Kaplan, J. Ning, J. P. Perdew, and J. Sun.,  J. Phys. Chem. Lett. 11, 9248-9248 (2020)
Using LibXC functional ID 498 : Re-regularized SCAN correlation by Furness et al
[ 1]  J. W. Furness, A. D. Kaplan, J. Ning, J. P. Perdew, and J. Sun.,  J. Phys. Chem. Lett. 11, 8208-8215 (2020)
[ 2]  J. W. Furness, A. D. Kaplan, J. Ning, J. P. Perdew, and J. Sun.,  J. Phys. Chem. Lett. 11, 9248-9248 (2020)

================================================================================
                                       INPUT FILE
================================================================================
NAME = xtb_opt.inp
|  1> ! r2scan-3c def2/J RI DEFGRID2 scfconv7 ENGRAD tightSCF miniprint
|  2> %cpcm
|  3>     smd true
|  4>     smdsolvent "water"
|  5> end
|  6> * xyzfile 0 1 xtb_opt.xyz
|  7> 
|  8>                          ****END OF INPUT****
================================================================================

                     *******************************
                     * Energy+Gradient Calculation *
                     *******************************

---------------------------------
CARTESIAN COORDINATES (ANGSTROEM)
---------------------------------
  C      2.527816    0.744643    0.322112
  C      1.262605   -0.105143    0.245070
  C      1.402023   -1.181660   -0.828961
  C      0.048519    0.782599   -0.046535
  C     -1.260144    0.063562    0.128535
  O     -1.451381   -0.886738    0.857221
  O     -2.228050    0.602624   -0.600359
  H      2.447968    1.486533    1.112563
  H      2.694671    1.258897   -0.621351
  H      3.390134    0.116262    0.528042
  H      1.096208   -0.596328    1.209739
  H      2.256882   -1.818697   -0.617664
  H      0.511372   -1.805683   -0.857615
  H      1.542660   -0.727709   -1.807474
  H      0.086574    1.187888   -1.058247
  H      0.031508    1.625635    0.649324
  H     -3.089568    0.160482   -0.472346

----------------------------
CARTESIAN COORDINATES (A.U.)
----------------------------
  NO LB      ZA    FRAG     MASS         X           Y           Z
   0 C     6.0000    0    12.011    4.776880    1.407171    0.608703
   1 C     6.0000    0    12.011    2.385978   -0.198691    0.463115
   2 C     6.0000    0    12.011    2.649440   -2.233013   -1.566509
   3 C     6.0000    0    12.011    0.091687    1.478898   -0.087938
   4 C     6.0000    0    12.011   -2.381326    0.120115    0.242897
   5 O     8.0000    0    15.999   -2.742712   -1.675691    1.619914
   6 O     8.0000    0    15.999   -4.210404    1.138794   -1.134515
   7 H     1.0000    0     1.008    4.625989    2.809141    2.102440
   8 H     1.0000    0     1.008    5.092191    2.378970   -1.174184
   9 H     1.0000    0     1.008    6.406424    0.219703    0.997855
  10 H     1.0000    0     1.008    2.071532   -1.126897    2.286075
  11 H     1.0000    0     1.008    4.264888   -3.436839   -1.167215
  12 H     1.0000    0     1.008    0.966353   -3.412246   -1.620657
  13 H     1.0000    0     1.008    2.915204   -1.375172   -3.415632
  14 H     1.0000    0     1.008    0.163601    2.244783   -1.999797
  15 H     1.0000    0     1.008    0.059541    3.072005    1.227045
  16 H     1.0000    0     1.008   -5.838438    0.303267   -0.892605

------------------------------------------------------------------------------
                   ___                                                        
                  /   \      - P O W E R E D   B Y -                         
                 /     \                                                     
                 |  |  |   _    _      __       _____    __    __             
                 |  |  |  | |  | |    /  \     |  _  \  |  |  /  |          
                  \  \/   | |  | |   /    \    | | | |  |  | /  /          
                 / \  \   | |__| |  /  /\  \   | |_| |  |  |/  /          
                |  |  |   |  __  | /  /__\  \  |    /   |      \           
                |  |  |   | |  | | |   __   |  |    \   |  |\   \          
                \     /   | |  | | |  |  |  |  | |\  \  |  | \   \       
                 \___/    |_|  |_| |__|  |__|  |_| \__\ |__|  \__/        
                                                                              
                      - O R C A' S   B I G   F R I E N D -                    
                                      &                                       
                       - I N T E G R A L  F E E D E R -                       
                                                                              
 v1 FN, 2020, v2 2021, v3 2022-2024                                           
------------------------------------------------------------------------------


----------------------
SHARK INTEGRAL PACKAGE
----------------------

Number of atoms                             ...     17
Number of basis functions                   ...    193
Number of shells                            ...     95
Maximum angular momentum                    ...      2
Integral batch strategy                     ... SHARK/LIBINT Hybrid
RI-J (if used) integral strategy            ... SPLIT-RIJ (Revised 2003 algorithm where possible)
Printlevel                                  ...      1
Contraction scheme used                     ... SEGMENTED contraction
Prescreening option                         ... SCHWARTZ
   Thresh                                   ... 3.000e-11
   Tcut                                     ... 1.000e-12
   Tpresel                                  ... 1.000e-12 
Coulomb Range Separation                    ... NOT USED
Exchange Range Separation                   ... NOT USED
Multipole approximations                    ... NOT USED
Finite Nucleus Model                        ... NOT USED
CABS basis                                  ... NOT available
Auxiliary Coulomb fitting basis             ... AVAILABLE
   # of basis functions in Aux-J            ...    453
   # of shells in Aux-J                     ...    155
   Maximum angular momentum in Aux-J        ...      4
Auxiliary J/K fitting basis                 ... NOT available
Auxiliary Correlation fitting basis         ... NOT available
Auxiliary 'external' fitting basis          ... NOT available

Checking pre-screening integrals            ... done (  0.0 sec) Dimension = 95
Check shell pair data                       ... done (  0.0 sec)
Shell pair information
Shell pair cut-off parameter TPreSel        ...   1.0e-12
Total number of shell pairs                 ...      4560
Shell pairs after pre-screening             ...      4215
Total number of primitive shell pairs       ...     16115
Primitive shell pairs kept                  ...     10934
          la=0 lb=0:   1395 shell pairs
          la=1 lb=0:   1584 shell pairs
          la=1 lb=1:    468 shell pairs
          la=2 lb=0:    460 shell pairs
          la=2 lb=1:    264 shell pairs
          la=2 lb=2:     44 shell pairs

Calculating one electron integrals          ... done (  0.0 sec)
Calculating RI/J V-Matrix + Cholesky decomp.... done (  0.1 sec)
Calculating Nuclear repulsion               ... done (  0.0 sec) ENN=    317.042530128613 Eh

Diagonalization of the overlap matrix:
Smallest eigenvalue                        ... 1.440e-04
Time for diagonalization                   ...    0.004 sec
Threshold for overlap eigenvalues          ... 1.000e-07
Number of eigenvalues below threshold      ... 0
Time for construction of square roots      ...    0.014 sec
Total time needed                          ...    0.030 sec

-------------------
DFT GRID GENERATION
-------------------

General Integration Accuracy     IntAcc      ... 4.388
Radial Grid Type                 RadialGrid  ... OptM3 with GC (2021)
Angular Grid (max. ang.)         AngularGrid ... 4 (Lebedev-302)
Angular grid pruning method      GridPruning ... 4 (adaptive)
Weight generation scheme         WeightScheme... mBecke (2022)
Basis function cutoff            BFCut       ... 1.0000e-11
Integration weight cutoff        WCut        ... 1.0000e-14
Partially contracted basis set               ... off
Rotationally invariant grid construction     ... off
Angular grids for H and He will be reduced by one unit
Diffuse basis detected: some atoms will have their outermost
                        angular grid increased by 1.

Total number of grid points                  ...    74901
Total number of batches                      ...     1177
Average number of points per batch           ...       63
Average number of grid points per atom       ...     4406
Initializing property integral containers    ... done (  0.0 sec)

SHARK setup successfully completed in   1.1 seconds

Maximum memory used throughout the entire STARTUP-calculation: 33.9 MB
Occupation numbers will be reassigned to an Aufbau configuration
             **** ENERGY FILE WAS UPDATED (xtb_opt.en.tmp) ****
Finished Guess after   0.3 sec
Maximum memory used throughout the entire GUESS-calculation: 13.2 MB
--------------------
CPCM SOLVATION MODEL
--------------------
CPCM parameters:
  Epsilon                                         ...      78.3550
  Refrac                                          ...       1.3328
  Rsolv                                           ...       1.3000
  Surface type                                    ... GAUSSIAN VDW
  Discretization scheme                           ... Constant charge density
    Threshold for H atoms                         ...       5.0000 (charges/Ang^2)
    Threshold for non-H atoms                     ...       5.0000 (charges/Ang^2)
  Epsilon function type                           ...         CPCM
Solvent:                                          ... WATER
SMD-CDS solvent descriptors:
  Soln                                            ...       1.3328
  Soln25                                          ...       1.3323
  Sola                                            ...       0.0000
  Solb                                            ...       0.0000
  Solg                                            ...       0.0000
  Solc                                            ...       0.0000
  Solh                                            ...       0.0000
Radii:
  Scheme                                          ... Element-dependent radii
  Radius for C  used is    3.4960 Bohr (=   1.8500 Ang.)
  Radius for O  used is    2.8724 Bohr (=   1.5200 Ang.)
  Radius for H  used is    2.2677 Bohr (=   1.2000 Ang.)
Calculating surface                               ...        done! (  0.0s)
Cavity surface points                             ...         1263
Cavity Volume                                     ...     745.4382
Cavity Surface-area                               ...     503.2322
Calculating surface distance matrix               ...        done! (  0.0s)
Performing Cholesky decomposition & store         ...        done! (  0.1s)
Overall time for CPCM initialization              ...                 0.1s

----------------------------------------D-I-I-S--------------------------------------------
Iteration    Energy (Eh)           Delta-E    RMSDP     MaxDP     DIISErr   Damp  Time(sec)
-------------------------------------------------------------------------------------------
               ***  Starting incremental Fock matrix formation  ***
                              *** Initializing SOSCF ***
---------------------------------------S-O-S-C-F--------------------------------------
Iteration    Energy (Eh)           Delta-E    RMSDP     MaxDP     MaxGrad    Time(sec)
--------------------------------------------------------------------------------------
    1    -346.9722898503910642     0.00e+00  7.53e-06  2.55e-04  4.50e-05     2.8
               *** Restarting incremental Fock matrix formation ***
    2    -346.9722898022868662     4.81e-08  1.11e-05  3.72e-04  1.16e-04     2.7
    3    -346.9722891487754737     6.54e-07  7.75e-06  2.35e-04  2.34e-04     2.1
    4    -346.9722901087027935    -9.60e-07  6.57e-07  1.38e-05  3.59e-06     2.1
                  *** Gradient check signals convergence ***

               *****************************************************
               *                     SUCCESS                       *
               *           SCF CONVERGED AFTER   4 CYCLES          *
               *****************************************************


SMD CDS free energy correction energy :                 4.84713     Kcal/mol
Total Energy after SMD CDS correction =              -346.964565720 Eh
             **** ENERGY FILE WAS UPDATED (xtb_opt.en.tmp) ****

----------------
TOTAL SCF ENERGY
----------------

Total Energy       :       -346.96456571977416 Eh           -9441.38582 eV

Components:
Nuclear Repulsion  :        317.04253012861312 Eh            8627.16584 eV
Electronic Energy  :       -663.99454412119189 Eh          -18068.21012 eV
One Electron Energy:      -1099.59351157931428 Eh          -29921.46063 eV
Two Electron Energy:        435.59896745812233 Eh           11853.25051 eV
CPCM Dielectric    :         -0.02027611612400 Eh              -0.55174 eV
SMD CDS (Gcds)     :          0.00772438892865 Eh               0.21019 eV

Virial components:
Potential Energy   :       -692.49608977192429 Eh          -18843.77660 eV
Kinetic Energy     :        345.53152405215019 Eh            9402.39078 eV
Virial Ratio       :          2.00414735434503

DFT components:
N(Alpha)           :       28.000003783011 electrons
N(Beta)            :       28.000003783011 electrons
N(Total)           :       56.000007566022 electrons
E(X)               :      -46.169343905270 Eh       
E(C)               :       -1.793921526860 Eh       
E(XC)              :      -47.963265432131 Eh       

CPCM Solvation Model Properties:
Surface-charge          :         -0.04503476927802
Corrected charge        :          0.00000000000000
Outlying charge corr.   :          0.00016570231673 Eh               0.00451 eV
Free-energy (cav+disp)  :          0.00772438892865 Eh               0.21019 eV

---------------
SCF CONVERGENCE
---------------

  Last Energy change         ...    9.5993e-07  Tolerance :   1.0000e-07
  Last MAX-Density change    ...    1.3815e-05  Tolerance :   1.0000e-07
  Last RMS-Density change    ...    6.5653e-07  Tolerance :   5.0000e-09
  Last DIIS Error            ...    3.9157e-04  Tolerance :   1.0000e-07
  Last Orbital Gradient      ...    3.5854e-06  Tolerance :   1.0000e-04
  Last Orbital Rotation      ...    6.1783e-06  Tolerance :   1.0000e-04


----------------
ORBITAL ENERGIES
----------------

  NO   OCC          E(Eh)            E(eV) 
   0   2.0000     -18.999969      -517.0154 
   1   2.0000     -18.944288      -515.5003 
   2   2.0000     -10.167569      -276.6736 
   3   2.0000     -10.035621      -273.0831 
   4   2.0000     -10.033997      -273.0389 
   5   2.0000     -10.009280      -272.3663 
   6   2.0000     -10.008637      -272.3489 
   7   2.0000      -1.077784       -29.3280 
   8   2.0000      -0.986046       -26.8317 
   9   2.0000      -0.778322       -21.1792 
  10   2.0000      -0.693517       -18.8715 
  11   2.0000      -0.645255       -17.5583 
  12   2.0000      -0.590616       -16.0715 
  13   2.0000      -0.521091       -14.1796 
  14   2.0000      -0.469994       -12.7892 
  15   2.0000      -0.454389       -12.3646 
  16   2.0000      -0.446844       -12.1592 
  17   2.0000      -0.408884       -11.1263 
  18   2.0000      -0.393894       -10.7184 
  19   2.0000      -0.375030       -10.2051 
  20   2.0000      -0.356347        -9.6967 
  21   2.0000      -0.348934        -9.4950 
  22   2.0000      -0.332448        -9.0464 
  23   2.0000      -0.302039        -8.2189 
  24   2.0000      -0.299570        -8.1517 
  25   2.0000      -0.294866        -8.0237 
  26   2.0000      -0.291263        -7.9257 
  27   2.0000      -0.252909        -6.8820 
  28   0.0000      -0.023233        -0.6322 
  29   0.0000       0.074819         2.0359 
  30   0.0000       0.100265         2.7284 
  31   0.0000       0.131949         3.5905 
  32   0.0000       0.136849         3.7239 
  33   0.0000       0.143117         3.8944 
  34   0.0000       0.149487         4.0677 
  35   0.0000       0.154076         4.1926 
  36   0.0000       0.163618         4.4523 
  37   0.0000       0.172022         4.6810 
  38   0.0000       0.177713         4.8358 
*Only the first 10 virtual orbitals were printed.
Total SCF time: 0 days 0 hours 0 min 10 sec 
Finished LeanSCF after  10.3 sec

Maximum memory used throughout the entire LEANSCF-calculation: 23.6 MB


-------------------------------------------------------------------------------
                          DFT DISPERSION CORRECTION                            
                                                                               
                                DFTD4 V3.4.0                                   
-------------------------------------------------------------------------------
-------------------------   ----------------
Dispersion correction           -0.004325792
-------------------------   ----------------

------------------   -----------------
gCP correction             0.009211546
------------------   -----------------

-------------------------   --------------------
FINAL SINGLE POINT ENERGY      -346.959679964916
-------------------------   --------------------

------------------------------------------------------------------------------
                         ORCA SCF GRADIENT CALCULATION
------------------------------------------------------------------------------

Nuc. rep. gradient        (SHARK) ... done (  0.0 sec)
HCore & Overlap gradient  (SHARK) ... done (  0.2 sec)
Split-RIJ-J gradient      (SHARK) ... done (  1.3 sec)
XC gradient                       ... done (  5.7 sec)
CPCM gradient                     ... done (  0.7 sec)
SMD gradient                      ... done (  0.0 sec)
Dispersion correction             ... done (  0.0 sec)

-------------------
DISPERSION GRADIENT
-------------------

   1   C   :    0.000075320    0.000030954    0.000014018
   2   C   :    0.000034671   -0.000004381    0.000010183
   3   C   :    0.000043283   -0.000053560   -0.000036245
   4   C   :   -0.000013614    0.000031804    0.000000880
   5   C   :   -0.000082130    0.000004441    0.000008509
   6   O   :   -0.000074514   -0.000031607    0.000038402
   7   O   :   -0.000095085    0.000018627   -0.000014258
   8   H   :    0.000030993    0.000021442    0.000016920
   9   H   :    0.000031389    0.000017103   -0.000001092
  10   H   :    0.000033767    0.000005531    0.000009556
  11   H   :    0.000010444   -0.000007460    0.000012841
  12   H   :    0.000023165   -0.000030968   -0.000012150
  13   H   :    0.000006815   -0.000033416   -0.000013595
  14   H   :    0.000020475   -0.000019890   -0.000028059
  15   H   :   -0.000013320    0.000018796   -0.000013126
  16   H   :   -0.000011698    0.000025542    0.000012076
  17   H   :   -0.000019962    0.000007043   -0.000004860

Difference to translation invariance:
           :   -0.0000000000   -0.0000000000   -0.0000000000

Difference to rotation invariance:
           :   -0.0000000000   -0.0000000000   -0.0000000000

Norm of the Dispersion gradient    ...    0.0002261447
RMS gradient                       ...    0.0000316666
MAX gradient                       ...    0.0000950850
gCP correction                   ... done

------------------
CARTESIAN GRADIENT
------------------

   1   C   :    0.005803319    0.003614565   -0.001638646
   2   C   :    0.000335973   -0.001121966    0.003356388
   3   C   :    0.001893846   -0.002359526   -0.006017810
   4   C   :   -0.000578648    0.006470383   -0.002461773
   5   C   :   -0.008130016   -0.000088815   -0.002547777
   6   O   :    0.000501062    0.010760491   -0.009318203
   7   O   :    0.015700546   -0.012873413    0.015689503
   8   H   :   -0.000586978   -0.004295245   -0.003368608
   9   H   :   -0.001549365   -0.003087874    0.004582638
  10   H   :   -0.004751326    0.002283140   -0.000728032
  11   H   :   -0.000845067   -0.000421698   -0.001310963
  12   H   :   -0.003866946    0.003563118   -0.000149101
  13   H   :    0.003237396    0.003864895    0.002197167
  14   H   :   -0.000755200   -0.001885295    0.004898540
  15   H   :   -0.001525376   -0.002477362    0.001984855
  16   H   :    0.001353416   -0.003538158   -0.001428524
  17   H   :   -0.006236636    0.001592760   -0.003739654

Difference to translation invariance:
           :   -0.0000000000    0.0000000000    0.0000000000

Difference to rotation invariance:
           :    0.0000284493    0.0000432089   -0.0002645643

Norm of the Cartesian gradient     ...    0.0367941152
RMS gradient                       ...    0.0051522067
MAX gradient                       ...    0.0157005458

-------
TIMINGS
-------

Total SCF gradient time     ....        8.644 sec

Densities                   ....       0.000 sec  (  0.0%)
One electron gradient       ....       0.228 sec  (  2.6%)
RI-J Coulomb gradient       ....       1.277 sec  ( 14.8%)
XC gradient                 ....       5.719 sec  ( 66.2%)
CPCM gradient               ....       0.718 sec  (  8.3%)
   A-Matrix (El+Nuc)        ....       0.058 sec  (  0.7%)
   Potential                ....       0.660 sec  (  7.6%)
SMD gradient                ....       0.013 sec  (  0.2%)

Maximum memory used throughout the entire SCFGRAD-calculation: 33.4 MB

------------------------------------------------------------------------------
                              ORCA PROPERTY CALCULATIONS
------------------------------------------------------------------------------

GBWName                                 ... xtb_opt.gbw
Number of atoms                         ...     17
Number of basis functions               ...    193
Max core memory                         ...   1024 MB

Electric properties:
Dipole moment                           ... YES
Quadrupole moment                       ...  NO
Static polarizability (Dipole/Dipole)   ...  NO
Static polarizability (Dipole/Quad.)    ...  NO
Static polarizability (Quad./Quad.)     ...  NO
Static polarizability (Velocity)        ...  NO

Atomic electric properties:
Dipole moment                           ...  NO
Quadrupole moment                       ...  NO
Static polarizability                   ...  NO

Choice of electric origin               ... Center of mass
Position of electric origin             ...     0.000048     0.000004    -0.000005

General magnetic properties:
Magnetizability                         ...  NO

EPR properties:
g-Tensor (aka g-matrix)                 ...  NO
Zero-Field splitting spin-orbit         ...  NO
Zero-field splitting spin-spin          ...  NO
Hyperfine couplings                     ...  NO (   0 nuclei)
Quadrupole couplings                    ...  NO (   0 nuclei)
Contact density                         ...  NO (   0 nuclei)

NMR properties:
Chemical shifts                         ...  NO (   0 nuclei)
Spin-rotation constants                 ...  NO (   0 nuclei)
Spin-spin couplings                     ...  NO (   0 nuclei,    0 pairs)

Choice of magnetic origin               ... GIAO
Position of magnetic origin             ...     0.000000     0.000000     0.000000

Properties with geometric perturbations:
SCF Hessian                             ...  NO
IR spectrum                             ...  NO
VCD spectrum                            ...  NO
X-ray spectroscopy properties:
SCF XES/XAS/RIXS spectra                ...  NO


-------------
DIPOLE MOMENT
-------------

Method             : SCF
Type of density    : Electron Density
Multiplicity       :   1
Irrep              :   0
Energy             :  -346.9645657197741571 Eh
Relativity type    : 
Basis              : AO
                                X                 Y                 Z
Electronic contribution:    -10.203889069      -0.023728811       1.215974484
Nuclear contribution   :     10.235648072       0.828204533      -1.811572763
                        -----------------------------------------
Total Dipole Moment    :      0.031759003       0.804475722      -0.595598280
                        -----------------------------------------
Magnitude (a.u.)       :      1.001462497
Magnitude (Debye)      :      2.545515372



--------------------
Rotational spectrum 
--------------------
 
Rotational constants in cm-1:             0.164654             0.050643             0.046809 
Rotational constants in MHz :          4936.198541          1518.229893          1403.297233 

Dipole components along the rotational axes: 
x,y,z [a.u.] :     0.031759     0.804457    -0.595623 
x,y,z [Debye]:     0.080725     2.044768    -1.513954 

 

Dipole moment calculation done in   0.0 sec 

Maximum memory used throughout the entire PROP-calculation: 11.8 MB

--------------------------------
SUGGESTED CITATIONS FOR THIS RUN
--------------------------------

Below you find a list of papers that are relevant to this ORCA run
We neither can nor want to force you to cite these papers, but we appreciate if you do
You receive ORCA, which is the product of decades of hard work by many enthusiastic individuals, for free
The only thing we kindly ask in return is that you cite our papers,
We deeply appreciate it, if you show your appreciation for ORCA by not just citing the generic ORCA reference.

Please note that relegating all ORCA citations to the supporting information does *not* help us.
SI sections are not indexed - citations you put there will not count into any citation statistics
But we need these citations in order to attract the funding resources that allow us to do what we are doing

Therefore, if you are a happy ORCA user, please consider citing a few of the papers listed below in the main body of your paper

In addition to the list printed below, the program has created the file xtb_opt.bibtex that contains the list in bibtex format
You can import this file easily into all common literature databanks and citation aid programs


List of essential papers. We consider these as the minimum necessary citations

  1. Neese,F.
     Software update: the ORCA program system, version 5.0
     WIRES Comput. Molec. Sci., 2022 12(1)e1606
     doi.org/10.1002/wcms.1606
  2. Grimme,S.; Hansen,A.; Ehlert,S.; Mewes,J.
     r2SCAN-3c: A 'Swiss army knife' composite electronic-structure method
     J. Chem. Phys., 2021 154 064103
     doi.org/10.1063/5.0040021

List of papers to cite with high priority. The work reported in these papers was absolutely
necessary for this run to complete.
Our perspective: the developers of density functionals and basis sets usually get cited in chemistry papers
Good! But without the algorithms to do something with them, the functionals or basis sets would not do anything.
Hence, in our opinion, the algorithm design and method developments papers are equally worthy of getting cited

  1. Neese,F.
     An improvement of the resolution of the identity approximation for the formation of the Coulomb matrix
     J. Comp. Chem., 2003 24(14)1740-1747
     doi.org/10.1002/jcc.10318
  2. Garcia-Rates,M.; Neese,F.
     Effect of the Solute Cavity on the Solvation Energy and its Derivatives within the Framework of the Gaussian Charge Scheme
     J. Comput. Chem., 2020 41 922-939
     doi.org/10.1002/jcc.26139
  3. Neese,F.
     The SHARK Integral Generation and Digestion System
     J. Comp. Chem., 2022  1-16
     doi.org/10.1002/jcc.26942
  4. Lehtola,S.; Steigemann,C.; Oliveira,M.; Marques,M.
     Recent developments in Libxc - A comprehensive library of functionals for density functional theory
     Software X, 2018 7 
     doi.org/10.1016/j.softx.2017.11.002
  5. Caldeweyher,E.; Bannwarth,C.; Grimme,S.
     Extension of the D3 dispersion coefficient model
     J. Chem. Phys., 2017 147 034112-XXXX
     doi.org/10.1063/1.4993215
  6. Caldeweyher,E.; Ehlert,S.; Hansen,A.; Neugebauer,H.; Spicher,S.; Bannwarth,C.; Grimme,S.
     A generally applicable atomic-charge dependent London dispersion correction
     J. Chem. Phys., 2019 150 154122-XXXX
     doi.org/10.1063/1.5090222
  7. Caldeweyher,E.; Mewes,J.; Ehlert,S.; Grimme,S.
     Extension and evaluation of the D4 London-dispersion model for periodic systems
     Phys. Chem. Chem. Phys., 2020 22(16)8499-8512
     doi.org/10.1039/D0CP00502A

List of suggested additional citations. These are papers that are important in the 'surrounding' of 
of this run, or papers that preceded the highly important papers. If you like your results we are grateful for a citation.

  1. Neese,F.
     The ORCA program system
     WIRES Comput. Molec. Sci., 2012 2(1)73-78
     doi.org/10.1002/wcms.81
  2. Neese,F.
     Software update: the ORCA program system, version 4.0
     WIRES Comput. Molec. Sci., 2018 8(1)1-6
     doi.org/10.1002/wcms.1327
  3. Neese,F.; Wennmohs,F.; Becker,U.; Riplinger,C.
     The ORCA quantum chemistry program package
     J. Chem. Phys., 2020 152 Art. No. L224108
     doi.org/10.1063/5.0004608

List of optional additional citations

  1. Neese,F.
     Approximate second-order SCF convergence for spin unrestricted wavefunctions
     Chem. Phys. Lett., 2000 325(1-3)93-98
     doi.org/10.1016/s0009-2614(00)00662-x

Timings for individual modules:

Sum of individual times          ...       20.675 sec (=   0.345 min)
Startup calculation              ...        1.190 sec (=   0.020 min)   5.8 %
SCF iterations                   ...       10.578 sec (=   0.176 min)  51.2 %
Property calculations            ...        0.151 sec (=   0.003 min)   0.7 %
SCF Gradient evaluation          ...        8.755 sec (=   0.146 min)  42.3 %
                             ****ORCA TERMINATED NORMALLY****
TOTAL RUN TIME: 0 days 0 hours 0 minutes 21 seconds 480 msec
  ------------------------------------------------------------------------
          * successful ORCA run, taking over control again...

         :::::::::::::::::::::::::::::::::::::::::::::::::::::
         ::                  ORCA SUMMARY                   ::
         :::::::::::::::::::::::::::::::::::::::::::::::::::::
         :: total energy            -346.959679964916 Eh    ::
         :: gradient norm              0.036794115217 Eh/a0 ::
         :: HOMO-LUMO gap              0.000000000000 eV    ::
         :::::::::::::::::::::::::::::::::::::::::::::::::::::

      ----------------------------------------------------------- 
     |                       L-ANC optimizer                     |
      ----------------------------------------------------------- 
          low memory version by Sebastian Ehlert

          ...................................................
          :                      SETUP                      :
          :.................................................:
          :   energy convergence        0.5000000E-05 Eh    :
          :   grad. convergence         0.1000000E-02 Eh/a0 :
          :   optimization log               true           :
          :   writing optlog all                1     steps :
          :   Hessian reset                     8     steps :
          :   maximium step len.        1.0000000     a0    :
          :   LBFGS images                      8           :
          ...................................................
 * calculating model hessian...
Using Lindh-Hessian (1995)
 Shifting diagonal of input Hessian by   1.000000000000000E-002
 Lowest  eigenvalues of input Hessian
    0.000000    0.000000    0.000000    0.000000    0.000000    0.000000
    0.013145    0.014319    0.018018    0.019736    0.021182    0.021975
    0.027186    0.033625    0.047060    0.062704    0.064538    0.066374
 Highest eigenvalues
    1.184983    1.223090    1.266663    1.296148    1.813697    2.345075
 

........................................................................
.............................. CYCLE    1 ..............................
........................................................................
                         * ORCA takes the control...
  ------------------------------------------------------------------------

                                 *****************
                                 * O   R   C   A *
                                 *****************

                                            #,                                       
                                            ###                                      
                                            ####                                     
                                            #####                                    
                                            ######                                   
                                           ########,                                 
                                     ,,################,,,,,                         
                               ,,#################################,,                 
                          ,,##########################################,,             
                       ,#########################################, ''#####,          
                    ,#############################################,,   '####,        
                  ,##################################################,,,,####,       
                ,###########''''           ''''###############################       
              ,#####''   ,,,,##########,,,,          '''####'''          '####       
            ,##' ,,,,###########################,,,                        '##       
           ' ,,###''''                  '''############,,,                           
         ,,##''                                '''############,,,,        ,,,,,,###''
      ,#''                                            '''#######################'''  
     '                                                          ''''####''''         
             ,#######,   #######,   ,#######,      ##                                
            ,#'     '#,  ##    ##  ,#'     '#,    #''#        ,####,   ,####,        
            ##       ##  ##   ,#'  ##            #'  '#       #'       #'  '#        
            ##       ##  #######   ##           ,######,      #####,   #    #        
            '#,     ,#'  ##    ##  '#,     ,#' ,#      #,     #,   #   #,  ,#        
             '#######'   ##     ##  '#######'  #'      '#     '####' # '####'        



                #########################################################
                #                        -***-                          #
                #          Department of theory and spectroscopy        #
                #                                                       #
                #                      Frank Neese                      #
                #                                                       #
                #     Directorship, Architecture, Infrastructure        #
                #                    SHARK, DRIVERS                     #
                #        Core code/Algorithms in most modules           #
                #                                                       #
                #        Max Planck Institute fuer Kohlenforschung      #
                #                Kaiser Wilhelm Platz 1                 #
                #                 D-45470 Muelheim/Ruhr                 #
                #                      Germany                          #
                #                                                       #
                #                  All rights reserved                  #
                #                        -***-                          #
                #########################################################


                         Program Version 6.0.0  -   RELEASE  -


 With contributions from (in alphabetic order):
   Daniel Aravena         : Magnetic Suceptibility
   Michael Atanasov       : Ab Initio Ligand Field Theory (pilot matlab implementation)
   Alexander A. Auer      : GIAO ZORA, VPT2 properties, NMR spectrum
   Ute Becker             : All parallelization in ORCA, NUMFREQ, NUMCALC
   Giovanni Bistoni       : ED, misc. LED, open-shell LED, HFLD
   Martin Brehm           : Molecular dynamics
   Dmytro Bykov           : pre 5.0 version of the SCF Hessian
   Marcos Casanova-Páez   : Triplet and SCS-CIS(D). UHF-(DLPNO)-IP/EA/STEOM-CCSD. UHF-CVS-IP/STEOM-CCSD
   Vijay G. Chilkuri      : MRCI spin determinant printing, contributions to CSF-ICE
   Pauline Colinet        : FMM embedding
   Dipayan Datta          : RHF DLPNO-CCSD density
   Achintya Kumar Dutta   : EOM-CC, STEOM-CC
   Nicolas Foglia         : Exact transition moments, OPA infrastructure, MCD improvements
   Dmitry Ganyushin       : Spin-Orbit,Spin-Spin,Magnetic field MRCI
   Miquel Garcia          : C-PCM and meta-GGA Hessian, CCSD/C-PCM, Gaussian charge scheme
   Tiago L. C. Gouveia    : GS-ROHF, GS-ROCIS
   Yang Guo               : DLPNO-NEVPT2, F12-NEVPT2, CIM, IAO-localization
   Andreas Hansen         : Spin unrestricted coupled pair/coupled cluster methods
   Ingolf Harden          : AUTO-CI MPn and infrastructure 
   Benjamin Helmich-Paris : MC-RPA, TRAH-(SCF,CASSCF), AVAS, COSX integrals, SCF dyn. polar.
   Lee Huntington         : MR-EOM, pCC
   Robert Izsak           : Overlap fitted RIJCOSX, COSX-SCS-MP3, EOM
   Riya Kayal             : Wick's Theorem for AUTO-CI, AUTO-CI UHF-CCSDT
   Emily Kempfer          : AUTO-CI, RHF CISDT and CCSDT
   Christian Kollmar      : KDIIS, OOCD, Brueckner-CCSD(T), CCSD density, CASPT2, CASPT2-K, improved NEVPT2
   Axel Koslowski         : Symmetry handling
   Simone Kossmann        : Meta GGA functionals, TD-DFT gradient, OOMP2, (MP2 Hessian; deprecated post 5.0)
   Lucas Lang             : DCDCAS
   Marvin Lechner         : AUTO-CI (C++ implementation), FIC-MRCC
   Spencer Leger          : CASSCF response
   Dagmar Lenk            : GEPOL surface, SMD, ORCA-2-JSON
   Dimitrios Liakos       : Extrapolation schemes; Compound Job, initial MDCI parallelization
   Dimitrios Manganas     : Further ROCIS development; embedding schemes. LFT, Crystal Embedding
   Dimitrios Pantazis     : SARC Basis sets
   Anastasios Papadopoulos: AUTO-CI, single reference methods and gradients
   Taras Petrenko         : pre 6.0 DFT Hessian and TD-DFT gradient, (ASA, deprecated), ECA, 1-Electron XAS/XES, NRVS
   Peter Pinski           : DLPNO-MP2, DLPNO-MP2 Gradient
   Christoph Reimann      : Effective Core Potentials
   Marius Retegan         : Local ZFS, SOC
   Christoph Riplinger    : Optimizer, TS searches, QM/MM, DLPNO-CCSD(T), (RO)-DLPNO pert. Triples
   Michael Roemelt        : Original ROCIS implementation
   Masaaki Saitow         : Open-shell DLPNO-CCSD energy and density
   Barbara Sandhoefer     : DKH picture change effects
   Kantharuban Sivalingam : CASSCF convergence/infrastructure, NEVPT2 and variants, FIC-MRCI
   Bernardo de Souza      : ESD, SOC TD-DFT
   Georgi Stoychev        : AutoAux, RI-MP2 NMR, DLPNO-MP2 response, X2C
   Van Anh Tran           : RI-MP2 g-tensors
   Willem Van den Heuvel  : Paramagnetic NMR
   Zikuan Wang            : NOTCH, Electric field optimization 
   Frank Wennmohs         : Technical directorship and infrastructure
   Hang Xu                : AUTO-CI-Response properties 


 We gratefully acknowledge several colleagues who have allowed us to
 interface, adapt or use parts of their codes:
   Stefan Grimme, W. Hujo, H. Kruse, P. Pracht,  : VdW corrections, initial TS optimization,
                  C. Bannwarth, S. Ehlert,         DFT functionals, gCP, sTDA/sTD-DF
                  L. Wittmann, M. Mueller
   Ed Valeev, F. Pavosevic, A. Kumar             : LibInt (2-el integral package), F12 methods
   Garnet Chan, S. Sharma, J. Yang, R. Olivares  : DMRG
   Ulf Ekstrom                                   : XCFun DFT Library
   Mihaly Kallay                                 : mrcc  (arbitrary order and MRCC methods)
   Frank Weinhold                                : gennbo (NPA and NBO analysis)
   Simon Mueller                                 : openCOSMO-RS
   Christopher J. Cramer and Donald G. Truhlar   : smd solvation model
   Lars Goerigk                                  : TD-DFT with DH, B97 family of functionals
   V. Asgeirsson, H. Jonsson                     : NEB implementation
   FAccTs GmbH                                   : IRC, NEB, NEB-TS, DLPNO-Multilevel, CI-OPT
                                                   MM, QMMM, 2- and 3-layer-ONIOM, Crystal-QMMM,
                                                   LR-CPCM, SF, NACMEs, symmetry and pop. for TD-DFT,
                                                   nearIR, NL-DFT gradient (VV10), updates on ESD,
                                                   ML-optimized integration grids, MBIS, APM,
                                                   GOAT, DOCKER, SOLVATOR, interface openCOSMO-RS
   S Lehtola, MJT Oliveira, MAL Marques          : LibXC Library
   Liviu Ungur et al                             : ANISO software


 Your calculation uses the libint2 library for the computation of 2-el integrals
 For citations please refer to: http://libint.valeyev.net

 Your ORCA version has been built with support for libXC version: 6.2.2
 For citations please refer to: https://libxc.gitlab.io

 This ORCA versions uses:
   CBLAS   interface :  Fast vector & matrix operations
   LAPACKE interface :  Fast linear algebra routines
   SCALAPACK package :  Parallel linear algebra routines
   Shared memory     :  Shared parallel matrices
   BLAS/LAPACK       :  OpenBLAS 0.3.27  USE64BITINT DYNAMIC_ARCH NO_AFFINITY SkylakeX SINGLE_THREADED
        Core in use  :  SkylakeX
   Copyright (c) 2011-2014, The OpenBLAS Project




***************************************
The coordinates will be read from file: xtb_opt.xyz
***************************************


Your calculation utilizes the geometrical counterpoise correction gCP
Please cite in your paper:
H.Kruse, S. Grimme J.Chem.Phys., 136, (2012), 154101 
   

Your calculation utilizes the atom-pairwise dispersion correction
based on EEQ partial charges (D4)


Your calculation utilizes the SMD solvation module
Please cite in your paper:
A.V. Marenich, C.J. Cramer, D.G. Truhlar J. Phys. Chem. B, 113, (2009), 6378 

================================================================================

----- Orbital basis set information -----
Your calculation utilizes the basis: def2-mTZVPP
   Stefan Grimme, Andreas Hansen, Sebastian Ehlert, and Jan-Michael Mewes 
   J. Chem. Phys. 154, 064103 (2021). DOI: 10.1063/5.0040021

----- AuxJ basis set information -----
Your calculation utilizes the auxiliary basis: def2/J
   F. Weigend, Phys. Chem. Chem. Phys. 8, 1057 (2006).

================================================================================
                                        WARNINGS
                       Please study these warnings very carefully!
================================================================================

WARNING: Old DensityContainer found on disk!
         Will remove this file - 
         If you want to keep old densities, please start your calculation with a different basename. 

Using LibXC functional ID 497 : Re-regularized SCAN exchange by Furness et al
[ 1]  J. W. Furness, A. D. Kaplan, J. Ning, J. P. Perdew, and J. Sun.,  J. Phys. Chem. Lett. 11, 8208-8215 (2020)
[ 2]  J. W. Furness, A. D. Kaplan, J. Ning, J. P. Perdew, and J. Sun.,  J. Phys. Chem. Lett. 11, 9248-9248 (2020)
Using LibXC functional ID 498 : Re-regularized SCAN correlation by Furness et al
[ 1]  J. W. Furness, A. D. Kaplan, J. Ning, J. P. Perdew, and J. Sun.,  J. Phys. Chem. Lett. 11, 8208-8215 (2020)
[ 2]  J. W. Furness, A. D. Kaplan, J. Ning, J. P. Perdew, and J. Sun.,  J. Phys. Chem. Lett. 11, 9248-9248 (2020)
Using LibXC functional ID 497 : Re-regularized SCAN exchange by Furness et al
[ 1]  J. W. Furness, A. D. Kaplan, J. Ning, J. P. Perdew, and J. Sun.,  J. Phys. Chem. Lett. 11, 8208-8215 (2020)
[ 2]  J. W. Furness, A. D. Kaplan, J. Ning, J. P. Perdew, and J. Sun.,  J. Phys. Chem. Lett. 11, 9248-9248 (2020)
Using LibXC functional ID 498 : Re-regularized SCAN correlation by Furness et al
[ 1]  J. W. Furness, A. D. Kaplan, J. Ning, J. P. Perdew, and J. Sun.,  J. Phys. Chem. Lett. 11, 8208-8215 (2020)
[ 2]  J. W. Furness, A. D. Kaplan, J. Ning, J. P. Perdew, and J. Sun.,  J. Phys. Chem. Lett. 11, 9248-9248 (2020)

================================================================================
                                       INPUT FILE
================================================================================
NAME = xtb_opt.inp
|  1> ! r2scan-3c def2/J RI DEFGRID2 scfconv7 ENGRAD tightSCF miniprint
|  2> %cpcm
|  3>     smd true
|  4>     smdsolvent "water"
|  5> end
|  6> * xyzfile 0 1 xtb_opt.xyz
|  7> 
|  8>                          ****END OF INPUT****
================================================================================

                     *******************************
                     * Energy+Gradient Calculation *
                     *******************************

---------------------------------
CARTESIAN COORDINATES (ANGSTROEM)
---------------------------------
  C      2.526710    0.747637    0.323615
  C      1.263512   -0.107002    0.243086
  C      1.401285   -1.189852   -0.827470
  C      0.046272    0.777627   -0.041854
  C     -1.266017    0.062516    0.125670
  O     -1.462088   -0.888931    0.863776
  O     -2.237724    0.612971   -0.612918
  H      2.450792    1.498006    1.115244
  H      2.697745    1.266301   -0.624583
  H      3.398819    0.121539    0.529047
  H      1.104600   -0.592633    1.213033
  H      2.261366   -1.831409   -0.619669
  H      0.510418   -1.822873   -0.872595
  H      1.546627   -0.732133   -1.810816
  H      0.096054    1.194607   -1.052183
  H      0.020063    1.626375    0.653800
  H     -3.088638    0.164422   -0.463128

----------------------------
CARTESIAN COORDINATES (A.U.)
----------------------------
  NO LB      ZA    FRAG     MASS         X           Y           Z
   0 C     6.0000    0    12.011    4.774790    1.412829    0.611543
   1 C     6.0000    0    12.011    2.387691   -0.202204    0.459365
   2 C     6.0000    0    12.011    2.648045   -2.248495   -1.563691
   3 C     6.0000    0    12.011    0.087442    1.469502   -0.079093
   4 C     6.0000    0    12.011   -2.392425    0.118138    0.237482
   5 O     8.0000    0    15.999   -2.762946   -1.679835    1.632301
   6 O     8.0000    0    15.999   -4.228686    1.158347   -1.158247
   7 H     1.0000    0     1.008    4.631326    2.830821    2.107506
   8 H     1.0000    0     1.008    5.097999    2.392963   -1.180292
   9 H     1.0000    0     1.008    6.422838    0.229675    0.999754
  10 H     1.0000    0     1.008    2.087392   -1.119915    2.292299
  11 H     1.0000    0     1.008    4.273363   -3.460861   -1.171004
  12 H     1.0000    0     1.008    0.964551   -3.444731   -1.648966
  13 H     1.0000    0     1.008    2.922701   -1.383531   -3.421947
  14 H     1.0000    0     1.008    0.181516    2.257480   -1.988337
  15 H     1.0000    0     1.008    0.037915    3.073403    1.235502
  16 H     1.0000    0     1.008   -5.836681    0.310713   -0.875186

------------------------------------------------------------------------------
                   ___                                                        
                  /   \      - P O W E R E D   B Y -                         
                 /     \                                                     
                 |  |  |   _    _      __       _____    __    __             
                 |  |  |  | |  | |    /  \     |  _  \  |  |  /  |          
                  \  \/   | |  | |   /    \    | | | |  |  | /  /          
                 / \  \   | |__| |  /  /\  \   | |_| |  |  |/  /          
                |  |  |   |  __  | /  /__\  \  |    /   |      \           
                |  |  |   | |  | | |   __   |  |    \   |  |\   \          
                \     /   | |  | | |  |  |  |  | |\  \  |  | \   \       
                 \___/    |_|  |_| |__|  |__|  |_| \__\ |__|  \__/        
                                                                              
                      - O R C A' S   B I G   F R I E N D -                    
                                      &                                       
                       - I N T E G R A L  F E E D E R -                       
                                                                              
 v1 FN, 2020, v2 2021, v3 2022-2024                                           
------------------------------------------------------------------------------


----------------------
SHARK INTEGRAL PACKAGE
----------------------

Number of atoms                             ...     17
Number of basis functions                   ...    193
Number of shells                            ...     95
Maximum angular momentum                    ...      2
Integral batch strategy                     ... SHARK/LIBINT Hybrid
RI-J (if used) integral strategy            ... SPLIT-RIJ (Revised 2003 algorithm where possible)
Printlevel                                  ...      1
Contraction scheme used                     ... SEGMENTED contraction
Prescreening option                         ... SCHWARTZ
   Thresh                                   ... 3.000e-11
   Tcut                                     ... 1.000e-12
   Tpresel                                  ... 1.000e-12 
Coulomb Range Separation                    ... NOT USED
Exchange Range Separation                   ... NOT USED
Multipole approximations                    ... NOT USED
Finite Nucleus Model                        ... NOT USED
CABS basis                                  ... NOT available
Auxiliary Coulomb fitting basis             ... AVAILABLE
   # of basis functions in Aux-J            ...    453
   # of shells in Aux-J                     ...    155
   Maximum angular momentum in Aux-J        ...      4
Auxiliary J/K fitting basis                 ... NOT available
Auxiliary Correlation fitting basis         ... NOT available
Auxiliary 'external' fitting basis          ... NOT available

Checking pre-screening integrals            ... done (  0.0 sec) Dimension = 95
Check shell pair data                       ... done (  0.0 sec)
Shell pair information
Shell pair cut-off parameter TPreSel        ...   1.0e-12
Total number of shell pairs                 ...      4560
Shell pairs after pre-screening             ...      4209
Total number of primitive shell pairs       ...     16115
Primitive shell pairs kept                  ...     10896
          la=0 lb=0:   1390 shell pairs
          la=1 lb=0:   1584 shell pairs
          la=1 lb=1:    468 shell pairs
          la=2 lb=0:    460 shell pairs
          la=2 lb=1:    263 shell pairs
          la=2 lb=2:     44 shell pairs

Calculating one electron integrals          ... done (  0.0 sec)
Calculating RI/J V-Matrix + Cholesky decomp.... done (  0.1 sec)
Calculating Nuclear repulsion               ... done (  0.0 sec) ENN=    315.931389478325 Eh

Diagonalization of the overlap matrix:
Smallest eigenvalue                        ... 1.469e-04
Time for diagonalization                   ...    0.004 sec
Threshold for overlap eigenvalues          ... 1.000e-07
Number of eigenvalues below threshold      ... 0
Time for construction of square roots      ...    0.016 sec
Total time needed                          ...    0.030 sec

-------------------
DFT GRID GENERATION
-------------------

General Integration Accuracy     IntAcc      ... 4.388
Radial Grid Type                 RadialGrid  ... OptM3 with GC (2021)
Angular Grid (max. ang.)         AngularGrid ... 4 (Lebedev-302)
Angular grid pruning method      GridPruning ... 4 (adaptive)
Weight generation scheme         WeightScheme... mBecke (2022)
Basis function cutoff            BFCut       ... 1.0000e-11
Integration weight cutoff        WCut        ... 1.0000e-14
Partially contracted basis set               ... off
Rotationally invariant grid construction     ... off
Angular grids for H and He will be reduced by one unit
Diffuse basis detected: some atoms will have their outermost
                        angular grid increased by 1.

Total number of grid points                  ...    74905
Total number of batches                      ...     1178
Average number of points per batch           ...       63
Average number of grid points per atom       ...     4406
Initializing property integral containers    ... done (  0.0 sec)

SHARK setup successfully completed in   1.1 seconds

Maximum memory used throughout the entire STARTUP-calculation: 33.9 MB
Occupation numbers will be reassigned to an Aufbau configuration
             **** ENERGY FILE WAS UPDATED (xtb_opt.en.tmp) ****
Finished Guess after   0.3 sec
Maximum memory used throughout the entire GUESS-calculation: 13.2 MB
--------------------
CPCM SOLVATION MODEL
--------------------
CPCM parameters:
  Epsilon                                         ...      78.3550
  Refrac                                          ...       1.3328
  Rsolv                                           ...       1.3000
  Surface type                                    ... GAUSSIAN VDW
  Discretization scheme                           ... Constant charge density
    Threshold for H atoms                         ...       5.0000 (charges/Ang^2)
    Threshold for non-H atoms                     ...       5.0000 (charges/Ang^2)
  Epsilon function type                           ...         CPCM
Solvent:                                          ... WATER
SMD-CDS solvent descriptors:
  Soln                                            ...       1.3328
  Soln25                                          ...       1.3323
  Sola                                            ...       0.0000
  Solb                                            ...       0.0000
  Solg                                            ...       0.0000
  Solc                                            ...       0.0000
  Solh                                            ...       0.0000
Radii:
  Scheme                                          ... Element-dependent radii
  Radius for C  used is    3.4960 Bohr (=   1.8500 Ang.)
  Radius for O  used is    2.8724 Bohr (=   1.5200 Ang.)
  Radius for H  used is    2.2677 Bohr (=   1.2000 Ang.)
Calculating surface                               ...        done! (  0.0s)
Cavity surface points                             ...         1267
Cavity Volume                                     ...     748.0176
Cavity Surface-area                               ...     505.4543
Calculating surface distance matrix               ...        done! (  0.0s)
Performing Cholesky decomposition & store         ...        done! (  0.1s)
Overall time for CPCM initialization              ...                 0.1s

----------------------------------------D-I-I-S--------------------------------------------
Iteration    Energy (Eh)           Delta-E    RMSDP     MaxDP     DIISErr   Damp  Time(sec)
-------------------------------------------------------------------------------------------
               ***  Starting incremental Fock matrix formation  ***
    1    -346.9729571684601979     0.00e+00  6.99e-05  1.62e-03  5.24e-03  0.700   2.9
    2    -346.9730514981763463    -9.43e-05  6.00e-05  1.27e-03  3.88e-03  0.700   2.5
                               ***Turning on AO-DIIS***
                              *** Initializing SOSCF ***
---------------------------------------S-O-S-C-F--------------------------------------
Iteration    Energy (Eh)           Delta-E    RMSDP     MaxDP     MaxGrad    Time(sec)
--------------------------------------------------------------------------------------
    3    -346.9731182273183094    -6.67e-05  1.58e-04  3.93e-03  2.72e-03     2.4
               *** Restarting incremental Fock matrix formation ***
    4    -346.9732709959681642    -1.53e-04  2.37e-05  4.38e-04  1.08e-04     2.8
    5    -346.9732705916012492     4.04e-07  1.70e-05  6.80e-04  1.42e-04     2.3
    6    -346.9732722089654544    -1.62e-06  5.90e-06  1.19e-04  6.20e-05     2.3
    7    -346.9732720255329923     1.83e-07  4.02e-06  8.34e-05  1.14e-04     2.2
    8    -346.9732722661356092    -2.41e-07  9.91e-07  3.77e-05  3.94e-06     2.3
                  *** Gradient check signals convergence ***

               *****************************************************
               *                     SUCCESS                       *
               *           SCF CONVERGED AFTER   8 CYCLES          *
               *****************************************************


SMD CDS free energy correction energy :                 4.77785     Kcal/mol
Total Energy after SMD CDS correction =              -346.965658272 Eh
             **** ENERGY FILE WAS UPDATED (xtb_opt.en.tmp) ****

----------------
TOTAL SCF ENERGY
----------------

Total Energy       :       -346.96565827157008 Eh           -9441.41555 eV

Components:
Nuclear Repulsion  :        315.93138947832529 Eh            8596.93017 eV
Electronic Energy  :       -662.88455035596803 Eh          -18038.00565 eV
One Electron Energy:      -1097.38472447746858 Eh          -29861.35648 eV
Two Electron Energy:        434.50017412150061 Eh           11823.35083 eV
CPCM Dielectric    :         -0.02011138849290 Eh              -0.54726 eV
SMD CDS (Gcds)     :          0.00761399456551 Eh               0.20719 eV

Virial components:
Potential Energy   :       -692.37248491777814 Eh          -18840.41314 eV
Kinetic Energy     :        345.40682664620812 Eh            9398.99759 eV
Virial Ratio       :          2.00451303073682

DFT components:
N(Alpha)           :       28.000012185064 electrons
N(Beta)            :       28.000012185064 electrons
N(Total)           :       56.000024370128 electrons
E(X)               :      -46.138182091162 Eh       
E(C)               :       -1.792457478372 Eh       
E(XC)              :      -47.930639569534 Eh       

CPCM Solvation Model Properties:
Surface-charge          :         -0.04524078398350
Corrected charge        :          0.00000000000000
Outlying charge corr.   :          0.00016695060477 Eh               0.00454 eV
Free-energy (cav+disp)  :          0.00761399456551 Eh               0.20719 eV

---------------
SCF CONVERGENCE
---------------

  Last Energy change         ...    2.4060e-07  Tolerance :   1.0000e-07
  Last MAX-Density change    ...    3.7656e-05  Tolerance :   1.0000e-07
  Last RMS-Density change    ...    9.9092e-07  Tolerance :   5.0000e-09
  Last DIIS Error            ...    2.7217e-03  Tolerance :   1.0000e-07
  Last Orbital Gradient      ...    3.9367e-06  Tolerance :   1.0000e-04
  Last Orbital Rotation      ...    5.9379e-06  Tolerance :   1.0000e-04


----------------
ORBITAL ENERGIES
----------------

  NO   OCC          E(Eh)            E(eV) 
   0   2.0000     -19.000910      -517.0411 
   1   2.0000     -18.946690      -515.5656 
   2   2.0000     -10.170358      -276.7495 
   3   2.0000     -10.037467      -273.1334 
   4   2.0000     -10.035499      -273.0798 
   5   2.0000     -10.011888      -272.4373 
   6   2.0000     -10.011382      -272.4235 
   7   2.0000      -1.074112       -29.2281 
   8   2.0000      -0.984798       -26.7977 
   9   2.0000      -0.777890       -21.1675 
  10   2.0000      -0.692800       -18.8520 
  11   2.0000      -0.644219       -17.5301 
  12   2.0000      -0.587976       -15.9996 
  13   2.0000      -0.520561       -14.1652 
  14   2.0000      -0.470475       -12.8023 
  15   2.0000      -0.454201       -12.3594 
  16   2.0000      -0.445145       -12.1130 
  17   2.0000      -0.408005       -11.1024 
  18   2.0000      -0.392815       -10.6890 
  19   2.0000      -0.375431       -10.2160 
  20   2.0000      -0.356182        -9.6922 
  21   2.0000      -0.347369        -9.4524 
  22   2.0000      -0.332008        -9.0344 
  23   2.0000      -0.302990        -8.2448 
  24   2.0000      -0.300049        -8.1648 
  25   2.0000      -0.296631        -8.0717 
  26   2.0000      -0.290212        -7.8971 
  27   2.0000      -0.254098        -6.9144 
  28   0.0000      -0.027340        -0.7440 
  29   0.0000       0.074313         2.0222 
  30   0.0000       0.100382         2.7315 
  31   0.0000       0.131473         3.5776 
  32   0.0000       0.135413         3.6848 
  33   0.0000       0.142332         3.8731 
  34   0.0000       0.148776         4.0484 
  35   0.0000       0.152034         4.1370 
  36   0.0000       0.163475         4.4484 
  37   0.0000       0.170445         4.6380 
  38   0.0000       0.175991         4.7890 
*Only the first 10 virtual orbitals were printed.
Total SCF time: 0 days 0 hours 0 min 20 sec 
Finished LeanSCF after  20.4 sec

Maximum memory used throughout the entire LEANSCF-calculation: 23.7 MB


-------------------------------------------------------------------------------
                          DFT DISPERSION CORRECTION                            
                                                                               
                                DFTD4 V3.4.0                                   
-------------------------------------------------------------------------------
-------------------------   ----------------
Dispersion correction           -0.004314757
-------------------------   ----------------

------------------   -----------------
gCP correction             0.009095574
------------------   -----------------

-------------------------   --------------------
FINAL SINGLE POINT ENERGY      -346.960877454024
-------------------------   --------------------

------------------------------------------------------------------------------
                         ORCA SCF GRADIENT CALCULATION
------------------------------------------------------------------------------

Nuc. rep. gradient        (SHARK) ... done (  0.0 sec)
HCore & Overlap gradient  (SHARK) ... done (  0.3 sec)
Split-RIJ-J gradient      (SHARK) ... done (  1.3 sec)
XC gradient                       ... done (  5.6 sec)
CPCM gradient                     ... done (  0.7 sec)
SMD gradient                      ... done (  0.0 sec)
Dispersion correction             ... done (  0.0 sec)

-------------------
DISPERSION GRADIENT
-------------------

   1   C   :    0.000075391    0.000031408    0.000014122
   2   C   :    0.000034940   -0.000004396    0.000010158
   3   C   :    0.000043347   -0.000054251   -0.000036710
   4   C   :   -0.000013716    0.000032067    0.000001111
   5   C   :   -0.000082329    0.000004571    0.000008444
   6   O   :   -0.000074779   -0.000031466    0.000038629
[...]
E(X)               :      -46.127902371591 Eh       
E(C)               :       -1.791923479054 Eh       
E(XC)              :      -47.919825850645 Eh       

CPCM Solvation Model Properties:
Surface-charge          :         -0.04531492064351
Corrected charge        :          0.00000000000000
Outlying charge corr.   :          0.00016743873614 Eh               0.00456 eV
Free-energy (cav+disp)  :          0.00745044444251 Eh               0.20274 eV

---------------
SCF CONVERGENCE
---------------

  Last Energy change         ...    9.5012e-09  Tolerance :   1.0000e-07
  Last MAX-Density change    ...    4.3032e-05  Tolerance :   1.0000e-07
  Last RMS-Density change    ...    1.7039e-06  Tolerance :   5.0000e-09
  Last DIIS Error            ...    6.1055e-05  Tolerance :   1.0000e-07
  Last Orbital Gradient      ...    1.1245e-05  Tolerance :   1.0000e-04
  Last Orbital Rotation      ...    1.8648e-05  Tolerance :   1.0000e-04


----------------
ORBITAL ENERGIES
----------------

  NO   OCC          E(Eh)            E(eV) 
   0   2.0000     -18.999947      -517.0148 
   1   2.0000     -18.948888      -515.6255 
   2   2.0000     -10.171207      -276.7726 
   3   2.0000     -10.038521      -273.1621 
   4   2.0000     -10.036579      -273.1092 
   5   2.0000     -10.012548      -272.4553 
   6   2.0000     -10.012098      -272.4430 
   7   2.0000      -1.071395       -29.1541 
   8   2.0000      -0.984866       -26.7996 
   9   2.0000      -0.778517       -21.1845 
  10   2.0000      -0.692863       -18.8538 
  11   2.0000      -0.643950       -17.5228 
  12   2.0000      -0.582717       -15.8565 
  13   2.0000      -0.519673       -14.1410 
  14   2.0000      -0.470980       -12.8160 
  15   2.0000      -0.454624       -12.3710 
  16   2.0000      -0.444612       -12.0985 
  17   2.0000      -0.407730       -11.0949 
  18   2.0000      -0.392607       -10.6834 
  19   2.0000      -0.377324       -10.2675 
  20   2.0000      -0.356838        -9.7101 
  21   2.0000      -0.346620        -9.4320 
  22   2.0000      -0.332450        -9.0464 
  23   2.0000      -0.303729        -8.2649 
  24   2.0000      -0.300208        -8.1691 
  25   2.0000      -0.297184        -8.0868 
  26   2.0000      -0.290965        -7.9176 
  27   2.0000      -0.255412        -6.9501 
  28   0.0000      -0.029338        -0.7983 
  29   0.0000       0.073980         2.0131 
  30   0.0000       0.100717         2.7406 
  31   0.0000       0.131821         3.5870 
  32   0.0000       0.134787         3.6677 
  33   0.0000       0.141531         3.8513 
  34   0.0000       0.148902         4.0518 
  35   0.0000       0.151257         4.1159 
  36   0.0000       0.163435         4.4473 
  37   0.0000       0.169172         4.6034 
  38   0.0000       0.174414         4.7460 
*Only the first 10 virtual orbitals were printed.
Total SCF time: 0 days 0 hours 0 min 6 sec 
Finished LeanSCF after   6.4 sec

Maximum memory used throughout the entire LEANSCF-calculation: 23.8 MB


-------------------------------------------------------------------------------
                          DFT DISPERSION CORRECTION                            
                                                                               
                                DFTD4 V3.4.0                                   
-------------------------------------------------------------------------------
-------------------------   ----------------
Dispersion correction           -0.004310078
-------------------------   ----------------

------------------   -----------------
gCP correction             0.009094834
------------------   -----------------

-------------------------   --------------------
FINAL SINGLE POINT ENERGY      -346.961275971844
-------------------------   --------------------

------------------------------------------------------------------------------
                         ORCA SCF GRADIENT CALCULATION
------------------------------------------------------------------------------

Nuc. rep. gradient        (SHARK) ... done (  0.0 sec)
HCore & Overlap gradient  (SHARK) ... done (  0.2 sec)
Split-RIJ-J gradient      (SHARK) ... done (  1.3 sec)
XC gradient                       ... done (  5.6 sec)
CPCM gradient                     ... done (  0.7 sec)
SMD gradient                      ... done (  0.0 sec)
Dispersion correction             ... done (  0.0 sec)

-------------------
DISPERSION GRADIENT
-------------------

   1   C   :    0.000074935    0.000031560    0.000013693
   2   C   :    0.000035259   -0.000004502    0.000010446
   3   C   :    0.000043728   -0.000054656   -0.000036445
   4   C   :   -0.000013500    0.000032207    0.000001783
   5   C   :   -0.000082684    0.000004717    0.000008066
   6   O   :   -0.000075572   -0.000031176    0.000037739
   7   O   :   -0.000094325    0.000018488   -0.000013895
   8   H   :    0.000030693    0.000021285    0.000016410
   9   H   :    0.000031251    0.000017199   -0.000001052
  10   H   :    0.000033312    0.000005962    0.000009359
  11   H   :    0.000011002   -0.000007473    0.000013164
  12   H   :    0.000022545   -0.000031146   -0.000011988
  13   H   :    0.000007348   -0.000033866   -0.000013926
  14   H   :    0.000020479   -0.000020350   -0.000027494
  15   H   :   -0.000012754    0.000019293   -0.000012702
  16   H   :   -0.000012034    0.000024958    0.000012402
  17   H   :   -0.000019685    0.000007501   -0.000005559

Difference to translation invariance:
           :    0.0000000000    0.0000000000    0.0000000000

Difference to rotation invariance:
           :    0.0000000000   -0.0000000000    0.0000000000

Norm of the Dispersion gradient    ...    0.0002265058
RMS gradient                       ...    0.0000317172
MAX gradient                       ...    0.0000943250
gCP correction                   ... done

------------------
CARTESIAN GRADIENT
------------------

   1   C   :    0.000109853    0.000089438   -0.000025506
   2   C   :   -0.000088467   -0.000060265    0.000028583
   3   C   :    0.000067805   -0.000071234   -0.000110838
   4   C   :    0.000026275    0.000095203   -0.000054298
   5   C   :    0.000098639   -0.000251859    0.000102962
   6   O   :   -0.000064054    0.000259712   -0.000139448
   7   O   :   -0.000162179   -0.000007910   -0.000004243
   8   H   :   -0.000025224   -0.000101476   -0.000052413
   9   H   :   -0.000026162   -0.000065568    0.000108956
  10   H   :   -0.000119806    0.000039382    0.000000279
  11   H   :   -0.000028983   -0.000034994   -0.000035575
  12   H   :   -0.000057442    0.000078440   -0.000031528
  13   H   :    0.000085489    0.000072252    0.000043560
  14   H   :   -0.000029238   -0.000029479    0.000090585
  15   H   :   -0.000023447   -0.000055913    0.000006010
  16   H   :    0.000030424    0.000007755   -0.000040945
  17   H   :    0.000206516    0.000036516    0.000113858

Difference to translation invariance:
           :   -0.0000000000    0.0000000000    0.0000000000

Difference to rotation invariance:
           :   -0.0000218614    0.0001992713   -0.0004197478

Norm of the Cartesian gradient     ...    0.0006455154
RMS gradient                       ...    0.0000903902
MAX gradient                       ...    0.0002597118

-------
TIMINGS
-------

Total SCF gradient time     ....        8.506 sec

Densities                   ....       0.000 sec  (  0.0%)
One electron gradient       ....       0.238 sec  (  2.8%)
RI-J Coulomb gradient       ....       1.330 sec  ( 15.6%)
XC gradient                 ....       5.587 sec  ( 65.7%)
CPCM gradient               ....       0.713 sec  (  8.4%)
   A-Matrix (El+Nuc)        ....       0.057 sec  (  0.7%)
   Potential                ....       0.656 sec  (  7.7%)
SMD gradient                ....       0.011 sec  (  0.1%)

Maximum memory used throughout the entire SCFGRAD-calculation: 33.3 MB

------------------------------------------------------------------------------
                              ORCA PROPERTY CALCULATIONS
------------------------------------------------------------------------------

GBWName                                 ... xtb_opt.gbw
Number of atoms                         ...     17
Number of basis functions               ...    193
Max core memory                         ...   1024 MB

Electric properties:
Dipole moment                           ... YES
Quadrupole moment                       ...  NO
Static polarizability (Dipole/Dipole)   ...  NO
Static polarizability (Dipole/Quad.)    ...  NO
Static polarizability (Quad./Quad.)     ...  NO
Static polarizability (Velocity)        ...  NO

Atomic electric properties:
Dipole moment                           ...  NO
Quadrupole moment                       ...  NO
Static polarizability                   ...  NO

Choice of electric origin               ... Center of mass
Position of electric origin             ...    -0.015562     0.001504    -0.012573

General magnetic properties:
Magnetizability                         ...  NO

EPR properties:
g-Tensor (aka g-matrix)                 ...  NO
Zero-Field splitting spin-orbit         ...  NO
Zero-field splitting spin-spin          ...  NO
Hyperfine couplings                     ...  NO (   0 nuclei)
Quadrupole couplings                    ...  NO (   0 nuclei)
Contact density                         ...  NO (   0 nuclei)

NMR properties:
Chemical shifts                         ...  NO (   0 nuclei)
Spin-rotation constants                 ...  NO (   0 nuclei)
Spin-spin couplings                     ...  NO (   0 nuclei,    0 pairs)

Choice of magnetic origin               ... GIAO
Position of magnetic origin             ...     0.000000     0.000000     0.000000

Properties with geometric perturbations:
SCF Hessian                             ...  NO
IR spectrum                             ...  NO
VCD spectrum                            ...  NO
X-ray spectroscopy properties:
SCF XES/XAS/RIXS spectra                ...  NO


-------------
DIPOLE MOMENT
-------------

Method             : SCF
Type of density    : Electron Density
Multiplicity       :   1
Irrep              :   0
Energy             :  -346.9660607286132858 Eh
Relativity type    : 
Basis              : AO
                                X                 Y                 Z
Electronic contribution:    -10.216121872      -0.044510561       1.199196264
Nuclear contribution   :     10.368321178       0.822932338      -1.707536066
                        -----------------------------------------
Total Dipole Moment    :      0.152199306       0.778421777      -0.508339802
                        -----------------------------------------
Magnitude (a.u.)       :      0.942079851
Magnitude (Debye)      :      2.394576681



--------------------
Rotational spectrum 
--------------------
 
Rotational constants in cm-1:             0.162628             0.050223             0.046285 
Rotational constants in MHz :          4875.452694          1505.653112          1387.578932 

Dipole components along the rotational axes: 
x,y,z [a.u.] :    -0.146711     0.783600    -0.501958 
x,y,z [Debye]:    -0.372910     1.991753    -1.275875 

 

Dipole moment calculation done in   0.0 sec 

Maximum memory used throughout the entire PROP-calculation: 11.7 MB

--------------------------------
SUGGESTED CITATIONS FOR THIS RUN
--------------------------------

Below you find a list of papers that are relevant to this ORCA run
We neither can nor want to force you to cite these papers, but we appreciate if you do
You receive ORCA, which is the product of decades of hard work by many enthusiastic individuals, for free
The only thing we kindly ask in return is that you cite our papers,
We deeply appreciate it, if you show your appreciation for ORCA by not just citing the generic ORCA reference.

Please note that relegating all ORCA citations to the supporting information does *not* help us.
SI sections are not indexed - citations you put there will not count into any citation statistics
But we need these citations in order to attract the funding resources that allow us to do what we are doing

Therefore, if you are a happy ORCA user, please consider citing a few of the papers listed below in the main body of your paper

In addition to the list printed below, the program has created the file xtb_opt.bibtex that contains the list in bibtex format
You can import this file easily into all common literature databanks and citation aid programs


List of essential papers. We consider these as the minimum necessary citations

  1. Neese,F.
     Software update: the ORCA program system, version 5.0
     WIRES Comput. Molec. Sci., 2022 12(1)e1606
     doi.org/10.1002/wcms.1606
  2. Grimme,S.; Hansen,A.; Ehlert,S.; Mewes,J.
     r2SCAN-3c: A 'Swiss army knife' composite electronic-structure method
     J. Chem. Phys., 2021 154 064103
     doi.org/10.1063/5.0040021

List of papers to cite with high priority. The work reported in these papers was absolutely
necessary for this run to complete.
Our perspective: the developers of density functionals and basis sets usually get cited in chemistry papers
Good! But without the algorithms to do something with them, the functionals or basis sets would not do anything.
Hence, in our opinion, the algorithm design and method developments papers are equally worthy of getting cited

  1. Neese,F.
     An improvement of the resolution of the identity approximation for the formation of the Coulomb matrix
     J. Comp. Chem., 2003 24(14)1740-1747
     doi.org/10.1002/jcc.10318
  2. Garcia-Rates,M.; Neese,F.
     Effect of the Solute Cavity on the Solvation Energy and its Derivatives within the Framework of the Gaussian Charge Scheme
     J. Comput. Chem., 2020 41 922-939
     doi.org/10.1002/jcc.26139
  3. Neese,F.
     The SHARK Integral Generation and Digestion System
     J. Comp. Chem., 2022  1-16
     doi.org/10.1002/jcc.26942
  4. Lehtola,S.; Steigemann,C.; Oliveira,M.; Marques,M.
     Recent developments in Libxc - A comprehensive library of functionals for density functional theory
     Software X, 2018 7 
     doi.org/10.1016/j.softx.2017.11.002
  5. Caldeweyher,E.; Bannwarth,C.; Grimme,S.
     Extension of the D3 dispersion coefficient model
     J. Chem. Phys., 2017 147 034112-XXXX
     doi.org/10.1063/1.4993215
  6. Caldeweyher,E.; Ehlert,S.; Hansen,A.; Neugebauer,H.; Spicher,S.; Bannwarth,C.; Grimme,S.
     A generally applicable atomic-charge dependent London dispersion correction
     J. Chem. Phys., 2019 150 154122-XXXX
     doi.org/10.1063/1.5090222
  7. Caldeweyher,E.; Mewes,J.; Ehlert,S.; Grimme,S.
     Extension and evaluation of the D4 London-dispersion model for periodic systems
     Phys. Chem. Chem. Phys., 2020 22(16)8499-8512
     doi.org/10.1039/D0CP00502A

List of suggested additional citations. These are papers that are important in the 'surrounding' of 
of this run, or papers that preceded the highly important papers. If you like your results we are grateful for a citation.

  1. Neese,F.
     The ORCA program system
     WIRES Comput. Molec. Sci., 2012 2(1)73-78
     doi.org/10.1002/wcms.81
  2. Neese,F.
     Software update: the ORCA program system, version 4.0
     WIRES Comput. Molec. Sci., 2018 8(1)1-6
     doi.org/10.1002/wcms.1327
  3. Neese,F.; Wennmohs,F.; Becker,U.; Riplinger,C.
     The ORCA quantum chemistry program package
     J. Chem. Phys., 2020 152 Art. No. L224108
     doi.org/10.1063/5.0004608

List of optional additional citations

  1. Neese,F.
     Approximate second-order SCF convergence for spin unrestricted wavefunctions
     Chem. Phys. Lett., 2000 325(1-3)93-98
     doi.org/10.1016/s0009-2614(00)00662-x

Timings for individual modules:

Sum of individual times          ...       16.651 sec (=   0.278 min)
Startup calculation              ...        1.119 sec (=   0.019 min)   6.7 %
SCF iterations                   ...        6.770 sec (=   0.113 min)  40.7 %
Property calculations            ...        0.144 sec (=   0.002 min)   0.9 %
SCF Gradient evaluation          ...        8.618 sec (=   0.144 min)  51.8 %
                             ****ORCA TERMINATED NORMALLY****
TOTAL RUN TIME: 0 days 0 hours 0 minutes 17 seconds 436 msec
  ------------------------------------------------------------------------
          * successful ORCA run, taking over control again...

         :::::::::::::::::::::::::::::::::::::::::::::::::::::
         ::                  ORCA SUMMARY                   ::
         :::::::::::::::::::::::::::::::::::::::::::::::::::::
         :: total energy            -346.961275971844 Eh    ::
         :: gradient norm              0.000645515445 Eh/a0 ::
         :: HOMO-LUMO gap              0.000000000000 eV    ::
         :::::::::::::::::::::::::::::::::::::::::::::::::::::

           -------------------------------------------------
          |                Property Printout                |
           -------------------------------------------------
           -------------------------------------------------
          |                Geometry Summary                 |
           -------------------------------------------------

      molecular mass/u    :      102.1318968
   center of mass at/Å    :       -0.0082664       0.0007936      -0.0066513
  moments of inertia/u·Å² :        0.1036565E+03   0.3356516E+03   0.3642130E+03
rotational constants/cm⁻¹ :        0.1626297E+00   0.5022360E-01   0.4628510E-01

 * 15 selected distances

     #   Z          #   Z                                           value/Å
     1   6 C        2   6 C                                       1.5277664
     2   6 C        3   6 C                                       1.5287118
     2   6 C        4   6 C                                       1.5306903 (max)
     5   6 C        6   8 O                                       1.2185968
     5   6 C        7   8 O                                       1.3553530
     1   6 C        8   1 H                                       1.0949900
     1   6 C        9   1 H                                       1.0963445
     1   6 C       10   1 H                                       1.0945896
     2   6 C       11   1 H                                       1.0969017
     3   6 C       12   1 H                                       1.0946383
     3   6 C       13   1 H                                       1.0951716
     3   6 C       14   1 H                                       1.0964203
     4   6 C       15   1 H                                       1.0952773
     4   6 C       16   1 H                                       1.0998516
     7   8 O       17   1 H                                       0.9730744 (min)

 * 4 distinct bonds (by element types)

   Z      Z             #   av. dist./Å        max./Å        min./Å
   1 H    6 C           9     1.0960205     1.0998516     1.0945896
   6 C    6 C           3     1.5290562     1.5306903     1.5277664
   1 H    8 O           1     0.9730744     0.9730744     0.9730744
   6 C    8 O           2     1.2869749     1.3553530     1.2185968


optimized geometry written to: xtbopt.coord


           -------------------------------------------------
          | TOTAL ENERGY             -346.961275971844 Eh   |
          | GRADIENT NORM               0.000645515445 Eh/α |
           -------------------------------------------------

------------------------------------------------------------------------
 * finished run on 2025/04/11 at 11:18:58.371     
------------------------------------------------------------------------
 total:
 * wall-time:     0 d,  0 h,  2 min, 51.501 sec
 *  cpu-time:     0 d,  0 h,  0 min,  1.696 sec
 * ratio c/w:     0.010 speedup
 SCF:
 * wall-time:     0 d,  0 h,  0 min, 21.597 sec
 *  cpu-time:     0 d,  0 h,  0 min,  0.723 sec
 * ratio c/w:     0.033 speedup
 ANC optimizer:
 * wall-time:     0 d,  0 h,  2 min, 29.883 sec
 *  cpu-time:     0 d,  0 h,  0 min,  0.950 sec
 * ratio c/w:     0.006 speedup

