
                                 *****************
                                 * O   R   C   A *
                                 *****************

                                            #,                                       
                                            ###                                      
                                            ####                                     
                                            #####                                    
                                            ######                                   
                                           ########,                                 
                                     ,,################,,,,,                         
                               ,,#################################,,                 
                          ,,##########################################,,             
                       ,#########################################, ''#####,          
                    ,#############################################,,   '####,        
                  ,##################################################,,,,####,       
                ,###########''''           ''''###############################       
              ,#####''   ,,,,##########,,,,          '''####'''          '####       
            ,##' ,,,,###########################,,,                        '##       
           ' ,,###''''                  '''############,,,                           
         ,,##''                                '''############,,,,        ,,,,,,###''
      ,#''                                            '''#######################'''  
     '                                                          ''''####''''         
             ,#######,   #######,   ,#######,      ##                                
            ,#'     '#,  ##    ##  ,#'     '#,    #''#        ,####,   ,####,        
            ##       ##  ##   ,#'  ##            #'  '#       #'       #'  '#        
            ##       ##  #######   ##           ,######,      #####,   #    #        
            '#,     ,#'  ##    ##  '#,     ,#' ,#      #,     #,   #   #,  ,#        
             '#######'   ##     ##  '#######'  #'      '#     '####' # '####'        



                #########################################################
                #                        -***-                          #
                #          Department of theory and spectroscopy        #
                #                                                       #
                #                      Frank Neese                      #
                #                                                       #
                #     Directorship, Architecture, Infrastructure        #
                #                    SHARK, DRIVERS                     #
                #        Core code/Algorithms in most modules           #
                #                                                       #
                #        Max Planck Institute fuer Kohlenforschung      #
                #                Kaiser Wilhelm Platz 1                 #
                #                 D-45470 Muelheim/Ruhr                 #
                #                      Germany                          #
                #                                                       #
                #                  All rights reserved                  #
                #                        -***-                          #
                #########################################################


                         Program Version 6.0.0  -   RELEASE  -


 With contributions from (in alphabetic order):
   Daniel Aravena         : Magnetic Suceptibility
   Michael Atanasov       : Ab Initio Ligand Field Theory (pilot matlab implementation)
   Alexander A. Auer      : GIAO ZORA, VPT2 properties, NMR spectrum
   Ute Becker             : All parallelization in ORCA, NUMFREQ, NUMCALC
   Giovanni Bistoni       : ED, misc. LED, open-shell LED, HFLD
   Martin Brehm           : Molecular dynamics
   Dmytro Bykov           : pre 5.0 version of the SCF Hessian
   Marcos Casanova-Páez   : Triplet and SCS-CIS(D). UHF-(DLPNO)-IP/EA/STEOM-CCSD. UHF-CVS-IP/STEOM-CCSD
   Vijay G. Chilkuri      : MRCI spin determinant printing, contributions to CSF-ICE
   Pauline Colinet        : FMM embedding
   Dipayan Datta          : RHF DLPNO-CCSD density
   Achintya Kumar Dutta   : EOM-CC, STEOM-CC
   Nicolas Foglia         : Exact transition moments, OPA infrastructure, MCD improvements
   Dmitry Ganyushin       : Spin-Orbit,Spin-Spin,Magnetic field MRCI
   Miquel Garcia          : C-PCM and meta-GGA Hessian, CCSD/C-PCM, Gaussian charge scheme
   Tiago L. C. Gouveia    : GS-ROHF, GS-ROCIS
   Yang Guo               : DLPNO-NEVPT2, F12-NEVPT2, CIM, IAO-localization
   Andreas Hansen         : Spin unrestricted coupled pair/coupled cluster methods
   Ingolf Harden          : AUTO-CI MPn and infrastructure 
   Benjamin Helmich-Paris : MC-RPA, TRAH-(SCF,CASSCF), AVAS, COSX integrals, SCF dyn. polar.
   Lee Huntington         : MR-EOM, pCC
   Robert Izsak           : Overlap fitted RIJCOSX, COSX-SCS-MP3, EOM
   Riya Kayal             : Wick's Theorem for AUTO-CI, AUTO-CI UHF-CCSDT
   Emily Kempfer          : AUTO-CI, RHF CISDT and CCSDT
   Christian Kollmar      : KDIIS, OOCD, Brueckner-CCSD(T), CCSD density, CASPT2, CASPT2-K, improved NEVPT2
   Axel Koslowski         : Symmetry handling
   Simone Kossmann        : Meta GGA functionals, TD-DFT gradient, OOMP2, (MP2 Hessian; deprecated post 5.0)
   Lucas Lang             : DCDCAS
   Marvin Lechner         : AUTO-CI (C++ implementation), FIC-MRCC
   Spencer Leger          : CASSCF response
   Dagmar Lenk            : GEPOL surface, SMD, ORCA-2-JSON
   Dimitrios Liakos       : Extrapolation schemes; Compound Job, initial MDCI parallelization
   Dimitrios Manganas     : Further ROCIS development; embedding schemes. LFT, Crystal Embedding
   Dimitrios Pantazis     : SARC Basis sets
   Anastasios Papadopoulos: AUTO-CI, single reference methods and gradients
   Taras Petrenko         : pre 6.0 DFT Hessian and TD-DFT gradient, (ASA, deprecated), ECA, 1-Electron XAS/XES, NRVS
   Peter Pinski           : DLPNO-MP2, DLPNO-MP2 Gradient
   Christoph Reimann      : Effective Core Potentials
   Marius Retegan         : Local ZFS, SOC
   Christoph Riplinger    : Optimizer, TS searches, QM/MM, DLPNO-CCSD(T), (RO)-DLPNO pert. Triples
   Michael Roemelt        : Original ROCIS implementation
   Masaaki Saitow         : Open-shell DLPNO-CCSD energy and density
   Barbara Sandhoefer     : DKH picture change effects
   Kantharuban Sivalingam : CASSCF convergence/infrastructure, NEVPT2 and variants, FIC-MRCI
   Bernardo de Souza      : ESD, SOC TD-DFT
   Georgi Stoychev        : AutoAux, RI-MP2 NMR, DLPNO-MP2 response, X2C
   Van Anh Tran           : RI-MP2 g-tensors
   Willem Van den Heuvel  : Paramagnetic NMR
   Zikuan Wang            : NOTCH, Electric field optimization 
   Frank Wennmohs         : Technical directorship and infrastructure
   Hang Xu                : AUTO-CI-Response properties 


 We gratefully acknowledge several colleagues who have allowed us to
 interface, adapt or use parts of their codes:
   Stefan Grimme, W. Hujo, H. Kruse, P. Pracht,  : VdW corrections, initial TS optimization,
                  C. Bannwarth, S. Ehlert,         DFT functionals, gCP, sTDA/sTD-DF
                  L. Wittmann, M. Mueller
   Ed Valeev, F. Pavosevic, A. Kumar             : LibInt (2-el integral package), F12 methods
   Garnet Chan, S. Sharma, J. Yang, R. Olivares  : DMRG
   Ulf Ekstrom                                   : XCFun DFT Library
   Mihaly Kallay                                 : mrcc  (arbitrary order and MRCC methods)
   Frank Weinhold                                : gennbo (NPA and NBO analysis)
   Simon Mueller                                 : openCOSMO-RS
   Christopher J. Cramer and Donald G. Truhlar   : smd solvation model
   Lars Goerigk                                  : TD-DFT with DH, B97 family of functionals
   V. Asgeirsson, H. Jonsson                     : NEB implementation
   FAccTs GmbH                                   : IRC, NEB, NEB-TS, DLPNO-Multilevel, CI-OPT
                                                   MM, QMMM, 2- and 3-layer-ONIOM, Crystal-QMMM,
                                                   LR-CPCM, SF, NACMEs, symmetry and pop. for TD-DFT,
                                                   nearIR, NL-DFT gradient (VV10), updates on ESD,
                                                   ML-optimized integration grids, MBIS, APM,
                                                   GOAT, DOCKER, SOLVATOR, interface openCOSMO-RS
   S Lehtola, MJT Oliveira, MAL Marques          : LibXC Library
   Liviu Ungur et al                             : ANISO software


 Your calculation uses the libint2 library for the computation of 2-el integrals
 For citations please refer to: http://libint.valeyev.net

 Your ORCA version has been built with support for libXC version: 6.2.2
 For citations please refer to: https://libxc.gitlab.io

 This ORCA versions uses:
   CBLAS   interface :  Fast vector & matrix operations
   LAPACKE interface :  Fast linear algebra routines
   SCALAPACK package :  Parallel linear algebra routines
   Shared memory     :  Shared parallel matrices
   BLAS/LAPACK       :  OpenBLAS 0.3.27  USE64BITINT DYNAMIC_ARCH NO_AFFINITY SkylakeX SINGLE_THREADED
        Core in use  :  SkylakeX
   Copyright (c) 2011-2014, The OpenBLAS Project


Your calculation utilizes the geometrical counterpoise correction gCP
Please cite in your paper:
H.Kruse, S. Grimme J.Chem.Phys., 136, (2012), 154101 
   

Your calculation utilizes the atom-pairwise dispersion correction
based on EEQ partial charges (D4)


================================================================================

----- Orbital basis set information -----
Your calculation utilizes the basis: def2-SV(P)
   F. Weigend and R. Ahlrichs, Phys. Chem. Chem. Phys. 7, 3297 (2005).

----- AuxJ basis set information -----
Your calculation utilizes the auxiliary basis: def2/J
   F. Weigend, Phys. Chem. Chem. Phys. 8, 1057 (2006).

================================================================================
                                        WARNINGS
                       Please study these warnings very carefully!
================================================================================


================================================================================
                                       INPUT FILE
================================================================================
NAME = sp.inp
|  1> ! pbe def2-sv(p) def2/J RI DEFGRID1 loosescf d4 GCP(DFT/SV(P)) printgap
|  2> %output
|  3>     printlevel normal
|  4> end
|  5> * xyz 0 1
|  6> C -1.971058341 -0.2635013221 0.4657695566
|  7> O -1.0033024073 -0.2136009287 -0.5640366079
|  8> C -0.0402327489 0.8159568204 -0.4214244922
|  9> C 1.1064987041 0.4192334 0.5148028877
| 10> O 1.8764489834 -0.6369992008 -0.013140862
| 11> H -2.5143840155 0.6847810327 0.5307799358
| 12> H -1.5215296535 -0.4863724753 1.4375875542
| 13> H -2.6565285233 -1.0614147734 0.1910413436
| 14> H 0.3590398736 0.9791067796 -1.4254916882
| 15> H -0.5132532732 1.7373042682 -0.0618140032
| 16> H 0.7103781341 0.1385210081 1.5005185222
| 17> H 1.7871732702 1.2630489332 0.6383812156
| 18> H 1.2709438533 -1.3318486746 -0.3121281497
| 19> *
| 20> 
| 21>                          ****END OF INPUT****
================================================================================

                       ****************************
                       * Single Point Calculation *
                       ****************************

---------------------------------
CARTESIAN COORDINATES (ANGSTROEM)
---------------------------------
  C     -1.971058   -0.263501    0.465770
  O     -1.003302   -0.213601   -0.564037
  C     -0.040233    0.815957   -0.421424
  C      1.106499    0.419233    0.514803
  O      1.876449   -0.636999   -0.013141
  H     -2.514384    0.684781    0.530780
  H     -1.521530   -0.486372    1.437588
  H     -2.656529   -1.061415    0.191041
  H      0.359040    0.979107   -1.425492
  H     -0.513253    1.737304   -0.061814
  H      0.710378    0.138521    1.500519
  H      1.787173    1.263049    0.638381
  H      1.270944   -1.331849   -0.312128

----------------------------
CARTESIAN COORDINATES (A.U.)
----------------------------
  NO LB      ZA    FRAG     MASS         X           Y           Z
   0 C     6.0000    0    12.011   -3.724760   -0.497945    0.880177
   1 O     8.0000    0    15.999   -1.895967   -0.403647   -1.065875
   2 C     6.0000    0    12.011   -0.076029    1.541935   -0.796377
   3 C     6.0000    0    12.011    2.090980    0.792236    0.972836
   4 O     8.0000    0    15.999    3.545975   -1.203754   -0.024833
   5 H     1.0000    0     1.008   -4.751497    1.294049    1.003029
   6 H     1.0000    0     1.008   -2.875274   -0.919111    2.716647
   7 H     1.0000    0     1.008   -5.020111   -2.005783    0.361016
   8 H     1.0000    0     1.008    0.678487    1.850244   -2.693789
   9 H     1.0000    0     1.008   -0.969908    3.283029   -0.116812
  10 H     1.0000    0     1.008    1.342420    0.261767    2.835569
  11 H     1.0000    0     1.008    3.377268    2.386817    1.206366
  12 H     1.0000    0     1.008    2.401736   -2.516829   -0.589837

--------------------------------
INTERNAL COORDINATES (ANGSTROEM)
--------------------------------
 C      0   0   0     0.000000000000     0.00000000     0.00000000
 O      1   0   0     1.414051743366     0.00000000     0.00000000
 C      2   1   0     1.416979372188   114.67658735     0.00000000
 C      3   2   1     1.532613520907   112.45384090    83.06505217
 O      4   3   2     1.409672069112   111.95287182    65.63212370
 H      1   2   3     1.094837231007   110.62883073    58.44006790
 H      1   2   3     1.093699141571   111.90112863   296.51978091
 H      1   2   3     1.087203218173   105.86484926   177.26981262
 H      3   2   1     1.092788849846   105.32727056   201.72630723
 H      3   2   1     1.096334456165   110.51071769   319.87740310
 H      4   3   2     1.098793094737   110.14506391   302.94817272
 H      4   3   2     1.091152657574   109.61840962   183.37201396
 H      5   4   3     0.968940479092   108.15353887   311.75504040

---------------------------
INTERNAL COORDINATES (A.U.)
---------------------------
 C      0   0   0     0.000000000000     0.00000000     0.00000000
 O      1   0   0     2.672170534155     0.00000000     0.00000000
 C      2   1   0     2.677702950851   114.67658735     0.00000000
 C      3   2   1     2.896219823660   112.45384090    83.06505217
 O      4   3   2     2.663894149260   111.95287182    65.63212370
 H      1   2   3     2.068942527824   110.62883073    58.44006790
 H      1   2   3     2.066791850474   111.90112863   296.51978091
 H      1   2   3     2.054516334265   105.86484926   177.26981262
 H      3   2   1     2.065071648412   105.32727056   201.72630723
 H      3   2   1     2.071771873334   110.51071769   319.87740310
 H      4   3   2     2.076418026896   110.14506391   302.94817272
 H      4   3   2     2.061979693116   109.61840962   183.37201396
 H      5   4   3     1.831032145555   108.15353887   311.75504040

---------------------
BASIS SET INFORMATION
---------------------
There are 3 groups of distinct atoms

 Group   1 Type C   : 7s4p1d contracted to 3s2p1d pattern {511/31/1}
 Group   2 Type O   : 7s4p1d contracted to 3s2p1d pattern {511/31/1}
 Group   3 Type H   : 4s contracted to 2s pattern {31}

Atom   0C    basis set group =>   1
Atom   1O    basis set group =>   2
Atom   2C    basis set group =>   1
Atom   3C    basis set group =>   1
Atom   4O    basis set group =>   2
Atom   5H    basis set group =>   3
Atom   6H    basis set group =>   3
Atom   7H    basis set group =>   3
Atom   8H    basis set group =>   3
Atom   9H    basis set group =>   3
Atom  10H    basis set group =>   3
Atom  11H    basis set group =>   3
Atom  12H    basis set group =>   3
---------------------------------
AUXILIARY/J BASIS SET INFORMATION
---------------------------------
There are 3 groups of distinct atoms

 Group   1 Type C   : 12s5p4d2f1g contracted to 6s4p3d1f1g pattern {711111/2111/211/2/1}
 Group   2 Type O   : 12s5p4d2f1g contracted to 6s4p3d1f1g pattern {711111/2111/211/2/1}
 Group   3 Type H   : 5s2p1d contracted to 3s1p1d pattern {311/2/1}

Atom   0C    basis set group =>   1
Atom   1O    basis set group =>   2
Atom   2C    basis set group =>   1
Atom   3C    basis set group =>   1
Atom   4O    basis set group =>   2
Atom   5H    basis set group =>   3
Atom   6H    basis set group =>   3
Atom   7H    basis set group =>   3
Atom   8H    basis set group =>   3
Atom   9H    basis set group =>   3
Atom  10H    basis set group =>   3
Atom  11H    basis set group =>   3
Atom  12H    basis set group =>   3
------------------------------------------------------------------------------
                             ORCA STARTUP CALCULATIONS
                           -- RI-GTO INTEGRALS CHOSEN --
------------------------------------------------------------------------------
------------------------------------------------------------------------------
                   ___                                                        
                  /   \      - P O W E R E D   B Y -                         
                 /     \                                                     
                 |  |  |   _    _      __       _____    __    __             
                 |  |  |  | |  | |    /  \     |  _  \  |  |  /  |          
                  \  \/   | |  | |   /    \    | | | |  |  | /  /          
                 / \  \   | |__| |  /  /\  \   | |_| |  |  |/  /          
                |  |  |   |  __  | /  /__\  \  |    /   |      \           
                |  |  |   | |  | | |   __   |  |    \   |  |\   \          
                \     /   | |  | | |  |  |  |  | |\  \  |  | \   \       
                 \___/    |_|  |_| |__|  |__|  |_| \__\ |__|  \__/        
                                                                              
                      - O R C A' S   B I G   F R I E N D -                    
                                      &                                       
                       - I N T E G R A L  F E E D E R -                       
                                                                              
 v1 FN, 2020, v2 2021, v3 2022-2024                                           
------------------------------------------------------------------------------


----------------------
SHARK INTEGRAL PACKAGE
----------------------

Number of atoms                             ...     13
Number of basis functions                   ...     86
Number of shells                            ...     46
Maximum angular momentum                    ...      2
Integral batch strategy                     ... SHARK/LIBINT Hybrid
RI-J (if used) integral strategy            ... SPLIT-RIJ (Revised 2003 algorithm where possible)
Printlevel                                  ...      1
Contraction scheme used                     ... SEGMENTED contraction
Prescreening option                         ... SCHWARTZ
   Thresh                                   ... 1.000e-09
   Tcut                                     ... 1.000e-10
   Tpresel                                  ... 1.000e-10 
Coulomb Range Separation                    ... NOT USED
Exchange Range Separation                   ... NOT USED
Multipole approximations                    ... NOT USED
Finite Nucleus Model                        ... NOT USED
CABS basis                                  ... NOT available
Auxiliary Coulomb fitting basis             ... AVAILABLE
   # of basis functions in Aux-J            ...    333
   # of shells in Aux-J                     ...    115
   Maximum angular momentum in Aux-J        ...      4
Auxiliary J/K fitting basis                 ... NOT available
Auxiliary Correlation fitting basis         ... NOT available
Auxiliary 'external' fitting basis          ... NOT available

Checking pre-screening integrals            ... done (  0.0 sec) Dimension = 46
Check shell pair data                       ... done (  0.0 sec)
Shell pair information
Shell pair cut-off parameter TPreSel        ...   1.0e-10
Total number of shell pairs                 ...      1081
Shell pairs after pre-screening             ...      1060
Total number of primitive shell pairs       ...      4367
Primitive shell pairs kept                  ...      3235
          la=0 lb=0:    483 shell pairs
          la=1 lb=0:    306 shell pairs
          la=1 lb=1:     55 shell pairs
          la=2 lb=0:    151 shell pairs
          la=2 lb=1:     50 shell pairs
          la=2 lb=2:     15 shell pairs

Calculating one electron integrals          ... done (  0.0 sec)
Calculating RI/J V-Matrix + Cholesky decomp.... done (  0.0 sec)
Calculating Nuclear repulsion               ... done (  0.0 sec) ENN=    193.807543090897 Eh

Diagonalization of the overlap matrix:
Smallest eigenvalue                        ... 3.188e-03
Time for diagonalization                   ...    0.001 sec
Threshold for overlap eigenvalues          ... 1.000e-07
Number of eigenvalues below threshold      ... 0
Time for construction of square roots      ...    0.022 sec
Total time needed                          ...    0.043 sec

-------------------
DFT GRID GENERATION
-------------------

General Integration Accuracy     IntAcc      ... 4.159
Radial Grid Type                 RadialGrid  ... OptM3 with GC (2021)
Angular Grid (max. ang.)         AngularGrid ... 3 (Lebedev-194)
Angular grid pruning method      GridPruning ... 4 (adaptive)
Weight generation scheme         WeightScheme... mBecke (2022)
Basis function cutoff            BFCut       ... 1.0000e-10
Integration weight cutoff        WCut        ... 1.0000e-14
Partially contracted basis set               ... off
Rotationally invariant grid construction     ... off
Angular grids for H and He will be reduced by one unit

Total number of grid points                  ...    27856
Total number of batches                      ...      442
Average number of points per batch           ...       63
Average number of grid points per atom       ...     2143
Initializing property integral containers    ... done (  0.0 sec)

SHARK setup successfully completed in   0.5 seconds

Maximum memory used throughout the entire STARTUP-calculation: 14.0 MB
-------------------------------------------------------------------------------
                                 ORCA GUESS
                   Start orbitals & Density for SCF / CASSCF
-------------------------------------------------------------------------------

------------
SCF SETTINGS
------------
Hamiltonian:
 Density Functional     Method          .... DFT(GTOs)
 Exchange Functional    Exchange        .... PBE
   PBE kappa parameter   XKappa         ....  0.804000
   PBE mue parameter    XMuePBE         ....  0.219520
 Correlation Functional Correlation     .... PBE
   PBE beta parameter  CBetaPBE         ....  0.066725
 LDA part of GGA corr.  LDAOpt          .... PW91-LDA
 Gradients option       PostSCFGGA      .... off
   NL short-range parameter             ....  6.400000
 RI-approximation to the Coulomb term is turned on
   Number of AuxJ basis functions       .... 333


General Settings:
 Integral files         IntName         .... sp
 Hartree-Fock type      HFTyp           .... RHF
 Total Charge           Charge          ....    0
 Multiplicity           Mult            ....    1
 Number of Electrons    NEL             ....   42
 Basis Dimension        Dim             ....   86
 Nuclear Repulsion      ENuc            ....    193.8075430909 Eh

Convergence Acceleration:
 AO-DIIS                CNVDIIS         .... on
   Start iteration      DIISMaxIt       ....    12
   Startup error        DIISStart       ....  0.200000
   # of expansion vecs  DIISMaxEq       ....     5
   Bias factor          DIISBfac        ....   1.050
   Max. coefficient     DIISMaxC        ....  10.000
 MO-DIIS                CNVKDIIS        .... off
 Trust-Rad. Augm. Hess. CNVTRAH         .... auto
   Auto Start mean grad. ratio tolernc. ....  1.125000
   Auto Start start iteration           ....    50
   Auto Start num. interpolation iter.  ....    10
   Max. Number of Micro iterations      ....    24
   Max. Number of Macro iterations      .... Maxiter - #DIIS iter
   Number of Davidson start vectors     ....     2
   Converg. threshold    (grad. norm)   ....   1.000e-04
   Grad. Scal. Fac. for Micro threshold ....   0.100
   Minimum threshold for Micro iter.    ....   1.000e-02
   NR start threshold (gradient norm)   ....   1.000e-04
   Initial trust radius                 ....   0.400
   Minimum AH scaling param. (alpha)    ....   1.000
   Maximum AH scaling param. (alpha)    .... 1000.000
   Quad. conv. algorithm                .... NR
   White noise on init. David. guess    .... on
   Maximum white noise                  ....   0.010
   Pseudo random numbers                .... off
   Inactive MOs                         .... canonical
   Orbital update algorithm             .... Taylor
   Preconditioner                       .... Diag
   Full preconditioner red. dimension   ....   250
 SOSCF                  CNVSOSCF        .... on
   Start iteration      SOSCFMaxIt      ....   150
   Startup grad/error   SOSCFStart      ....  0.003300
   Hessian update       SOSCFHessUp     .... L-BFGS
 Level Shifting         CNVShift        .... on
   Level shift para.    LevelShift      ....    0.2500
   Turn off err/grad.   ShiftErr        ....    0.0010
 Zerner damping         CNVZerner       .... off
 Static damping         CNVDamp         .... on
   Fraction old density DampFac         ....    0.7000
   Max. Damping (<1)    DampMax         ....    0.9800
   Min. Damping (>=0)   DampMin         ....    0.0000
   Turn off err/grad.   DampErr         ....    0.1000

SCF Procedure:
 Maximum # iterations   MaxIter         ....   125
 SCF integral mode      SCFMode         .... Direct
   Integral package                     .... SHARK and LIBINT hybrid scheme
 Reset frequency        DirectResetFreq ....    20
 Integral Threshold     Thresh          ....  1.000e-09 Eh
 Primitive CutOff       TCut            ....  1.000e-10 Eh

Convergence Tolerance:
 Convergence Check Mode ConvCheckMode   .... Total+1el-Energy
 Convergence forced     ConvForced      .... 0
 Energy Change          TolE            ....  1.000e-05 Eh
 1-El. energy change                    ....  1.000e-02 Eh
 Orbital Gradient       TolG            ....  1.000e-04
 Orbital Rotation angle TolX            ....  1.000e-04
 DIIS Error             TolErr          ....  5.000e-04

------------------------------
INITIAL GUESS: MODEL POTENTIAL
------------------------------
Loading Hartree-Fock densities                     ... done
Calculating cut-offs                               ... done
Initializing the effective Hamiltonian             ... done
Setting up the integral package (SHARK)            ... done
Starting the Coulomb interaction                   ... done (   0.1 sec)
Making the grid                                    ... done (   0.1 sec)
Mapping shells                                     ... done
Starting the XC term evaluation                    ... done (   0.1 sec)
  promolecular density results
     # of electrons  =     41.990669489
     EX              =    -34.001895805
     EC              =     -1.381301997
     EX+EC           =    -35.383197802
Transforming the Hamiltonian                       ... done (   0.0 sec)
Diagonalizing the Hamiltonian                      ... done (   0.0 sec)
Back transforming the eigenvectors                 ... done (   0.0 sec)
Now organizing SCF variables                       ... done
                      ------------------
                      INITIAL GUESS DONE (   0.3 sec)
                      ------------------
             **** ENERGY FILE WAS UPDATED (sp.en.tmp) ****
Finished Guess after   0.4 sec
Maximum memory used throughout the entire GUESS-calculation: 10.7 MB

-------------------------------------------------------------------------------------------
                                      ORCA LEAN-SCF
                              memory conserving SCF solver
-------------------------------------------------------------------------------------------

----------------------------------------D-I-I-S--------------------------------------------
Iteration    Energy (Eh)           Delta-E    RMSDP     MaxDP     DIISErr   Damp  Time(sec)
-------------------------------------------------------------------------------------------
               ***  Starting incremental Fock matrix formation  ***
    1    -268.8705549078259764     0.00e+00  5.46e-03  7.33e-02  2.17e-01  0.700   0.5
    2    -268.9320384168573241    -6.15e-02  3.74e-03  3.70e-02  7.64e-02  0.700   0.5
                               ***Turning on AO-DIIS***
    3    -268.9528868504244770    -2.08e-02  1.51e-03  1.33e-02  1.88e-02  0.700   0.5
    4    -268.9660303023976553    -1.31e-02  2.16e-03  2.03e-02  1.13e-02  0.000   0.5
    5    -268.9959987011644671    -3.00e-02  5.65e-04  6.01e-03  4.73e-03  0.000   0.5
                              *** Initializing SOSCF ***
---------------------------------------S-O-S-C-F--------------------------------------
Iteration    Energy (Eh)           Delta-E    RMSDP     MaxDP     MaxGrad    Time(sec)
--------------------------------------------------------------------------------------
    6    -268.9961780154502549    -1.79e-04  2.19e-04  2.38e-03  1.18e-03     0.5
               *** Restarting incremental Fock matrix formation ***
    7    -268.9961959062839583    -1.79e-05  1.55e-04  1.60e-03  2.57e-04     0.5
    8    -268.9961968482393218    -9.42e-07  4.57e-05  6.98e-04  2.47e-04     0.6
                 **** Energy Check signals convergence ****

               *****************************************************
               *                     SUCCESS                       *
               *           SCF CONVERGED AFTER   8 CYCLES          *
               *****************************************************

             **** ENERGY FILE WAS UPDATED (sp.en.tmp) ****

----------------
TOTAL SCF ENERGY
----------------

Total Energy       :       -268.99619684823932 Eh           -7319.75865 eV

Components:
Nuclear Repulsion  :        193.80754309089656 Eh            5273.77136 eV
Electronic Energy  :       -462.80373993913588 Eh          -12593.53001 eV
One Electron Energy:       -750.26460666796129 Eh          -20415.73786 eV
Two Electron Energy:        287.46086672882541 Eh            7822.20786 eV

Virial components:
Potential Energy   :       -536.02744543158201 Eh          -14586.04833 eV
Kinetic Energy     :        267.03124858334263 Eh            7266.28968 eV
Virial Ratio       :          2.00735849558927

DFT components:
N(Alpha)           :       20.999996388566 electrons
N(Beta)            :       20.999996388566 electrons
N(Total)           :       41.999992777133 electrons
E(X)               :      -34.715296312373 Eh       
E(C)               :       -1.393529900033 Eh       
E(XC)              :      -36.108826212406 Eh       

---------------
SCF CONVERGENCE
---------------

  Last Energy change         ...    9.4196e-07  Tolerance :   1.0000e-05
  Last MAX-Density change    ...    6.9813e-04  Tolerance :   1.0000e-03
  Last RMS-Density change    ...    4.5673e-05  Tolerance :   1.0000e-04
  Last DIIS Error            ...    1.1761e-03  Tolerance :   5.0000e-04
  Last Orbital Gradient      ...    2.4657e-04  Tolerance :   1.0000e-04
  Last Orbital Rotation      ...    1.8882e-04  Tolerance :   1.0000e-04


----------------
ORBITAL ENERGIES
----------------

  NO   OCC          E(Eh)            E(eV) 
   0   2.0000     -18.761829      -510.5353 
   1   2.0000     -18.738609      -509.9035 
   2   2.0000      -9.932936      -270.2889 
   3   2.0000      -9.932409      -270.2746 
   4   2.0000      -9.929450      -270.1941 
   5   2.0000      -0.942742       -25.6533 
   6   2.0000      -0.911633       -24.8068 
   7   2.0000      -0.675285       -18.3754 
   8   2.0000      -0.615179       -16.7399 
   9   2.0000      -0.542384       -14.7590 
  10   2.0000      -0.459192       -12.4952 
  11   2.0000      -0.445809       -12.1311 
  12   2.0000      -0.434242       -11.8163 
  13   2.0000      -0.396279       -10.7833 
  14   2.0000      -0.374891       -10.2013 
  15   2.0000      -0.369100       -10.0437 
  16   2.0000      -0.336046        -9.1443 
  17   2.0000      -0.278892        -7.5890 
  18   2.0000      -0.270593        -7.3632 
  19   2.0000      -0.229206        -6.2370 
  20   2.0000      -0.200732        -5.4622 
  21   0.0000       0.029885         0.8132 
  22   0.0000       0.060347         1.6421 
  23   0.0000       0.068526         1.8647 
  24   0.0000       0.078980         2.1492 
  25   0.0000       0.089023         2.4224 
  26   0.0000       0.104693         2.8488 
  27   0.0000       0.116833         3.1792 
  28   0.0000       0.120081         3.2676 
  29   0.0000       0.156375         4.2552 
  30   0.0000       0.174415         4.7461 
  31   0.0000       0.182543         4.9672 
*Only the first 10 virtual orbitals were printed.

                    ********************************
                    * MULLIKEN POPULATION ANALYSIS *
                    ********************************

-----------------------
MULLIKEN ATOMIC CHARGES
-----------------------
   0 C :   -0.114237
   1 O :   -0.349154
   2 C :   -0.029702
   3 C :    0.009811
   4 O :   -0.444392
   5 H :    0.091502
   6 H :    0.094130
   7 H :    0.118480
   8 H :    0.098169
   9 H :    0.067329
  10 H :    0.075081
  11 H :    0.088343
  12 H :    0.294641
Sum of atomic charges:    0.0000000

--------------------------------
MULLIKEN REDUCED ORBITAL CHARGES
--------------------------------
  0 C s       :     3.118969  s :     3.118969
      pz      :     0.916059  p :     2.939736
      px      :     0.932532
      py      :     1.091145
      dz2     :     0.016344  d :     0.055532
      dxz     :     0.014755
      dyz     :     0.005739
      dx2y2   :     0.005660
      dxy     :     0.013033

  1 O s       :     3.779398  s :     3.779398
      pz      :     1.577718  p :     4.554130
      px      :     1.399137
      py      :     1.577275
      dz2     :     0.003283  d :     0.015627
      dxz     :     0.003937
      dyz     :     0.002440
      dx2y2   :     0.002438
      dxy     :     0.003528

  2 C s       :     3.073829  s :     3.073829
      pz      :     1.078888  p :     2.894428
      px      :     0.914367
      py      :     0.901173
      dz2     :     0.010826  d :     0.061446
      dxz     :     0.012479
      dyz     :     0.007342
      dx2y2   :     0.014093
      dxy     :     0.016704

  3 C s       :     3.050471  s :     3.050471
      pz      :     1.002564  p :     2.876621
      px      :     0.961175
      py      :     0.912882
      dz2     :     0.013639  d :     0.063097
      dxz     :     0.012215
      dyz     :     0.009597
      dx2y2   :     0.009221
      dxy     :     0.018426

  4 O s       :     3.790574  s :     3.790574
      pz      :     1.770931  p :     4.638237
      px      :     1.549794
      py      :     1.317512
      dz2     :     0.002225  d :     0.015581
      dxz     :     0.002823
      dyz     :     0.001449
      dx2y2   :     0.001670
      dxy     :     0.007414

  5 H s       :     0.908498  s :     0.908498

  6 H s       :     0.905870  s :     0.905870

  7 H s       :     0.881520  s :     0.881520

  8 H s       :     0.901831  s :     0.901831

  9 H s       :     0.932671  s :     0.932671

 10 H s       :     0.924919  s :     0.924919

 11 H s       :     0.911657  s :     0.911657

 12 H s       :     0.705359  s :     0.705359


------------------------
MULLIKEN OVERLAP CHARGES
------------------------
B(  0-C ,  1-O ) :   0.6515 B(  0-C ,  2-C ) :  -0.1139 B(  0-C ,  5-H ) :   0.7474 
B(  0-C ,  6-H ) :   0.7268 B(  0-C ,  7-H ) :   0.7699 B(  1-O ,  2-C ) :   0.6473 
B(  1-O ,  3-C ) :  -0.1152 B(  1-O ,  5-H ) :  -0.0693 B(  1-O ,  6-H ) :  -0.0794 
B(  1-O ,  7-H ) :  -0.0553 B(  1-O ,  8-H ) :  -0.0710 B(  1-O ,  9-H ) :  -0.0648 
B(  2-C ,  3-C ) :   0.8593 B(  2-C ,  4-O ) :  -0.0836 B(  2-C ,  8-H ) :   0.7011 
B(  2-C ,  9-H ) :   0.6254 B(  2-C , 10-H ) :  -0.0641 B(  3-C ,  4-O ) :   0.6907 
B(  3-C ,  8-H ) :  -0.0678 B(  3-C ,  9-H ) :  -0.0730 B(  3-C , 10-H ) :   0.6739 
B(  3-C , 11-H ) :   0.6581 B(  3-C , 12-H ) :  -0.1133 B(  4-O , 10-H ) :  -0.0734 
B(  4-O , 11-H ) :  -0.0686 B(  4-O , 12-H ) :   0.5282 B(  5-H ,  6-H ) :  -0.0983 
B(  6-H ,  7-H ) :  -0.0586 B( 10-H , 11-H ) :  -0.0799 


                     *******************************
                     * LOEWDIN POPULATION ANALYSIS *
                     *******************************

----------------------
LOEWDIN ATOMIC CHARGES
----------------------
   0 C :   -0.209206
   1 O :   -0.185980
   2 C :   -0.138853
   3 C :   -0.141914
   4 O :   -0.345503
   5 H :    0.100110
   6 H :    0.096589
   7 H :    0.117937
   8 H :    0.116543
   9 H :    0.099400
  10 H :    0.095869
  11 H :    0.115998
  12 H :    0.279011

-------------------------------
LOEWDIN REDUCED ORBITAL CHARGES
-------------------------------
  0 C s       :     2.962563  s :     2.962563
      pz      :     0.992637  p :     3.124537
      px      :     0.991228
      py      :     1.140672
      dz2     :     0.037142  d :     0.122106
      dxz     :     0.032758
      dyz     :     0.011087
      dx2y2   :     0.011042
      dxy     :     0.030077

  1 O s       :     3.478634  s :     3.478634
      pz      :     1.617706  p :     4.677867
      px      :     1.438190
      py      :     1.621970
      dz2     :     0.005755  d :     0.029479
      dxz     :     0.008091
      dyz     :     0.003518
      dx2y2   :     0.004675
      dxy     :     0.007441

  2 C s       :     2.933495  s :     2.933495
      pz      :     1.118668  p :     3.065738
      px      :     0.980907
      py      :     0.966163
      dz2     :     0.024085  d :     0.139620
      dxz     :     0.030777
      dyz     :     0.015317
      dx2y2   :     0.031040
      dxy     :     0.038400

  3 C s       :     2.923761  s :     2.923761
      pz      :     1.064088  p :     3.075932
      px      :     1.033489
      py      :     0.978355
      dz2     :     0.030065  d :     0.142221
      dxz     :     0.031461
      dyz     :     0.020720
      dx2y2   :     0.018395
      dxy     :     0.041579

  4 O s       :     3.544398  s :     3.544398
      pz      :     1.790292  p :     4.774257
      px      :     1.604054
      py      :     1.379912
      dz2     :     0.003337  d :     0.026848
      dxz     :     0.004252
      dyz     :     0.003154
      dx2y2   :     0.002660
      dxy     :     0.013444

  5 H s       :     0.899890  s :     0.899890

  6 H s       :     0.903411  s :     0.903411

  7 H s       :     0.882063  s :     0.882063

  8 H s       :     0.883457  s :     0.883457

  9 H s       :     0.900600  s :     0.900600

 10 H s       :     0.904131  s :     0.904131

 11 H s       :     0.884002  s :     0.884002

 12 H s       :     0.720989  s :     0.720989


---------------------------------
LOEWDIN BOND ORDERS (THRESH 0.050000)
---------------------------------
B(  0-C ,  1-O ) :   1.1926 B(  0-C ,  2-C ) :   0.0669 B(  0-C ,  5-H ) :   0.9405 
B(  0-C ,  6-H ) :   0.9418 B(  0-C ,  7-H ) :   0.9519 B(  1-O ,  2-C ) :   1.1744 
B(  1-O ,  3-C ) :   0.0702 B(  2-C ,  3-C ) :   1.1088 B(  2-C ,  4-O ) :   0.0794 
B(  2-C ,  8-H ) :   0.9101 B(  2-C ,  9-H ) :   0.8978 B(  3-C ,  4-O ) :   1.2450 
B(  3-C , 10-H ) :   0.9056 B(  3-C , 11-H ) :   0.9093 B(  4-O , 12-H ) :   0.8840 


------------------------------------------
LOEWDIN REDUCED ORBITAL POPULATIONS PER MO
-------------------------------------------
THRESHOLD FOR PRINTING IS 0.1%%
                      0         1         2         3         4         5   
                 -18.76183 -18.73861  -9.93294  -9.93241  -9.92945  -0.94274
                   2.00000   2.00000   2.00000   2.00000   2.00000   2.00000
                  --------  --------  --------  --------  --------  --------
 0 C  s               0.0       0.0       0.0      99.7       0.0       7.5
 0 C  pz              0.0       0.0       0.0       0.0       0.0       3.3
 0 C  px              0.0       0.0       0.0       0.0       0.0       3.5
 0 C  dxz             0.0       0.0       0.0       0.0       0.0       0.5
 0 C  dx2y2           0.0       0.0       0.0       0.0       0.0       0.1
 1 O  s              99.9       0.0       0.0       0.0       0.0      48.5
 1 O  pz              0.0       0.0       0.0       0.1       0.0       1.6
 1 O  py              0.0       0.0       0.1       0.0       0.0       1.1
 2 C  s               0.0       0.0      99.6       0.0       0.0       9.2
 2 C  px              0.0       0.0       0.0       0.0       0.1       2.4
 2 C  py              0.0       0.0       0.0       0.0       0.0       4.3
 2 C  dz2             0.0       0.0       0.0       0.0       0.0       0.2
 2 C  dxy             0.0       0.0       0.0       0.0       0.0       0.4
 3 C  s               0.0       0.0       0.0       0.0      99.6       2.7
 3 C  pz              0.0       0.0       0.0       0.0       0.0       0.7
 3 C  px              0.0       0.0       0.1       0.0       0.0       0.2
 3 C  py              0.0       0.0       0.0       0.0       0.0       0.4
 4 O  s               0.0      99.9       0.0       0.0       0.0       5.4
 4 O  px              0.0       0.0       0.0       0.0       0.0       0.4
 5 H  s               0.0       0.0       0.0       0.1       0.0       0.9
 6 H  s               0.0       0.0       0.0       0.1       0.0       0.9
 7 H  s               0.0       0.0       0.0       0.1       0.0       0.9
 8 H  s               0.0       0.0       0.1       0.0       0.0       1.2
 9 H  s               0.0       0.0       0.1       0.0       0.0       1.1
10 H  s               0.0       0.0       0.0       0.0       0.1       0.4
11 H  s               0.0       0.0       0.0       0.0       0.1       0.3
12 H  s               0.0       0.0       0.0       0.0       0.0       1.4

                      6         7         8         9        10        11   
                  -0.91163  -0.67528  -0.61518  -0.54238  -0.45919  -0.44581
                   2.00000   2.00000   2.00000   2.00000   2.00000   2.00000
                  --------  --------  --------  --------  --------  --------
 0 C  s               1.2      12.6      19.2       5.7       0.3       1.0
 0 C  pz              0.5       0.3       1.2       4.3       0.7      17.8
 0 C  px              0.5       0.1       0.9       2.7       4.3       1.0
 0 C  py              0.0       0.2       0.0       0.5       0.0       0.3
 0 C  dxz             0.1       0.0       0.1       0.3       0.0       0.4
 1 O  s               6.7       0.5       4.4       5.3       0.2       0.1
 1 O  pz              0.2       1.6       3.0       0.1       5.0       0.8
 1 O  px              0.0      10.3       4.3       0.8       0.5      22.8
 1 O  py              0.1       3.3       0.8       3.0       0.4       2.6
 2 C  s               0.1      22.7       0.4      10.4       0.3       0.7
 2 C  pz              0.2       0.1       4.0       1.1      15.0       0.6
 2 C  px              2.5       1.5       4.2       0.2       0.0       1.1
 2 C  py              0.1       0.1       1.5       3.9       0.8      18.3
 2 C  dxz             0.0       0.0       0.0       0.1       0.1       0.0
 2 C  dxy             0.1       0.0       0.3       0.1       0.0       0.2
 3 C  s               8.4      10.9      14.2       6.8       0.7       0.0
 3 C  pz              1.0       0.5       0.6       3.8       6.8       0.3
 3 C  px              2.6       3.0       0.0       3.9      17.0       0.1
 3 C  py              5.0       2.2       1.6       0.1       0.3       7.3
 3 C  dxz             0.1       0.1       0.0       0.1       0.0       0.0
 3 C  dyz             0.2       0.1       0.0       0.0       0.1       0.0
 3 C  dxy             0.3       0.0       0.0       0.0       0.1       0.0
 4 O  s              53.5       3.2       1.7       0.4       1.0       0.3
 4 O  pz              0.0       0.2       1.2       3.7       1.1       1.6
 4 O  px              3.1       0.1       0.1       0.1       2.9       0.5
 4 O  py              0.0       2.2       5.2       9.5      19.5       2.8
 4 O  dxy             0.0       0.1       0.1       0.1       0.1       0.0
 5 H  s               0.1       2.2       5.7       4.6       0.8       1.7
 6 H  s               0.1       2.2       6.5       3.2       0.6       7.1
 7 H  s               0.2       3.3       6.0       2.1       1.3       0.0
 8 H  s               0.0       5.3       0.0       5.4       5.5       0.5
 9 H  s               0.0       4.5       0.5       6.7       0.0       6.7
10 H  s               0.9       2.1       4.5       3.1       7.7       0.6
11 H  s               1.0       2.6       5.1       3.8       0.4       1.5
12 H  s              10.6       1.4       2.4       3.7       6.3       0.9

                     12        13        14        15        16        17   
                  -0.43424  -0.39628  -0.37489  -0.36910  -0.33605  -0.27889
                   2.00000   2.00000   2.00000   2.00000   2.00000   2.00000
                  --------  --------  --------  --------  --------  --------
 0 C  s               0.1       0.1       0.0       0.1       0.1       0.1
 0 C  pz              0.1       4.4       9.0       0.6       0.9       2.2
 0 C  px              0.3      22.9       3.3       0.0       8.7       0.1
 0 C  py             20.5       0.3       9.9      13.0       8.0       0.2
 0 C  dz2             0.0       0.1       0.1       0.0       0.2       0.1
 0 C  dxz             0.0       0.0       0.1       0.0       0.0       0.0
 0 C  dx2y2           0.0       0.1       0.0       0.0       0.0       0.0
 0 C  dxy             0.0       0.0       0.0       0.2       0.4       0.0
 1 O  s               0.7       0.7       0.4       0.2       0.0       0.9
 1 O  pz              1.1      17.4       0.9       0.0       0.1       6.7
 1 O  px              0.8       0.1       2.4       0.5       5.4       0.1
 1 O  py             16.0       0.7       0.3       0.3       1.0       0.1
 1 O  dz2             0.0       0.1       0.0       0.0       0.0       0.0
 1 O  dxz             0.0       0.0       0.0       0.0       0.1       0.0
 2 C  s               0.1       0.2       0.0       0.9       0.3       0.7
 2 C  pz              2.6       2.5       2.2       0.3      20.8       0.2
 2 C  px             17.2       0.6       3.4       3.6       4.0       3.9
 2 C  py              4.3       0.3       2.2       5.4       0.8       2.9
 2 C  dz2             0.1       0.0       0.0       0.0       0.4       0.3
 2 C  dxz             0.0       0.1       0.0       0.1       0.2       0.1
 2 C  dyz             0.0       0.1       0.1       0.0       0.1       0.2
 2 C  dx2y2           0.0       0.0       0.1       0.2       0.0       0.0
 2 C  dxy             0.0       0.1       0.2       0.2       0.0       0.0
 3 C  s               0.1       1.0       0.4       0.3       0.0       0.2
 3 C  pz              4.9      13.4       7.9       4.4       3.1       0.9
 3 C  px              2.7       0.1       7.4       1.8       0.1       5.5
 3 C  py              0.3       0.4       8.0      20.2       1.5       0.5
 3 C  dz2             0.1       0.1       0.0       0.0       0.2       0.1
 3 C  dxz             0.1       0.0       0.0       0.1       0.0       0.0
 3 C  dyz             0.0       0.0       0.0       0.0       0.1       0.3
 3 C  dx2y2           0.0       0.0       0.0       0.0       0.1       0.4
 3 C  dxy             0.1       0.2       0.2       0.5       0.0       0.1
 4 O  s               1.3       0.3       1.5       0.0       1.0       6.1
 4 O  pz              2.5       0.2       0.0      11.5       1.1       0.1
 4 O  px              2.5       0.2      11.6       0.8       2.9      48.3
 4 O  py              0.5       7.7       3.4       1.3       0.9       0.6
 5 H  s               4.4       4.0       5.7       5.5       0.9       0.1
 6 H  s               0.2       5.4       8.7       0.0       2.2       1.5
 7 H  s               5.7       5.0       0.1       4.0      11.8       0.1
 8 H  s               3.1       0.1       0.3       0.6      16.0       3.0
 9 H  s               5.5       0.5       0.7       5.9       2.0       4.1
10 H  s               0.4       6.8       0.6       4.1       3.8       2.6
11 H  s               0.0       1.5       8.5      11.6       0.1       3.4
12 H  s               0.9       1.8       0.3       1.4       0.3       3.0

                     18        19        20        21        22        23   
                  -0.27059  -0.22921  -0.20073   0.02988   0.06035   0.06853
                   2.00000   2.00000   2.00000   0.00000   0.00000   0.00000
                  --------  --------  --------  --------  --------  --------
 0 C  s               0.5       0.0       0.0       7.1       6.1       2.1
 0 C  pz              3.1       0.4       0.6       5.7       0.9       1.3
 0 C  px              0.5       0.5       0.2       2.6       1.0       6.9
 0 C  py              3.2       0.6       0.2       0.0       0.2       1.4
 0 C  dz2             0.1       0.6       0.5       0.0       0.0       0.1
 0 C  dxz             0.0       0.1       0.0       0.5       0.2       0.3
 0 C  dyz             0.1       0.1       0.1       0.0       0.0       0.0
 0 C  dx2y2           0.0       0.0       0.0       0.1       0.1       0.5
 0 C  dxy             0.7       0.1       0.1       0.0       0.0       0.0
 1 O  s               5.1       0.0       0.1       2.6       2.2       3.2
 1 O  pz             20.5      12.1       9.5       0.5       0.9       1.9
 1 O  px              0.3      13.8       9.7       0.2       0.3       0.1
 1 O  py             28.9      12.6       9.9       0.3       0.1       0.3
 2 C  s               0.2       0.2       0.5       1.7       2.4       4.3
 2 C  pz              4.3       0.0       1.9       0.0       0.3       0.3
 2 C  px              1.3       0.2       2.8       0.2       1.4       2.6
 2 C  py              2.5       0.2       0.7       4.0       1.8       9.1
 2 C  dz2             0.0       0.0       0.0       0.0       0.0       0.7
 2 C  dxz             0.1       0.3       0.5       0.1       0.0       0.0
 2 C  dyz             0.2       0.0       0.0       0.0       0.0       0.0
 2 C  dx2y2           0.3       0.4       0.5       0.0       0.0       0.0
 2 C  dxy             0.2       0.0       0.0       0.3       0.4       0.8
 3 C  s               0.0       0.3       0.4       2.7       1.9       1.1
 3 C  pz              0.2       0.0       4.7       4.3       0.3       2.2
 3 C  px              2.6       3.1       1.5       0.3       1.7       2.9
 3 C  py              0.1       0.1       0.8       1.3       2.1       0.9
 3 C  dz2             0.0       0.5       0.3       0.0       0.0       0.2
 3 C  dxz             0.0       0.4       0.5       0.0       0.2       0.0
 3 C  dyz             0.0       0.0       0.1       0.0       0.2       0.5
 3 C  dx2y2           0.0       0.1       0.0       0.1       0.5       0.0
 3 C  dxy             0.3       0.0       0.1       0.4       0.1       0.1
 4 O  s               1.2       0.4       0.1       3.0       7.8       0.4
 4 O  pz              0.0      33.2      32.8       0.8       0.0       0.0
 4 O  px              5.7       0.5       0.3       1.9       4.6       0.0
 4 O  py              0.5       6.2       8.6       0.3       2.1       0.2
 4 O  dyz             0.0       0.0       0.0       0.0       0.2       0.0
 5 H  s               3.9       2.7       1.6       7.0       5.3       1.8
 6 H  s               0.8       3.3       2.4      12.0       3.2      12.3
 7 H  s               3.3       0.0       0.1       4.8       2.1       0.2
 8 H  s               1.8       0.2       1.1       1.3       0.1      10.2
 9 H  s               3.9       0.5       2.3       7.4       5.0      12.8
10 H  s               0.0       3.7       3.9       9.0       2.1      14.6
11 H  s               2.5       1.9       0.0       3.8       1.9       2.3
12 H  s               0.9       0.5       0.2      13.4      40.0       1.1

                     24        25        26        27        28        29   
                   0.07898   0.08902   0.10469   0.11683   0.12008   0.15638
                   0.00000   0.00000   0.00000   0.00000   0.00000   0.00000
                  --------  --------  --------  --------  --------  --------
 0 C  s               6.9       2.8       2.0       2.9       0.3       0.7
 0 C  pz              0.0       2.7       8.5       0.0       9.1       3.5
 0 C  px              6.3       0.3      11.1       0.2       3.3       6.6
 0 C  py              0.8       7.9       9.1       1.1       2.1       6.0
 0 C  dz2             0.1       0.0       0.2       0.1       0.0       0.9
 0 C  dxz             0.0       0.1       3.1       0.1       0.7       0.0
 0 C  dyz             0.0       0.1       0.3       0.0       0.0       0.0
 0 C  dx2y2           0.2       0.1       0.4       0.0       0.0       0.3
 0 C  dxy             0.1       0.6       0.1       0.4       0.3       0.0
 1 O  s               0.5       0.7       6.3       0.5       2.5       0.0
 1 O  pz              0.2       0.1       4.3       0.1       0.1       1.3
 1 O  px              0.1       0.0       1.5       2.1       0.6       0.2
 1 O  py              0.1       0.0       2.4       1.9       1.8       0.7
 1 O  dz2             0.0       0.1       0.0       0.1       0.1       0.2
 1 O  dxz             0.0       0.2       0.3       0.2       0.0       0.0
 1 O  dyz             0.0       0.3       0.0       0.0       0.0       0.0
 1 O  dx2y2           0.1       0.1       0.1       0.1       0.0       0.1
 1 O  dxy             0.0       0.1       0.1       0.2       0.1       0.0
 2 C  s               1.5       1.9       3.6       6.1       0.0       0.4
 2 C  pz              1.1       9.2       1.3       0.5       3.3       1.7
 2 C  px              1.1       1.2       1.4       6.8       7.7       0.2
 2 C  py              0.5       1.8       1.9       1.3       1.6       2.3
 2 C  dz2             0.1       0.4       0.2       0.3       0.9       0.0
 2 C  dxz             0.1       0.2       0.1       0.0       0.0       0.0
 2 C  dyz             0.0       0.1       0.1       0.9       0.0       0.1
 2 C  dx2y2           0.2       0.0       0.0       0.0       0.1       0.2
 2 C  dxy             0.1       0.5       0.4       0.6       0.2       0.6
 3 C  s               9.1       0.1       1.3       0.2       0.1       5.5
 3 C  pz              0.9       0.8       0.4       0.6       0.1       2.8
 3 C  px              1.3       0.3       0.3       3.6       1.3       0.1
 3 C  py              3.7       0.7       0.4       8.7       6.0       1.9
 3 C  dz2             0.1       0.4       0.0       0.5       0.3       0.0
 3 C  dxz             0.0       0.2       0.0       0.1       0.2       0.2
 3 C  dyz             0.0       0.0       0.1       0.0       0.3       0.1
 3 C  dxy             0.0       0.3       0.0       0.8       0.2       0.7
 4 O  s               0.1       0.0       1.3       0.1       1.1       0.2
 4 O  pz              0.1       0.4       0.0       0.8       0.5       0.3
 4 O  px              0.0       0.3       0.6       0.1       0.9       0.8
 4 O  py              0.1       0.8       0.2       0.4       0.1       0.7
 4 O  dx2y2           0.1       0.0       0.0       0.1       0.0       0.0
 5 H  s              18.8       3.6      10.2       5.3       0.1      12.9
 6 H  s               0.0       0.2       0.1       1.6      10.7      20.2
 7 H  s               9.8      23.8      10.1       0.9      17.2       0.5
 8 H  s               4.0      28.3       5.9       0.4      12.0       0.8
 9 H  s               0.7       6.5       1.2      19.4       3.4       8.4
10 H  s               3.9       0.9       2.3       4.5       1.4      16.3
11 H  s              27.0       0.2       0.6      23.8       7.7       1.3
12 H  s               0.1       0.7       5.8       1.2       1.5       0.2

                     30        31        32        33        34        35   
                   0.17442   0.18254   0.21699   0.39861   0.40504   0.43285
                   0.00000   0.00000   0.00000   0.00000   0.00000   0.00000
                  --------  --------  --------  --------  --------  --------
 0 C  s               0.0       0.4       0.0       5.8       1.1       3.3
 0 C  pz              2.2       5.7       7.7      14.3       9.5      21.7
 0 C  px              0.2       3.8       2.1      14.8      14.4       3.1
 0 C  py              0.4       0.9       0.2       7.6       3.0      19.9
 0 C  dz2             0.0       0.5       0.0       0.0       1.6       1.8
 0 C  dxz             0.2       1.2       1.9       0.0       0.1       2.0
 0 C  dyz             0.0       0.1       0.2       0.1       1.1       0.1
 0 C  dx2y2           0.0       0.2       0.2       0.3       0.3       1.7
 0 C  dxy             0.1       0.1       0.0       2.1       2.7       2.2
 1 O  s               0.0       0.1       0.0       0.0       0.3       0.3
 1 O  pz              0.0       0.6       2.5       1.0       2.2       2.9
 1 O  px              1.2       9.3       3.7       5.6       0.8       0.5
 1 O  py              1.1       1.6       3.7       0.3       0.2       0.4
 1 O  dz2             0.0       0.1       0.1       0.4       0.1       0.0
 1 O  dxz             0.1       0.1       0.1       1.6       0.1       0.6
 1 O  dyz             0.1       0.2       0.0       0.0       0.1       0.1
 1 O  dx2y2           0.0       0.1       0.4       0.2       0.0       0.0
 1 O  dxy             0.0       0.4       0.1       0.3       0.1       0.6
 2 C  s               0.1       8.5       0.8       3.2       1.4       1.5
 2 C  pz              2.3       2.8       8.3       0.7      13.3       0.1
 2 C  px              0.4       0.4      19.4       0.5       0.1       6.3
 2 C  py              1.8      18.8       0.7      11.0       1.6       1.3
 2 C  dz2             0.3       1.3       0.4       0.1       0.9       0.0
 2 C  dxz             0.4       2.7       1.4       0.3       2.4       0.4
 2 C  dyz             0.0       0.7       0.7       0.6       0.1       0.3
 2 C  dx2y2           0.1       0.0       0.9       0.0       0.1       0.1
 2 C  dxy             1.0       0.6       2.3       0.4       0.4       0.0
 3 C  s               1.9       6.5       0.7       3.7       0.5       0.8
 3 C  pz              6.2      11.2       9.9       2.2       3.1       0.6
 3 C  px             16.5       3.3       8.9       1.5       7.0       0.1
 3 C  py             11.2       2.5       3.5       5.1       1.6       0.4
 3 C  dz2             0.6       0.0       0.1       0.2       0.7       0.0
 3 C  dxz             0.7       1.9       2.3       0.0       0.6       0.0
 3 C  dyz             1.7       1.0       0.5       0.1       0.0       0.0
 3 C  dx2y2           0.6       0.9       0.3       0.0       0.0       0.0
 3 C  dxy             2.5       1.2       0.3       0.0       0.9       0.0
 4 O  s               2.4       0.2       0.2       0.4       0.0       0.1
 4 O  pz              2.3       0.2       1.5       0.4       0.0       0.0
 4 O  px              0.5       0.6       0.3       0.5       0.4       0.0
 4 O  py             14.7       1.4       0.2       0.8       0.1       0.4
 4 O  dz2             0.0       0.1       0.1       0.0       0.0       0.0
 4 O  dxz             0.0       0.2       0.0       0.0       0.0       0.0
 4 O  dyz             0.1       0.0       0.2       0.0       0.0       0.0
 4 O  dx2y2           0.2       0.0       0.0       0.0       0.0       0.0
 4 O  dxy             0.4       0.1       0.0       0.3       0.0       0.1
 5 H  s               0.4       1.0       1.7       6.4       0.1      10.6
 6 H  s               1.6       0.3       3.1       0.6       6.6       9.8
 7 H  s               0.2       0.1       0.3       1.8       9.9       2.6
 8 H  s               4.4       2.7       0.8       0.6       7.1       1.5
 9 H  s               1.9       1.1       0.9       3.5       0.5       0.3
10 H  s               5.5       1.7       4.7       0.0       0.5       0.0
11 H  s               3.1       0.2       0.9       0.4       2.2       0.2
12 H  s               8.2       0.5       0.8       0.2       0.1       0.9

                     36        37        38        39        40        41   
                   0.45178   0.45684   0.49052   0.54034   0.55054   0.58258
                   0.00000   0.00000   0.00000   0.00000   0.00000   0.00000
                  --------  --------  --------  --------  --------  --------
 0 C  s               0.0       0.7       1.1       1.8       0.8       1.6
 0 C  pz              2.8       2.4       3.1       0.3       0.2       1.2
 0 C  px              2.0       2.7       1.5       6.6       3.0       2.8
 0 C  py              1.7       0.7       6.3       0.3       0.1       1.4
 0 C  dz2             1.5       0.2       0.1       0.5       0.0       0.1
 0 C  dxz             0.4       0.0       0.1       0.1       0.3       0.0
 0 C  dyz             0.0       0.0       0.7       0.1       0.0       0.6
 0 C  dx2y2           0.3       0.0       0.0       0.7       0.1       0.1
 0 C  dxy             0.4       0.1       0.8       0.0       0.0       1.2
 1 O  s               0.0       0.3       0.2       0.8       1.4       0.2
 1 O  pz              0.0       0.9       2.4       4.1       0.1       1.2
 1 O  px              0.7       0.2       0.5       0.3       0.1       0.8
 1 O  py              0.6       0.3       6.8       0.0       0.1       0.5
 1 O  dz2             0.3       0.0       0.1       0.0       0.1       0.0
 1 O  dx2y2           0.1       0.2       0.1       0.2       0.1       0.1
 1 O  dxy             0.5       0.1       0.6       0.0       0.1       0.0
 2 C  s               1.3       0.0       7.4       0.2       0.7       7.0
 2 C  pz              5.7       1.5       0.1       0.2      11.1       1.6
 2 C  px             26.2       2.0       2.3       2.1      20.3       1.5
 2 C  py              1.8       1.8      24.4       5.5       1.5       0.0
 2 C  dz2             0.2       0.5       0.3       0.1       0.2       1.1
 2 C  dxz             1.0       0.2       0.8       0.0       0.0       0.2
 2 C  dyz             0.6       0.5       2.0       0.4       0.0       0.1
 2 C  dx2y2           0.1       0.1       0.4       1.3       0.7       0.1
 2 C  dxy             0.0       0.3       1.1       0.1       0.0       0.1
 3 C  s               1.6      11.2       2.0       1.1       2.5       0.9
 3 C  pz              3.4      23.4       0.0       1.7       2.1       8.0
 3 C  px             11.5       4.0       1.1       3.5      32.7       1.9
 3 C  py             16.3      13.6       0.0       9.3       3.6       0.8
 3 C  dz2             0.2       0.2       0.0       4.6       0.0       0.1
 3 C  dxz             1.6       1.9       0.0       0.9       0.0       0.2
 3 C  dyz             0.0       0.7       0.6       0.6       0.1       0.0
 3 C  dx2y2           0.5       0.0       0.4       1.0       0.0       0.5
 3 C  dxy             0.1       0.3       1.0       1.8       0.1       0.1
 4 O  s               0.1       0.1       0.7       0.4       0.7       1.2
 4 O  pz              1.0       3.2       1.0       3.4       0.1       0.6
 4 O  px              0.7       0.5       0.7       0.2       1.2       6.9
 4 O  py              2.3       3.2       0.8       2.2       0.1       1.4
 4 O  dz2             0.1       0.0       0.1       0.4       0.1       0.6
 4 O  dxz             0.1       0.4       0.0       0.3       0.1       0.3
 4 O  dyz             0.0       0.6       0.3       0.3       0.0       0.5
 4 O  dx2y2           0.1       0.1       0.2       0.4       0.0       0.0
 4 O  dxy             0.9       1.7       0.2       0.2       0.0       1.2
 5 H  s               0.2       1.0       1.1       3.1       0.4       0.2
 6 H  s               4.4       0.1       0.0       0.7       2.5       0.4
 7 H  s               2.3       0.1       1.6       0.6       0.8       6.6
 8 H  s               0.0       2.0       0.2       1.9       3.2      13.7
 9 H  s               0.9       3.5      15.2       0.4       0.6       0.3
10 H  s               1.9       9.3       0.1      10.8       4.8       0.1
11 H  s               0.1       0.2       5.0      16.2       3.2       0.8
12 H  s               1.6       2.9       4.5       8.4       0.3      29.3

                     42        43        44        45        46        47   
                   0.60745   0.61879   0.62983   0.64181   0.65001   0.65558
                   0.00000   0.00000   0.00000   0.00000   0.00000   0.00000
                  --------  --------  --------  --------  --------  --------
 0 C  s              38.3       2.1       3.7       2.1       5.2       1.2
 0 C  pz              3.7       6.2      12.1       0.2       2.1       1.2
 0 C  px              2.9       9.8       1.9       0.4      10.0       3.5
 0 C  py              0.1       7.1      16.7      16.1       2.7       4.2
 0 C  dz2             0.0       1.7       0.3       0.0       0.2       0.1
 0 C  dxz             0.0       0.1       0.3       0.5       0.0       0.0
 0 C  dyz             0.0       0.3       0.2       0.0       0.0       0.1
 0 C  dx2y2           0.0       0.2       0.3       0.1       0.0       0.3
 0 C  dxy             0.2       0.1       0.6       0.9       0.1       0.3
 1 O  s               3.4       0.5       1.4       0.5       0.0       0.1
 1 O  pz              0.0       0.1       0.2       0.3       0.1       0.0
 1 O  px              0.1       0.2       0.4       2.7       0.4       0.5
 1 O  py              0.1       0.0       0.0       0.0       0.1       0.8
 2 C  s              13.6       2.7       0.8       3.8       6.9       3.1
 2 C  pz              0.8       0.3       1.4       1.0      11.0      28.8
 2 C  px              0.2       1.0       0.4       0.5       0.1      10.9
 2 C  py              2.6      11.0       0.1       0.4       3.7       0.1
 2 C  dz2             0.1       0.0       0.4       0.4       0.0       0.0
 2 C  dxz             0.0       0.0       0.1       0.2       0.2       0.1
 2 C  dyz             0.0       0.1       0.0       0.1       0.0       0.1
 2 C  dx2y2           0.0       0.2       0.1       0.9       0.0       0.0
 2 C  dxy             0.0       0.3       0.0       0.6       0.1       0.0
 3 C  s               6.8       7.6       3.4       5.8       7.9       1.8
 3 C  pz              3.7       2.5       4.0       2.6       0.3       0.9
 3 C  px              0.7       0.7       0.4       7.9       2.9       2.3
 3 C  py              1.0       0.2       0.6       6.7       9.9       3.2
 3 C  dz2             0.8       0.1       0.0       0.0       0.6       0.3
 3 C  dxz             0.0       0.0       0.2       0.1       0.1       0.0
 3 C  dx2y2           0.2       0.0       0.1       0.0       0.0       0.1
 3 C  dxy             0.3       0.0       0.4       0.0       0.2       0.1
 4 O  s               0.2       0.2       0.1       0.5       1.1       0.1
 4 O  pz              0.3       0.0       0.0       0.0       0.0       1.1
 4 O  px              1.3       0.1       0.5       4.0       0.8       0.5
 4 O  py              1.0       0.3       0.6       0.6       0.5       0.0
 4 O  dz2             0.2       0.0       0.0       0.0       0.0       0.0
 4 O  dyz             0.1       0.1       0.0       0.1       0.0       0.1
 4 O  dxy             0.3       0.0       0.0       0.1       0.4       0.0
 5 H  s               0.1      17.4      18.7       1.8       0.6       0.6
 6 H  s               0.6       5.0      17.4       6.4       0.9       0.5
 7 H  s               1.7       3.8       2.1      20.6       2.2      13.8
 8 H  s               1.1       0.5       1.4       2.7       7.8       9.4
 9 H  s               0.3      13.6       0.0       3.8       3.9       4.7
10 H  s               1.5       2.7       1.3       0.2       2.6       1.7
11 H  s               4.4       0.0       6.6       1.2       8.2       3.1
12 H  s               7.0       0.8       0.2       2.9       5.9       0.1

                     48        49        50        51        52        53   
                   0.66343   0.68154   0.69239   0.77530   0.95222   0.96714
                   0.00000   0.00000   0.00000   0.00000   0.00000   0.00000
                  --------  --------  --------  --------  --------  --------
 0 C  s               0.1       7.9       4.2      13.0       4.6       2.2
 0 C  pz              0.7       0.5      11.9       0.6       0.2       0.6
 0 C  px              0.6      10.4       0.5       3.2       1.0       0.8
 0 C  py              7.6       0.8       4.4       0.8       1.0       1.6
 0 C  dz2             0.0       0.0       0.2       0.0       0.0       0.7
 0 C  dxz             0.1       0.0       0.0       0.1       0.2       0.0
 0 C  dyz             0.2       0.1       0.5       0.4       0.3       4.8
 0 C  dx2y2           0.1       0.0       0.0       0.1       0.0       0.3
 0 C  dxy             0.1       0.3       0.2       0.3       0.0       0.0
 1 O  s               1.4       0.1       0.0       2.1       2.9       0.4
 1 O  pz              0.3       0.7       0.0       2.3      24.7       3.9
 1 O  px              3.1       1.8       0.2       0.7       1.1       4.7
 1 O  py              0.4       0.3       0.0       2.8       1.1       7.5
 1 O  dz2             0.0       0.0       0.0       0.0       0.2       0.1
 1 O  dxz             0.0       0.0       0.0       0.0       0.3       0.0
 1 O  dyz             0.0       0.0       0.0       0.1       0.2       0.0
 1 O  dx2y2           0.0       0.0       0.0       0.1       0.0       0.0
 1 O  dxy             0.0       0.0       0.0       0.1       0.0       0.5
 2 C  s               1.4      15.2       0.7       2.9       4.5      17.4
 2 C  pz              2.3       2.2       1.0       0.8       3.7       6.7
 2 C  px              7.8       1.4       1.8       2.7       0.4       0.5
 2 C  py             11.7       9.9       0.0       0.7       0.1       1.1
 2 C  dz2             0.4       0.8       0.1       1.2       2.3       1.1
 2 C  dxz             0.2       0.3       0.0       0.0       0.0       0.0
 2 C  dyz             0.0       0.1       0.0       0.1       0.7       1.2
 2 C  dx2y2           0.1       0.6       0.1       0.1       0.0       0.0
 2 C  dxy             0.0       0.1       0.0       0.2       1.0       0.1
 3 C  s               0.2       8.9       2.1      22.5       1.8       7.6
 3 C  pz              4.8       1.5      29.5       0.2       1.7       0.2
 3 C  px              5.8       0.2       0.2       5.7       0.1       0.2
 3 C  py              7.7       6.4       3.5       0.4       0.1       1.3
 3 C  dz2             0.1       0.0       0.5       0.1       1.5       0.7
 3 C  dxz             0.6       0.3       0.0       0.5       1.2       0.0
 3 C  dyz             0.1       0.3       0.0       0.2       2.1       0.0
 3 C  dx2y2           0.2       0.1       0.0       0.0       0.3       1.7
 3 C  dxy             0.0       0.0       0.1       0.4       0.0       0.2
 4 O  s               0.3       1.0       0.2       6.3       0.6       0.7
 4 O  pz              0.0       0.1       0.2       0.3      31.9      16.3
 4 O  px              5.2       2.5       0.1       6.8       0.8       1.0
 4 O  py              0.7       0.3       0.1       0.9       0.5       1.8
 4 O  dz2             0.1       0.0       0.0       0.0       0.1       0.0
 4 O  dxz             0.0       0.1       0.0       0.1       0.1       0.0
 4 O  dyz             0.0       0.1       0.0       0.2       0.0       0.3
 4 O  dx2y2           0.2       0.0       0.0       0.0       0.0       0.0
 4 O  dxy             0.0       0.2       0.0       0.0       0.0       0.0
 5 H  s               2.6       4.1       0.1       3.0       1.5       0.9
 6 H  s               1.3       0.1      15.0       1.3       1.8       1.4
 7 H  s               0.3       0.1       0.1       1.7       0.7       0.1
 8 H  s               6.2       6.2       0.5       1.6       0.3       2.0
 9 H  s               8.5       5.3       0.0       0.5       1.5       4.4
10 H  s               9.5       4.1      20.7       1.0       0.9       0.9
11 H  s               5.7       0.9       0.4       8.6       0.3       1.2
12 H  s               0.8       3.8       0.5       2.1       0.0       0.1

                     54        55        56        57        58        59   
                   0.98153   1.01042   1.11437   1.17933   1.28358   1.34101
                   0.00000   0.00000   0.00000   0.00000   0.00000   0.00000
                  --------  --------  --------  --------  --------  --------
 0 C  s               0.3       0.4       1.8       5.3       2.8       1.9
 0 C  pz              0.1       0.0       0.4       0.1       0.3       0.0
 0 C  px              0.2       0.4       0.5       1.1       0.3       0.1
 0 C  py              0.0       0.7       0.6       0.4       0.4       0.2
 0 C  dz2             0.1       0.5       1.0       0.1       1.2       0.9
 0 C  dxz             0.1       0.0       0.3       0.2       0.2       0.0
 0 C  dyz             0.3       2.7       0.0       0.5       1.8       6.2
 0 C  dx2y2           0.0       0.6       2.7       0.1       2.2       0.0
 0 C  dxy             0.0       0.0       0.1       0.2       0.1       0.8
 1 O  s               0.5       2.2       0.7       1.2       0.8      42.9
 1 O  pz              6.0       0.3      20.3       4.1       6.3       0.0
 1 O  px              0.8       3.2      24.8       0.1      23.7       0.6
 1 O  py              0.1      40.8       1.6      22.1       0.7       1.3
 1 O  dz2             0.1       0.1       0.0       0.4       1.5       0.5
 1 O  dxz             0.0       0.0       0.2       0.5       2.4       3.5
 1 O  dyz             0.0       0.1       0.1       0.5       0.1       0.5
 1 O  dx2y2           0.1       0.0       0.0       1.2       0.0       0.1
 1 O  dxy             0.1       0.1       0.5       0.2       1.2       4.1
 2 C  s               0.6       0.7       0.3       2.7       6.8       2.4
 2 C  pz              0.5       0.0       2.3       2.6       0.3       0.1
 2 C  px              1.3       0.4       0.2       4.3       0.0       0.4
 2 C  py              0.1       1.0       1.2       0.0       0.6       0.5
 2 C  dz2             0.0       0.3       0.6       0.0       3.8       3.2
 2 C  dxz             0.1       0.7       0.0       0.9       1.5       2.4
 2 C  dyz             0.1       1.3       0.0       0.8       3.4       7.4
 2 C  dx2y2           1.0       2.1       0.1       2.5       0.0       0.0
 2 C  dxy             0.1       0.3       0.6       0.2       0.1       0.9
 3 C  s               1.0       0.3       1.2       0.5       4.1       0.8
 3 C  pz              0.1       0.2       0.2       0.8       0.1       0.2
 3 C  px              0.9       0.1       0.5       1.8       1.7       0.0
 3 C  py              2.4       0.2       3.6       0.1       0.0       0.4
 3 C  dz2             0.7       1.0       0.7       1.4       0.7       1.2
 3 C  dxz             0.0       0.1       0.1       0.0       0.0       0.1
 3 C  dyz             0.5       0.0       0.1       0.0       2.3       2.9
 3 C  dx2y2           0.3       1.9       0.3       0.9       0.8       0.2
 3 C  dxy             0.0       0.0       0.0       0.3       1.6       0.8
 4 O  s              20.2       0.5       0.0       0.4       4.6       6.4
 4 O  pz              8.2       6.3      14.3       2.3       8.5       0.1
 4 O  px             26.5       7.0       9.5      11.0       2.6       2.5
 4 O  py             20.7      20.9       4.2      22.6       4.9       0.5
 4 O  dz2             0.1       0.1       0.7       0.2       0.1       0.8
 4 O  dxz             0.1       0.0       0.4       0.1       1.9       0.0
 4 O  dyz             0.2       0.3       0.0       0.1       0.6       0.2
 4 O  dx2y2           0.1       0.0       0.2       0.3       0.8       0.1
 4 O  dxy             0.4       0.6       0.0       1.8       0.3       0.0
 5 H  s               0.1       0.0       0.4       0.2       0.1       0.4
 6 H  s               0.1       0.1       0.1       0.8       0.1       0.1
 7 H  s               0.0       0.4       0.3       0.2       0.1       0.1
 8 H  s               0.3       0.4       0.7       0.2       0.8       0.0
 9 H  s               0.0       0.1       0.1       0.4       0.2       0.5
10 H  s               0.0       0.1       0.4       0.1       0.0       0.1
11 H  s               0.8       0.1       0.2       0.2       0.2       0.2
12 H  s               3.9       0.2       0.9       1.3       0.5       0.4

                     60        61        62        63        64        65   
                   1.43860   1.47121   1.56990   1.63090   1.75108   1.77832
                   0.00000   0.00000   0.00000   0.00000   0.00000   0.00000
                  --------  --------  --------  --------  --------  --------
 0 C  s               0.1       1.5       0.0       1.0       0.1       0.1
 0 C  pz              0.1       0.1       0.1       0.2       0.1       0.5
 0 C  px              0.1       0.1       0.2       0.6       0.1       0.1
 0 C  py              0.0       0.0       0.2       0.4       0.0       0.1
 0 C  dz2             7.2       0.3       5.8       0.0       2.7       6.0
 0 C  dxz             0.4       0.5       3.1       0.1       0.7       2.0
 0 C  dyz             1.3       7.3      11.6       0.1       0.2      16.6
 0 C  dx2y2           6.6       2.1      36.8       0.5       2.7       2.1
 0 C  dxy             0.0       2.1       5.3       0.1       0.0       0.9
 1 O  s               3.4       1.4       0.1      13.6       0.3      11.1
 1 O  pz              0.1       4.1       2.3       6.2       0.3       1.0
 1 O  px              0.7       3.8       1.7       0.9       1.0       2.9
 1 O  py              0.2       0.5       1.7       0.3       0.3       2.9
 1 O  dz2             1.0       0.3       5.8       0.4       0.2       0.2
 1 O  dxz             0.0       0.6       0.4       1.5       1.5       0.5
 1 O  dyz             0.1       2.3       1.6       1.5       0.7       5.0
 1 O  dx2y2           3.8       0.4       0.2       0.0       1.0       0.0
 1 O  dxy             0.2       0.7       0.9       0.9       1.8       0.8
 2 C  s               0.6       2.2       0.0       0.4       1.4       0.3
 2 C  pz              0.1       0.7       0.0       0.9       1.5       1.0
 2 C  px              0.2       0.3       0.4       0.3       1.6       1.3
 2 C  py              0.8       2.5       0.1       0.8       0.3       1.5
[...]
 3 C  s               0.1       0.1       0.0       2.4       0.1       0.1
 3 C  pz              0.2       0.0       0.1       2.4       0.0       0.0
 3 C  px              0.1       0.4       0.8       2.3       0.0       0.0
 3 C  py              0.3       0.8       0.4       0.1       0.0       0.1
 3 C  dz2             0.8       2.4      27.9       0.5       0.0       0.6
 3 C  dxz             0.0       2.7       0.4      26.2       1.7       0.2
 3 C  dyz             3.4       1.6       7.9       0.0       0.0       0.8
 3 C  dx2y2           0.5       0.0       1.5       7.4       0.2       4.0
 3 C  dxy            20.7      17.1       2.6       0.9       0.4       1.3
 4 O  s               0.9       0.1       0.6       0.1       0.0       0.0
 4 O  pz              0.4       0.1       0.0       0.0       0.0       0.0
 4 O  px              0.4       0.0       0.7       0.1       0.0       0.3
 4 O  py              1.1       0.4       0.1       0.2       0.0       0.3
 4 O  dz2             0.0       0.8       0.1       4.9      11.9       2.9
 4 O  dxz             0.1       0.6       0.5       0.9      52.6       2.6
 4 O  dyz             1.8       1.4       0.8       0.6      13.8       1.0
 4 O  dx2y2           0.1       3.2       0.3       0.1       5.4      32.5
 4 O  dxy             1.3       0.0       0.1       0.7      10.8       0.2
 5 H  s               1.2       0.2       0.5       0.0       0.0       0.0
 6 H  s               0.2       0.7       0.7       0.0       0.0       0.0
 7 H  s               5.2       0.2       0.1       0.0       0.0       0.0
 8 H  s               0.3       3.4       2.3       0.5       0.1       0.0
 9 H  s               1.0       4.1       0.9       0.2       0.0       0.0
10 H  s               0.6       0.6       2.9       0.5       0.1       0.1
11 H  s               1.1       2.9       2.3       0.1       0.0       0.1
12 H  s               0.0       0.0       0.2       0.1       0.0       0.1

                     78        79        80        81        82        83   
                   2.76896   2.80960   2.84012   2.89363   2.92353   3.13759
                   0.00000   0.00000   0.00000   0.00000   0.00000   0.00000
                  --------  --------  --------  --------  --------  --------
 0 C  s               0.0       0.1       0.2       0.0       0.0       1.0
 0 C  pz              0.0       0.0       0.0       0.0       0.0       1.1
 0 C  px              0.0       0.1       0.2       0.0       0.0       0.6
 0 C  dz2             1.4       0.1       2.9       0.9       0.4       1.9
 0 C  dxz             0.0       0.0       0.5       0.0       0.0       3.7
 0 C  dyz             1.0       1.1       0.1       0.3       0.1       0.5
 0 C  dx2y2           0.9       0.2       0.6       0.0       0.0       0.3
 0 C  dxy             0.6       2.9       1.0       0.7       0.2       0.2
 1 O  s               0.1       0.6       0.6       0.1       0.0       6.5
 1 O  pz              0.2       0.5       0.7       0.1       0.0       0.4
 1 O  px              0.5       0.0       0.1       0.0       0.0       0.0
 1 O  py              0.3       0.2       0.7       0.0       0.0       0.2
 1 O  dz2            21.0       3.8       7.7       0.3       0.3       2.6
 1 O  dxz             5.7       0.1       6.1       2.0       0.7      29.0
 1 O  dyz             4.6      37.4      17.5      12.5       3.0       0.7
 1 O  dx2y2           2.3       2.1      28.2      21.4       7.7       9.6
 1 O  dxy             5.8       0.0       5.1       0.1       0.1      32.0
 2 C  s               0.0       0.1       0.2       0.0       0.0       0.7
 2 C  pz              0.0       0.1       0.0       0.1       0.0       0.1
 2 C  px              0.1       0.0       0.3       0.1       0.0       0.5
 2 C  py              0.1       0.1       0.3       0.0       0.0       0.6
 2 C  dz2             0.9       0.1       0.3       0.2       1.1       0.5
 2 C  dxz             0.0       1.2       1.1       3.7       1.8       0.6
 2 C  dyz             0.5       1.7       0.1       0.6       0.0       1.8
 2 C  dx2y2           0.8       0.1       5.1       5.0       1.5       0.7
 2 C  dxy             0.1       0.8       0.6       0.0       0.2       2.8
 3 C  s               0.0       0.0       0.0       0.0       0.2       0.1
 3 C  pz              0.0       0.3       0.1       0.0       0.1       0.0
 3 C  px              0.4       0.0       0.0       0.2       0.0       0.0
 3 C  py              0.3       0.0       0.0       0.2       0.0       0.0
 3 C  dz2             0.0       2.6       2.3       0.0       1.7       0.0
 3 C  dxz             1.2       0.4       0.8       1.9       0.3       0.0
 3 C  dyz             0.0       1.9       0.1       3.2       1.3       0.2
 3 C  dx2y2           5.1       0.0       0.0       0.3       1.0       0.1
 3 C  dxy             0.1       0.4       0.1       1.3       2.4       0.0
 4 O  s               0.3       0.1       0.2       0.7       1.7       0.0
 4 O  pz              0.0       0.4       0.2       0.3       0.0       0.0
 4 O  px              0.8       0.2       0.1       0.4       0.5       0.0
 4 O  py              0.4       0.0       0.0       0.0       0.2       0.0
 4 O  dz2             2.7      20.6       5.7      29.1       2.8       0.4
 4 O  dxz             2.0      11.4       4.7       6.3       0.2       0.1
 4 O  dyz             2.1       5.9       4.1       1.9      38.8       0.0
 4 O  dx2y2          36.7       0.0       0.2       1.7       3.6       0.0
 4 O  dxy             0.1       1.7       0.7       1.6      23.0       0.6
 5 H  s               0.0       0.1       0.0       0.1       0.0       0.0
 6 H  s               0.0       0.0       0.1       0.0       0.0       0.0
12 H  s               0.3       0.2       0.0       2.3       4.8       0.0

                     84        85   
                   3.26247   3.34046
                   0.00000   0.00000
                  --------  --------
 0 C  s               0.0       1.6
 0 C  pz              0.0       1.0
 0 C  px              0.0       1.2
 0 C  dz2             0.0       0.2
 0 C  dxz             0.0       3.7
 0 C  dyz             0.0       0.3
 0 C  dx2y2           0.0       1.2
 1 O  pz              0.0       0.7
 1 O  px              0.0       4.2
 1 O  py              0.0       1.2
 1 O  dz2             0.0      18.4
 1 O  dxz             0.1      26.1
 1 O  dyz             0.0       0.9
 1 O  dx2y2           0.1       4.6
 1 O  dxy             0.5      22.2
 2 C  s               0.0       1.6
 2 C  px              0.1       1.4
 2 C  py              0.0       1.3
 2 C  dz2             0.0       1.8
 2 C  dyz             0.2       0.0
 2 C  dxy             0.2       5.2
 3 C  s               2.3       0.0
 3 C  pz              0.4       0.1
 3 C  px              1.4       0.1
 3 C  py              2.1       0.0
 3 C  dz2             0.9       0.0
 3 C  dxz             1.7       0.0
 3 C  dyz             2.2       0.1
 3 C  dx2y2           0.7       0.0
 3 C  dxy             5.5       0.0
 4 O  s               3.4       0.1
 4 O  pz              0.7       0.0
 4 O  px              0.5       0.0
 4 O  py              3.2       0.0
 4 O  dz2             3.8       0.1
 4 O  dxz            10.4       0.0
 4 O  dyz            12.4       0.0
 4 O  dx2y2           2.9       0.0
 4 O  dxy            42.9       0.3
12 H  s               0.9       0.0


                      *****************************
                      * MAYER POPULATION ANALYSIS *
                      *****************************

  NA   - Mulliken gross atomic population
  ZA   - Total nuclear charge
  QA   - Mulliken gross atomic charge
  VA   - Mayer's total valence
  BVA  - Mayer's bonded valence
  FA   - Mayer's free valence

  ATOM       NA         ZA         QA         VA         BVA        FA
  0 C      6.1142     6.0000    -0.1142     3.9068     3.9068     0.0000
  1 O      8.3492     8.0000    -0.3492     2.1399     2.1399    -0.0000
  2 C      6.0297     6.0000    -0.0297     4.0407     4.0407     0.0000
  3 C      5.9902     6.0000     0.0098     4.0196     4.0196    -0.0000
  4 O      8.4444     8.0000    -0.4444     1.9940     1.9940    -0.0000
  5 H      0.9085     1.0000     0.0915     0.9567     0.9567     0.0000
  6 H      0.9059     1.0000     0.0941     0.9536     0.9536     0.0000
  7 H      0.8815     1.0000     0.1185     0.9562     0.9562     0.0000
  8 H      0.9018     1.0000     0.0982     0.9633     0.9633    -0.0000
  9 H      0.9327     1.0000     0.0673     0.9619     0.9619    -0.0000
 10 H      0.9249     1.0000     0.0751     0.9551     0.9551    -0.0000
 11 H      0.9117     1.0000     0.0883     0.9529     0.9529    -0.0000
 12 H      0.7054     1.0000     0.2946     0.8997     0.8997    -0.0000

  Mayer bond orders larger than 0.100000
B(  0-C ,  1-O ) :   1.0141 B(  0-C ,  5-H ) :   0.9432 B(  0-C ,  6-H ) :   0.9378 
B(  0-C ,  7-H ) :   0.9629 B(  1-O ,  2-C ) :   1.0171 B(  2-C ,  3-C ) :   1.0989 
B(  2-C ,  8-H ) :   0.9234 B(  2-C ,  9-H ) :   0.9040 B(  3-C ,  4-O ) :   1.0642 
B(  3-C , 10-H ) :   0.9097 B(  3-C , 11-H ) :   0.9218 B(  4-O , 12-H ) :   0.8452 


-------
TIMINGS
-------

Total SCF time: 0 days 0 hours 0 min 4 sec 

Total time                  ....       4.322 sec
Sum of individual times     ....       3.911 sec  ( 90.5%)

SCF preparation             ....       0.185 sec  (  4.3%)
Fock matrix formation       ....       3.030 sec  ( 70.1%)
  Startup                   ....       0.060 sec  (  2.0% of F)
  Split-RI-J                ....       0.640 sec  ( 21.1% of F)
  XC integration            ....       1.752 sec  ( 57.8% of F)
    Basis function eval.    ....       0.541 sec  ( 30.9% of XC)
    Density eval.           ....       0.154 sec  (  8.8% of XC)
    XC-Functional eval.     ....       0.181 sec  ( 10.3% of XC)
    XC-Potential eval.      ....       0.293 sec  ( 16.7% of XC)
Diagonalization             ....       0.000 sec  (  0.0%)
Density matrix formation    ....       0.170 sec  (  3.9%)
Total Energy calculation    ....       0.035 sec  (  0.8%)
Population analysis         ....       0.052 sec  (  1.2%)
Orbital Transformation      ....       0.059 sec  (  1.4%)
Orbital Orthonormalization  ....       0.000 sec  (  0.0%)
DIIS solution               ....       0.288 sec  (  6.7%)
  MO trafo                  ....       0.000 sec  (  0.0 % of DIIS)
  Orb grad                  ....       0.000 sec  (  0.0 % of DIIS)
  Energy W gradient         ....       0.000 sec  (  0.0 % of DIIS)
  DIIS error                ....       0.001 sec  (  0.3 % of DIIS)
  DIIS work                 ....       0.239 sec  ( 82.9 % of DIIS)
  Form Q                    ....       0.000 sec  (  0.0 % of DIIS)
  Form QpQm                 ....       0.000 sec  (  0.0 % of DIIS)
  Exp/Cayley                ....       0.000 sec  (  0.0 % of DIIS)
  Orb update                ....       0.000 sec  (  0.0 % of DIIS)
  Wake-sleep                ....       0.017 sec  (  6.1 % of DIIS)
SOSCF solution              ....       0.093 sec  (  2.1%)
  MO trafo                  ....       0.049 sec  ( 52.9 % of SOSCF)
  Orb grad                  ....       0.002 sec  (  1.8 % of SOSCF)
  Rot update                ....       0.022 sec  ( 23.2 % of SOSCF)
  Step                      ....       0.020 sec  ( 22.0 % of SOSCF)
Finished LeanSCF after   4.4 sec

Maximum memory used throughout the entire LEANSCF-calculation: 8.4 MB


-------------------------------------------------------------------------------
                          DFT DISPERSION CORRECTION                            
                                                                               
                                DFTD4 V3.4.0                                   
-------------------------------------------------------------------------------
The PBE functional is recognized
Active option DFTDOPT                   ...         5   

-------------------------   ----------------
Dispersion correction           -0.007565766
-------------------------   ----------------

------------------   -----------------
gCP correction             0.068283811
------------------   -----------------

-------------------------   --------------------
FINAL SINGLE POINT ENERGY      -268.935478802729
-------------------------   --------------------


------------------------------------------------------------------------------
                              ORCA PROPERTY CALCULATIONS
------------------------------------------------------------------------------

GBWName                                 ... sp.gbw
Number of atoms                         ...     13
Number of basis functions               ...     86
Max core memory                         ...   1024 MB

Electric properties:
Dipole moment                           ... YES
Quadrupole moment                       ...  NO
Static polarizability (Dipole/Dipole)   ...  NO
Static polarizability (Dipole/Quad.)    ...  NO
Static polarizability (Quad./Quad.)     ...  NO
Static polarizability (Velocity)        ...  NO

Atomic electric properties:
Dipole moment                           ...  NO
Quadrupole moment                       ...  NO
Static polarizability                   ...  NO

Choice of electric origin               ... Center of mass
Position of electric origin             ...    -0.000019     0.000018     0.000013

General magnetic properties:
Magnetizability                         ...  NO

EPR properties:
g-Tensor (aka g-matrix)                 ...  NO
Zero-Field splitting spin-orbit         ...  NO
Zero-field splitting spin-spin          ...  NO
Hyperfine couplings                     ...  NO (   0 nuclei)
Quadrupole couplings                    ...  NO (   0 nuclei)
Contact density                         ...  NO (   0 nuclei)

NMR properties:
Chemical shifts                         ...  NO (   0 nuclei)
Spin-rotation constants                 ...  NO (   0 nuclei)
Spin-spin couplings                     ...  NO (   0 nuclei,    0 pairs)

Choice of magnetic origin               ... GIAO
Position of magnetic origin             ...     0.000000     0.000000     0.000000

Properties with geometric perturbations:
SCF Hessian                             ...  NO
IR spectrum                             ...  NO
VCD spectrum                            ...  NO
X-ray spectroscopy properties:
SCF XES/XAS/RIXS spectra                ...  NO


-------------
DIPOLE MOMENT
-------------

Method             : SCF
Type of density    : Electron Density
Multiplicity       :   1
Irrep              :   0
Energy             :  -268.9961968482393218 Eh
Relativity type    : 
Basis              : AO
                                X                 Y                 Z
Electronic contribution:      2.187716863      -1.557418230      -1.974044059
Nuclear contribution   :     -2.874867476       1.791580973       2.335796864
                        -----------------------------------------
Total Dipole Moment    :     -0.687150613       0.234162743       0.361752805
                        -----------------------------------------
Magnitude (a.u.)       :      0.811093859
Magnitude (Debye)      :      2.061636747



--------------------
Rotational spectrum 
--------------------
 
Rotational constants in cm-1:             0.354055             0.096123             0.092030 
Rotational constants in MHz :         10614.287074          2881.690542          2758.989974 

Dipole components along the rotational axes: 
x,y,z [a.u.] :    -0.685906     0.142612    -0.408740 
x,y,z [Debye]:    -1.743433     0.362491    -1.038935 

 

Dipole moment calculation done in   0.0 sec 

Maximum memory used throughout the entire PROP-calculation: 5.4 MB

--------------------------------
SUGGESTED CITATIONS FOR THIS RUN
--------------------------------

Below you find a list of papers that are relevant to this ORCA run
We neither can nor want to force you to cite these papers, but we appreciate if you do
You receive ORCA, which is the product of decades of hard work by many enthusiastic individuals, for free
The only thing we kindly ask in return is that you cite our papers,
We deeply appreciate it, if you show your appreciation for ORCA by not just citing the generic ORCA reference.

Please note that relegating all ORCA citations to the supporting information does *not* help us.
SI sections are not indexed - citations you put there will not count into any citation statistics
But we need these citations in order to attract the funding resources that allow us to do what we are doing

Therefore, if you are a happy ORCA user, please consider citing a few of the papers listed below in the main body of your paper

In addition to the list printed below, the program has created the file sp.bibtex that contains the list in bibtex format
You can import this file easily into all common literature databanks and citation aid programs


List of essential papers. We consider these as the minimum necessary citations

  1. Neese,F.
     Software update: the ORCA program system, version 5.0
     WIRES Comput. Molec. Sci., 2022 12(1)e1606
     doi.org/10.1002/wcms.1606

List of papers to cite with high priority. The work reported in these papers was absolutely
necessary for this run to complete.
Our perspective: the developers of density functionals and basis sets usually get cited in chemistry papers
Good! But without the algorithms to do something with them, the functionals or basis sets would not do anything.
Hence, in our opinion, the algorithm design and method developments papers are equally worthy of getting cited

  1. Neese,F.
     An improvement of the resolution of the identity approximation for the formation of the Coulomb matrix
     J. Comp. Chem., 2003 24(14)1740-1747
     doi.org/10.1002/jcc.10318
  2. Neese,F.
     The SHARK Integral Generation and Digestion System
     J. Comp. Chem., 2022  1-16
     doi.org/10.1002/jcc.26942
  3. Caldeweyher,E.; Bannwarth,C.; Grimme,S.
     Extension of the D3 dispersion coefficient model
     J. Chem. Phys., 2017 147 034112-XXXX
     doi.org/10.1063/1.4993215
  4. Caldeweyher,E.; Ehlert,S.; Hansen,A.; Neugebauer,H.; Spicher,S.; Bannwarth,C.; Grimme,S.
     A generally applicable atomic-charge dependent London dispersion correction
     J. Chem. Phys., 2019 150 154122-XXXX
     doi.org/10.1063/1.5090222
  5. Caldeweyher,E.; Mewes,J.; Ehlert,S.; Grimme,S.
     Extension and evaluation of the D4 London-dispersion model for periodic systems
     Phys. Chem. Chem. Phys., 2020 22(16)8499-8512
     doi.org/10.1039/D0CP00502A

List of suggested additional citations. These are papers that are important in the 'surrounding' of 
of this run, or papers that preceded the highly important papers. If you like your results we are grateful for a citation.

  1. Neese,F.
     The ORCA program system
     WIRES Comput. Molec. Sci., 2012 2(1)73-78
     doi.org/10.1002/wcms.81
  2. Neese,F.
     Software update: the ORCA program system, version 4.0
     WIRES Comput. Molec. Sci., 2018 8(1)1-6
     doi.org/10.1002/wcms.1327
  3. Neese,F.; Wennmohs,F.; Becker,U.; Riplinger,C.
     The ORCA quantum chemistry program package
     J. Chem. Phys., 2020 152 Art. No. L224108
     doi.org/10.1063/5.0004608

List of optional additional citations

  1. Neese,F.
     Approximate second-order SCF convergence for spin unrestricted wavefunctions
     Chem. Phys. Lett., 2000 325(1-3)93-98
     doi.org/10.1016/s0009-2614(00)00662-x

Timings for individual modules:

Sum of individual times          ...        5.626 sec (=   0.094 min)
Startup calculation              ...        0.578 sec (=   0.010 min)  10.3 %
SCF iterations                   ...        4.918 sec (=   0.082 min)  87.4 %
Property calculations            ...        0.130 sec (=   0.002 min)   2.3 %
                             ****ORCA TERMINATED NORMALLY****
TOTAL RUN TIME: 0 days 0 hours 0 minutes 6 seconds 457 msec
