
                                 *****************
                                 * O   R   C   A *
                                 *****************

                                            #,                                       
                                            ###                                      
                                            ####                                     
                                            #####                                    
                                            ######                                   
                                           ########,                                 
                                     ,,################,,,,,                         
                               ,,#################################,,                 
                          ,,##########################################,,             
                       ,#########################################, ''#####,          
                    ,#############################################,,   '####,        
                  ,##################################################,,,,####,       
                ,###########''''           ''''###############################       
              ,#####''   ,,,,##########,,,,          '''####'''          '####       
            ,##' ,,,,###########################,,,                        '##       
           ' ,,###''''                  '''############,,,                           
         ,,##''                                '''############,,,,        ,,,,,,###''
      ,#''                                            '''#######################'''  
     '                                                          ''''####''''         
             ,#######,   #######,   ,#######,      ##                                
            ,#'     '#,  ##    ##  ,#'     '#,    #''#        ,####,   ,####,        
            ##       ##  ##   ,#'  ##            #'  '#       #'       #'  '#        
            ##       ##  #######   ##           ,######,      #####,   #    #        
            '#,     ,#'  ##    ##  '#,     ,#' ,#      #,     #,   #   #,  ,#        
             '#######'   ##     ##  '#######'  #'      '#     '####' # '####'        



                #########################################################
                #                        -***-                          #
                #          Department of theory and spectroscopy        #
                #                                                       #
                #                      Frank Neese                      #
                #                                                       #
                #     Directorship, Architecture, Infrastructure        #
                #                    SHARK, DRIVERS                     #
                #        Core code/Algorithms in most modules           #
                #                                                       #
                #        Max Planck Institute fuer Kohlenforschung      #
                #                Kaiser Wilhelm Platz 1                 #
                #                 D-45470 Muelheim/Ruhr                 #
                #                      Germany                          #
                #                                                       #
                #                  All rights reserved                  #
                #                        -***-                          #
                #########################################################


                         Program Version 6.0.0  -   RELEASE  -


 With contributions from (in alphabetic order):
   Daniel Aravena         : Magnetic Suceptibility
   Michael Atanasov       : Ab Initio Ligand Field Theory (pilot matlab implementation)
   Alexander A. Auer      : GIAO ZORA, VPT2 properties, NMR spectrum
   Ute Becker             : All parallelization in ORCA, NUMFREQ, NUMCALC
   Giovanni Bistoni       : ED, misc. LED, open-shell LED, HFLD
   Martin Brehm           : Molecular dynamics
   Dmytro Bykov           : pre 5.0 version of the SCF Hessian
   Marcos Casanova-Páez   : Triplet and SCS-CIS(D). UHF-(DLPNO)-IP/EA/STEOM-CCSD. UHF-CVS-IP/STEOM-CCSD
   Vijay G. Chilkuri      : MRCI spin determinant printing, contributions to CSF-ICE
   Pauline Colinet        : FMM embedding
   Dipayan Datta          : RHF DLPNO-CCSD density
   Achintya Kumar Dutta   : EOM-CC, STEOM-CC
   Nicolas Foglia         : Exact transition moments, OPA infrastructure, MCD improvements
   Dmitry Ganyushin       : Spin-Orbit,Spin-Spin,Magnetic field MRCI
   Miquel Garcia          : C-PCM and meta-GGA Hessian, CCSD/C-PCM, Gaussian charge scheme
   Tiago L. C. Gouveia    : GS-ROHF, GS-ROCIS
   Yang Guo               : DLPNO-NEVPT2, F12-NEVPT2, CIM, IAO-localization
   Andreas Hansen         : Spin unrestricted coupled pair/coupled cluster methods
   Ingolf Harden          : AUTO-CI MPn and infrastructure 
   Benjamin Helmich-Paris : MC-RPA, TRAH-(SCF,CASSCF), AVAS, COSX integrals, SCF dyn. polar.
   Lee Huntington         : MR-EOM, pCC
   Robert Izsak           : Overlap fitted RIJCOSX, COSX-SCS-MP3, EOM
   Riya Kayal             : Wick's Theorem for AUTO-CI, AUTO-CI UHF-CCSDT
   Emily Kempfer          : AUTO-CI, RHF CISDT and CCSDT
   Christian Kollmar      : KDIIS, OOCD, Brueckner-CCSD(T), CCSD density, CASPT2, CASPT2-K, improved NEVPT2
   Axel Koslowski         : Symmetry handling
   Simone Kossmann        : Meta GGA functionals, TD-DFT gradient, OOMP2, (MP2 Hessian; deprecated post 5.0)
   Lucas Lang             : DCDCAS
   Marvin Lechner         : AUTO-CI (C++ implementation), FIC-MRCC
   Spencer Leger          : CASSCF response
   Dagmar Lenk            : GEPOL surface, SMD, ORCA-2-JSON
   Dimitrios Liakos       : Extrapolation schemes; Compound Job, initial MDCI parallelization
   Dimitrios Manganas     : Further ROCIS development; embedding schemes. LFT, Crystal Embedding
   Dimitrios Pantazis     : SARC Basis sets
   Anastasios Papadopoulos: AUTO-CI, single reference methods and gradients
   Taras Petrenko         : pre 6.0 DFT Hessian and TD-DFT gradient, (ASA, deprecated), ECA, 1-Electron XAS/XES, NRVS
   Peter Pinski           : DLPNO-MP2, DLPNO-MP2 Gradient
   Christoph Reimann      : Effective Core Potentials
   Marius Retegan         : Local ZFS, SOC
   Christoph Riplinger    : Optimizer, TS searches, QM/MM, DLPNO-CCSD(T), (RO)-DLPNO pert. Triples
   Michael Roemelt        : Original ROCIS implementation
   Masaaki Saitow         : Open-shell DLPNO-CCSD energy and density
   Barbara Sandhoefer     : DKH picture change effects
   Kantharuban Sivalingam : CASSCF convergence/infrastructure, NEVPT2 and variants, FIC-MRCI
   Bernardo de Souza      : ESD, SOC TD-DFT
   Georgi Stoychev        : AutoAux, RI-MP2 NMR, DLPNO-MP2 response, X2C
   Van Anh Tran           : RI-MP2 g-tensors
   Willem Van den Heuvel  : Paramagnetic NMR
   Zikuan Wang            : NOTCH, Electric field optimization 
   Frank Wennmohs         : Technical directorship and infrastructure
   Hang Xu                : AUTO-CI-Response properties 


 We gratefully acknowledge several colleagues who have allowed us to
 interface, adapt or use parts of their codes:
   Stefan Grimme, W. Hujo, H. Kruse, P. Pracht,  : VdW corrections, initial TS optimization,
                  C. Bannwarth, S. Ehlert,         DFT functionals, gCP, sTDA/sTD-DF
                  L. Wittmann, M. Mueller
   Ed Valeev, F. Pavosevic, A. Kumar             : LibInt (2-el integral package), F12 methods
   Garnet Chan, S. Sharma, J. Yang, R. Olivares  : DMRG
   Ulf Ekstrom                                   : XCFun DFT Library
   Mihaly Kallay                                 : mrcc  (arbitrary order and MRCC methods)
   Frank Weinhold                                : gennbo (NPA and NBO analysis)
   Simon Mueller                                 : openCOSMO-RS
   Christopher J. Cramer and Donald G. Truhlar   : smd solvation model
   Lars Goerigk                                  : TD-DFT with DH, B97 family of functionals
   V. Asgeirsson, H. Jonsson                     : NEB implementation
   FAccTs GmbH                                   : IRC, NEB, NEB-TS, DLPNO-Multilevel, CI-OPT
                                                   MM, QMMM, 2- and 3-layer-ONIOM, Crystal-QMMM,
                                                   LR-CPCM, SF, NACMEs, symmetry and pop. for TD-DFT,
                                                   nearIR, NL-DFT gradient (VV10), updates on ESD,
                                                   ML-optimized integration grids, MBIS, APM,
                                                   GOAT, DOCKER, SOLVATOR, interface openCOSMO-RS
   S Lehtola, MJT Oliveira, MAL Marques          : LibXC Library
   Liviu Ungur et al                             : ANISO software


 Your calculation uses the libint2 library for the computation of 2-el integrals
 For citations please refer to: http://libint.valeyev.net

 Your ORCA version has been built with support for libXC version: 6.2.2
 For citations please refer to: https://libxc.gitlab.io

 This ORCA versions uses:
   CBLAS   interface :  Fast vector & matrix operations
   LAPACKE interface :  Fast linear algebra routines
   SCALAPACK package :  Parallel linear algebra routines
   Shared memory     :  Shared parallel matrices
   BLAS/LAPACK       :  OpenBLAS 0.3.27  USE64BITINT DYNAMIC_ARCH NO_AFFINITY SkylakeX SINGLE_THREADED
        Core in use  :  SkylakeX
   Copyright (c) 2011-2014, The OpenBLAS Project


Your calculation utilizes the geometrical counterpoise correction gCP
Please cite in your paper:
H.Kruse, S. Grimme J.Chem.Phys., 136, (2012), 154101 
   

Your calculation utilizes the atom-pairwise dispersion correction
based on EEQ partial charges (D4)


================================================================================

----- Orbital basis set information -----
Your calculation utilizes the basis: def2-mTZVPP
   Stefan Grimme, Andreas Hansen, Sebastian Ehlert, and Jan-Michael Mewes 
   J. Chem. Phys. 154, 064103 (2021). DOI: 10.1063/5.0040021

----- AuxJ basis set information -----
Your calculation utilizes the auxiliary basis: def2/J
   F. Weigend, Phys. Chem. Chem. Phys. 8, 1057 (2006).

================================================================================
                                        WARNINGS
                       Please study these warnings very carefully!
================================================================================

Using LibXC functional ID 497 : Re-regularized SCAN exchange by Furness et al
[ 1]  J. W. Furness, A. D. Kaplan, J. Ning, J. P. Perdew, and J. Sun.,  J. Phys. Chem. Lett. 11, 8208-8215 (2020)
[ 2]  J. W. Furness, A. D. Kaplan, J. Ning, J. P. Perdew, and J. Sun.,  J. Phys. Chem. Lett. 11, 9248-9248 (2020)
Using LibXC functional ID 498 : Re-regularized SCAN correlation by Furness et al
[ 1]  J. W. Furness, A. D. Kaplan, J. Ning, J. P. Perdew, and J. Sun.,  J. Phys. Chem. Lett. 11, 8208-8215 (2020)
[ 2]  J. W. Furness, A. D. Kaplan, J. Ning, J. P. Perdew, and J. Sun.,  J. Phys. Chem. Lett. 11, 9248-9248 (2020)
Using LibXC functional ID 497 : Re-regularized SCAN exchange by Furness et al
[ 1]  J. W. Furness, A. D. Kaplan, J. Ning, J. P. Perdew, and J. Sun.,  J. Phys. Chem. Lett. 11, 8208-8215 (2020)
[ 2]  J. W. Furness, A. D. Kaplan, J. Ning, J. P. Perdew, and J. Sun.,  J. Phys. Chem. Lett. 11, 9248-9248 (2020)
Using LibXC functional ID 498 : Re-regularized SCAN correlation by Furness et al
[ 1]  J. W. Furness, A. D. Kaplan, J. Ning, J. P. Perdew, and J. Sun.,  J. Phys. Chem. Lett. 11, 8208-8215 (2020)
[ 2]  J. W. Furness, A. D. Kaplan, J. Ning, J. P. Perdew, and J. Sun.,  J. Phys. Chem. Lett. 11, 9248-9248 (2020)

================================================================================
                                       INPUT FILE
================================================================================
NAME = sp_gas.inp
|  1> ! r2scan-3c def2/J RI DEFGRID2 scfconv6 printgap
|  2> %output
|  3>     printlevel normal
|  4> end
|  5> * xyz 0 1
|  6> C 2.7644493786 0.326261399 -1.4479388386
|  7> C 2.2127281754 0.9914244929 -0.188443362
|  8> C 1.3282113608 0.1052158543 0.7064893434
|  9> H 1.3735132156 0.5341382926 1.7157775119
| 10> C 1.8554100002 -1.3319605223 0.7990944193
| 11> C -0.1362885273 0.0721572124 0.3266129775
| 12> C -1.0557603725 -0.3055357521 1.3024894004
| 13> C -2.407213045 -0.3839188782 1.0252971194
| 14> C -2.8727915892 -0.0806401743 -0.2433861703
| 15> C -1.9730612469 0.3046119772 -1.2200982959
| 16> C -0.6185721478 0.3805946677 -0.9379106163
| 17> H 1.9814660087 -0.1430717395 -2.0366079843
| 18> H 3.2563792288 1.07364172 -2.067091831
| 19> H 3.4978681424 -0.4338028282 -1.1932728442
| 20> H 3.0641719137 1.3280273861 0.4082052127
| 21> H 1.6427589587 1.8819175357 -0.4628045241
| 22> H 1.2914440854 -1.8905475174 1.5422403118
| 23> H 1.7525397822 -1.841504011 -0.1550258692
| 24> H 2.9031056787 -1.3313168271 1.0898322706
| 25> H -0.7045808005 -0.5356999231 2.2988352763
| 26> H -3.0997365045 -0.6777920736 1.8005587152
| 27> H -3.927876355 -0.139596714 -0.4655446839
| 28> H -2.3250365674 0.549606108 -2.2117173627
| 29> H 0.053570407 0.6939799226 -1.7196953279
| 30> *
| 31> 
| 32>                          ****END OF INPUT****
================================================================================

                       ****************************
                       * Single Point Calculation *
                       ****************************

---------------------------------
CARTESIAN COORDINATES (ANGSTROEM)
---------------------------------
  C      2.764449    0.326261   -1.447939
  C      2.212728    0.991424   -0.188443
  C      1.328211    0.105216    0.706489
  H      1.373513    0.534138    1.715778
  C      1.855410   -1.331961    0.799094
  C     -0.136289    0.072157    0.326613
  C     -1.055760   -0.305536    1.302489
  C     -2.407213   -0.383919    1.025297
  C     -2.872792   -0.080640   -0.243386
  C     -1.973061    0.304612   -1.220098
  C     -0.618572    0.380595   -0.937911
  H      1.981466   -0.143072   -2.036608
  H      3.256379    1.073642   -2.067092
  H      3.497868   -0.433803   -1.193273
  H      3.064172    1.328027    0.408205
  H      1.642759    1.881918   -0.462805
  H      1.291444   -1.890548    1.542240
  H      1.752540   -1.841504   -0.155026
  H      2.903106   -1.331317    1.089832
  H     -0.704581   -0.535700    2.298835
  H     -3.099737   -0.677792    1.800559
  H     -3.927876   -0.139597   -0.465545
  H     -2.325037    0.549606   -2.211717
  H      0.053570    0.693980   -1.719695

----------------------------
CARTESIAN COORDINATES (A.U.)
----------------------------
  NO LB      ZA    FRAG     MASS         X           Y           Z
   0 C     6.0000    0    12.011    5.224052    0.616545   -2.736208
   1 C     6.0000    0    12.011    4.181450    1.873521   -0.356106
   2 C     6.0000    0    12.011    2.509956    0.198829    1.335071
   3 H     1.0000    0     1.008    2.595564    1.009375    3.242350
   4 C     6.0000    0    12.011    3.506217   -2.517041    1.510070
   5 C     6.0000    0    12.011   -0.257548    0.136357    0.617209
   6 C     6.0000    0    12.011   -1.995098   -0.577379    2.461348
   7 C     6.0000    0    12.011   -4.548973   -0.725502    1.937531
   8 C     6.0000    0    12.011   -5.428789   -0.152388   -0.459933
   9 C     6.0000    0    12.011   -3.728545    0.575633   -2.305652
  10 C     6.0000    0    12.011   -1.168932    0.719220   -1.772394
  11 H     1.0000    0     1.008    3.744428   -0.270366   -3.848631
  12 H     1.0000    0     1.008    6.153665    2.028889   -3.906237
  13 H     1.0000    0     1.008    6.610013   -0.819769   -2.254959
  14 H     1.0000    0     1.008    5.790446    2.509608    0.771396
  15 H     1.0000    0     1.008    3.104365    3.556309   -0.874574
  16 H     1.0000    0     1.008    2.440476   -3.572617    2.914412
  17 H     1.0000    0     1.008    3.311820   -3.479938   -0.292956
  18 H     1.0000    0     1.008    5.486075   -2.515824    2.059485
  19 H     1.0000    0     1.008   -1.331465   -1.012326    4.344169
  20 H     1.0000    0     1.008   -5.857653   -1.280841    3.402563
  21 H     1.0000    0     1.008   -7.422611   -0.263800   -0.879752
  22 H     1.0000    0     1.008   -4.393682    1.038605   -4.179540
  23 H     1.0000    0     1.008    0.101233    1.311432   -3.249753

--------------------------------
INTERNAL COORDINATES (ANGSTROEM)
--------------------------------
 C      0   0   0     0.000000000000     0.00000000     0.00000000
 C      1   0   0     1.527470812527     0.00000000     0.00000000
 C      2   1   0     1.539038756378   115.86877535     0.00000000
 H      3   2   1     1.097583401478   106.61658242   156.17218730
 C      3   2   1     1.533619914752   112.15752164    39.06729911
 C      3   2   1     1.513327079457   115.01087801   273.61531662
 C      6   3   2     1.392987883049   117.95913618   201.52457904
 C      7   6   3     1.381811782086   121.36018846   181.22050194
 C      8   7   6     1.385026585529   120.00627869   359.84048454
 C      9   8   7     1.382714896638   119.29544314   359.72057996
 C     10   9   8     1.385656514203   120.49667147     0.34202034
 H      1   2   3     1.086217250615   112.00322092    52.19212831
 H      1   2   3     1.088082142916   109.47466303   172.35469906
 H      1   2   3     1.086487681139   110.80483463   291.34334819
 H      2   1   3     1.092816301531   107.63179995   120.85700092
 H      2   1   3     1.092298866854   109.65632359   236.93082528
 H      5   3   2     1.087355876285   110.14396031   172.18281971
 H      5   3   2     1.086536871696   110.72599278   291.65495312
 H      5   3   2     1.087287978076   110.29384231    52.44609316
 H      7   6   3     1.081206613846   119.26857112     1.62403200
 H      8   7   6     1.080268827124   119.89752703   180.10597157
 H      9   8   7     1.079830607902   120.32772793   180.03633116
 H     10   9   8     1.080378231921   119.96902420   180.38082136
 H     11  10   9     1.077577499419   118.54982820   180.61233793

---------------------------
INTERNAL COORDINATES (A.U.)
---------------------------
 C      0   0   0     0.000000000000     0.00000000     0.00000000
 C      1   0   0     2.886501513235     0.00000000     0.00000000
 C      2   1   0     2.908361759045   115.86877535     0.00000000
 H      3   2   1     2.074132037931   106.61658242   156.17218730
 C      3   2   1     2.898121632409   112.15752164    39.06729911
 C      3   2   1     2.859773731221   115.01087801   273.61531662
 C      6   3   2     2.632365606833   117.95913618   201.52457904
 C      7   6   3     2.611245836767   121.36018846   181.22050194
 C      8   7   6     2.617320934850   120.00627869   359.84048454
 C      9   8   7     2.612952475939   119.29544314   359.72057996
 C     10   9   8     2.618511327528   120.49667147     0.34202034
 H      1   2   3     2.052653125603   112.00322092    52.19212831
 H      1   2   3     2.056177261322   109.47466303   172.35469906
 H      1   2   3     2.053164165232   110.80483463   291.34334819
 H      2   1   3     2.065123524579   107.63179995   120.85700092
 H      2   1   3     2.064145714746   109.65632359   236.93082528
 H      5   3   2     2.054804816288   110.14396031   172.18281971
 H      5   3   2     2.053257121913   110.72599278   291.65495312
 H      5   3   2     2.054676507270   110.29384231    52.44609316
 H      7   6   3     2.043184394354   119.26857112     1.62403200
 H      8   7   6     2.041412234276   119.89752703   180.10597157
 H      9   8   7     2.040584119960   120.32772793   180.03633116
 H     10   9   8     2.041618979381   119.96902420   180.38082136
 H     11  10   9     2.036326361977   118.54982820   180.61233793

---------------------
BASIS SET INFORMATION
---------------------
There are 2 groups of distinct atoms

 Group   1 Type C   : 11s6p1d contracted to 5s3p1d pattern {62111/411/1}
 Group   2 Type H   : 4s1p contracted to 2s1p pattern {31/1}

Atom   0C    basis set group =>   1
Atom   1C    basis set group =>   1
Atom   2C    basis set group =>   1
Atom   3H    basis set group =>   2
Atom   4C    basis set group =>   1
Atom   5C    basis set group =>   1
Atom   6C    basis set group =>   1
Atom   7C    basis set group =>   1
Atom   8C    basis set group =>   1
Atom   9C    basis set group =>   1
Atom  10C    basis set group =>   1
Atom  11H    basis set group =>   2
Atom  12H    basis set group =>   2
Atom  13H    basis set group =>   2
Atom  14H    basis set group =>   2
Atom  15H    basis set group =>   2
Atom  16H    basis set group =>   2
Atom  17H    basis set group =>   2
Atom  18H    basis set group =>   2
Atom  19H    basis set group =>   2
Atom  20H    basis set group =>   2
Atom  21H    basis set group =>   2
Atom  22H    basis set group =>   2
Atom  23H    basis set group =>   2
---------------------------------
AUXILIARY/J BASIS SET INFORMATION
---------------------------------
There are 2 groups of distinct atoms

 Group   1 Type C   : 12s5p4d2f1g contracted to 6s4p3d1f1g pattern {711111/2111/211/2/1}
 Group   2 Type H   : 5s2p1d contracted to 3s1p1d pattern {311/2/1}

Atom   0C    basis set group =>   1
Atom   1C    basis set group =>   1
Atom   2C    basis set group =>   1
Atom   3H    basis set group =>   2
Atom   4C    basis set group =>   1
Atom   5C    basis set group =>   1
Atom   6C    basis set group =>   1
Atom   7C    basis set group =>   1
Atom   8C    basis set group =>   1
Atom   9C    basis set group =>   1
Atom  10C    basis set group =>   1
Atom  11H    basis set group =>   2
Atom  12H    basis set group =>   2
Atom  13H    basis set group =>   2
Atom  14H    basis set group =>   2
Atom  15H    basis set group =>   2
Atom  16H    basis set group =>   2
Atom  17H    basis set group =>   2
Atom  18H    basis set group =>   2
Atom  19H    basis set group =>   2
Atom  20H    basis set group =>   2
Atom  21H    basis set group =>   2
Atom  22H    basis set group =>   2
Atom  23H    basis set group =>   2

Checking for AutoStart:
The File: sp_gas.gbw exists
Trying to determine its content:
     ... Fine, the file contains calculation information
     ... Fine, the calculation information was read
     ... Fine, the file contains a basis set
     ... Fine, the basis set was read
     ... Fine, the file contains a geometry
     ... Fine, the geometry was read
     ... Fine, the file contains a set of orbitals
     ... Fine, the orbitals can be read
     => possible old guess file was deleted
     => GBW file was renamed to GES file
     => GES file is set as startup file
     => Guess is set to MORead
     ... now leaving AutoStart

------------------------------------------------------------------------------
                             ORCA STARTUP CALCULATIONS
                           -- RI-GTO INTEGRALS CHOSEN --
------------------------------------------------------------------------------
------------------------------------------------------------------------------
                   ___                                                        
                  /   \      - P O W E R E D   B Y -                         
                 /     \                                                     
                 |  |  |   _    _      __       _____    __    __             
                 |  |  |  | |  | |    /  \     |  _  \  |  |  /  |          
                  \  \/   | |  | |   /    \    | | | |  |  | /  /          
                 / \  \   | |__| |  /  /\  \   | |_| |  |  |/  /          
                |  |  |   |  __  | /  /__\  \  |    /   |      \           
                |  |  |   | |  | | |   __   |  |    \   |  |\   \          
                \     /   | |  | | |  |  |  |  | |\  \  |  | \   \       
                 \___/    |_|  |_| |__|  |__|  |_| \__\ |__|  \__/        
                                                                              
                      - O R C A' S   B I G   F R I E N D -                    
                                      &                                       
                       - I N T E G R A L  F E E D E R -                       
                                                                              
 v1 FN, 2020, v2 2021, v3 2022-2024                                           
------------------------------------------------------------------------------


----------------------
SHARK INTEGRAL PACKAGE
----------------------

Number of atoms                             ...     24
Number of basis functions                   ...    260
Number of shells                            ...    132
Maximum angular momentum                    ...      2
Integral batch strategy                     ... SHARK/LIBINT Hybrid
RI-J (if used) integral strategy            ... SPLIT-RIJ (Revised 2003 algorithm where possible)
Printlevel                                  ...      1
Contraction scheme used                     ... SEGMENTED contraction
Prescreening option                         ... SCHWARTZ
   Thresh                                   ... 1.000e-10
   Tcut                                     ... 1.000e-11
   Tpresel                                  ... 1.000e-11 
Coulomb Range Separation                    ... NOT USED
Exchange Range Separation                   ... NOT USED
Multipole approximations                    ... NOT USED
Finite Nucleus Model                        ... NOT USED
CABS basis                                  ... NOT available
Auxiliary Coulomb fitting basis             ... AVAILABLE
   # of basis functions in Aux-J            ...    644
   # of shells in Aux-J                     ...    220
   Maximum angular momentum in Aux-J        ...      4
Auxiliary J/K fitting basis                 ... NOT available
Auxiliary Correlation fitting basis         ... NOT available
Auxiliary 'external' fitting basis          ... NOT available

Checking pre-screening integrals            ... done (  0.0 sec) Dimension = 132
Check shell pair data                       ... done (  0.0 sec)
Shell pair information
Shell pair cut-off parameter TPreSel        ...   1.0e-11
Total number of shell pairs                 ...      8778
Shell pairs after pre-screening             ...      7631
Total number of primitive shell pairs       ...     31637
Primitive shell pairs kept                  ...     19040
          la=0 lb=0:   2632 shell pairs
          la=1 lb=0:   3005 shell pairs
          la=1 lb=1:    887 shell pairs
          la=2 lb=0:    675 shell pairs
          la=2 lb=1:    383 shell pairs
          la=2 lb=2:     49 shell pairs

Calculating one electron integrals          ... done (  0.0 sec)
Calculating RI/J V-Matrix + Cholesky decomp.... done (  0.1 sec)
Calculating Nuclear repulsion               ... done (  0.0 sec) ENN=    511.848614083333 Eh

Diagonalization of the overlap matrix:
Smallest eigenvalue                        ... 2.913e-05
Time for diagonalization                   ...    0.007 sec
Threshold for overlap eigenvalues          ... 1.000e-07
Number of eigenvalues below threshold      ... 0
Time for construction of square roots      ...    0.018 sec
Total time needed                          ...    0.079 sec

-------------------
DFT GRID GENERATION
-------------------

General Integration Accuracy     IntAcc      ... 4.388
Radial Grid Type                 RadialGrid  ... OptM3 with GC (2021)
Angular Grid (max. ang.)         AngularGrid ... 4 (Lebedev-302)
Angular grid pruning method      GridPruning ... 4 (adaptive)
Weight generation scheme         WeightScheme... mBecke (2022)
Basis function cutoff            BFCut       ... 1.0000e-10
Integration weight cutoff        WCut        ... 1.0000e-14
Partially contracted basis set               ... off
Rotationally invariant grid construction     ... off
Angular grids for H and He will be reduced by one unit

Total number of grid points                  ...   104435
Total number of batches                      ...     1645
Average number of points per batch           ...       63
Average number of grid points per atom       ...     4351
Initializing property integral containers    ... done (  0.0 sec)

SHARK setup successfully completed in   1.5 seconds

Maximum memory used throughout the entire STARTUP-calculation: 46.4 MB
-------------------------------------------------------------------------------
                                 ORCA GUESS
                   Start orbitals & Density for SCF / CASSCF
-------------------------------------------------------------------------------

------------
SCF SETTINGS
------------
Hamiltonian:
 Density Functional     Method          .... DFT(GTOs)
  Functional kind                       .... Exchange
  Functional name                       .... Re-regularized SCAN exchange by Furness et al
  Functional family                     .... MGGA
  Functional refs                              
    [ 0] J. W. Furness, A. D. Kaplan, J. Ning, J. P. Perdew, and J. Sun.,  J. Phys. Chem. Lett. 11, 8208-8215 (2020), doi: 10.1021/acs.jpclett.0c02405
    [ 1] J. W. Furness, A. D. Kaplan, J. Ning, J. P. Perdew, and J. Sun.,  J. Phys. Chem. Lett. 11, 9248-9248 (2020), doi: 10.1021/acs.jpclett.0c03077
  Functional external parameters        .... 6
    Parameter  0 _c1        =  6.670000e-01 : c1 parameter        
    Parameter  1 _c2        =  8.000000e-01 : c2 parameter        
    Parameter  2 _d         =  1.240000e+00 : d parameter         
    Parameter  3 _k1        =  6.500000e-02 : k1 parameter        
    Parameter  4 _eta       =  1.000000e-03 : eta parameter       
    Parameter  5 _dp2       =  3.610000e-01 : dp2 parameter       
  Functional kind                       .... Correlation
  Functional name                       .... Re-regularized SCAN correlation by Furness et al
  Functional family                     .... MGGA
  Functional refs                              
    [ 0] J. W. Furness, A. D. Kaplan, J. Ning, J. P. Perdew, and J. Sun.,  J. Phys. Chem. Lett. 11, 8208-8215 (2020), doi: 10.1021/acs.jpclett.0c02405
    [ 1] J. W. Furness, A. D. Kaplan, J. Ning, J. P. Perdew, and J. Sun.,  J. Phys. Chem. Lett. 11, 9248-9248 (2020), doi: 10.1021/acs.jpclett.0c03077
  Functional external parameters        .... 1
    Parameter  0 _eta       =  1.000000e-03 : Regularization parameter
 Gradients option       PostSCFGGA      .... off
 RI-approximation to the Coulomb term is turned on
   Number of AuxJ basis functions       .... 644


General Settings:
 Integral files         IntName         .... sp_gas
 Hartree-Fock type      HFTyp           .... RHF
 Total Charge           Charge          ....    0
 Multiplicity           Mult            ....    1
 Number of Electrons    NEL             ....   74
 Basis Dimension        Dim             ....  260
 Nuclear Repulsion      ENuc            ....    511.8486140833 Eh

Convergence Acceleration:
 AO-DIIS                CNVDIIS         .... on
   Start iteration      DIISMaxIt       ....    12
   Startup error        DIISStart       ....  0.200000
   # of expansion vecs  DIISMaxEq       ....     5
   Bias factor          DIISBfac        ....   1.050
   Max. coefficient     DIISMaxC        ....  10.000
 MO-DIIS                CNVKDIIS        .... off
 Trust-Rad. Augm. Hess. CNVTRAH         .... auto
   Auto Start mean grad. ratio tolernc. ....  1.125000
   Auto Start start iteration           ....     1
   Auto Start num. interpolation iter.  ....    10
   Max. Number of Micro iterations      ....    24
   Max. Number of Macro iterations      .... Maxiter - #DIIS iter
   Number of Davidson start vectors     ....     2
   Converg. threshold    (grad. norm)   ....   3.330e-04
   Grad. Scal. Fac. for Micro threshold ....   0.100
   Minimum threshold for Micro iter.    ....   1.000e-02
   NR start threshold (gradient norm)   ....   1.000e-04
   Initial trust radius                 ....   0.400
   Minimum AH scaling param. (alpha)    ....   1.000
   Maximum AH scaling param. (alpha)    .... 1000.000
   Quad. conv. algorithm                .... NR
   White noise on init. David. guess    .... on
   Maximum white noise                  ....   0.010
   Pseudo random numbers                .... off
   Inactive MOs                         .... canonical
   Orbital update algorithm             .... Taylor
   Preconditioner                       .... Diag
   Full preconditioner red. dimension   ....   250
   COSX micro iterations for RIJONX calc.... off
 SOSCF                  CNVSOSCF        .... on
   Start iteration      SOSCFMaxIt      ....   150
   Startup grad/error   SOSCFStart      ....  0.003300
   Hessian update       SOSCFHessUp     .... L-BFGS
 Level Shifting         CNVShift        .... on
   Level shift para.    LevelShift      ....    0.2500
   Turn off err/grad.   ShiftErr        ....    0.0010
 Zerner damping         CNVZerner       .... off
 Static damping         CNVDamp         .... on
   Fraction old density DampFac         ....    0.7000
   Max. Damping (<1)    DampMax         ....    0.9800
   Min. Damping (>=0)   DampMin         ....    0.0000
   Turn off err/grad.   DampErr         ....    0.1000

SCF Procedure:
 Maximum # iterations   MaxIter         ....   125
 SCF integral mode      SCFMode         .... Direct
   Integral package                     .... SHARK and LIBINT hybrid scheme
 Reset frequency        DirectResetFreq ....    20
 Integral Threshold     Thresh          ....  1.000e-10 Eh
 Primitive CutOff       TCut            ....  1.000e-11 Eh

Convergence Tolerance:
 Convergence Check Mode ConvCheckMode   .... Total+1el-Energy
 Convergence forced     ConvForced      .... 0
 Energy Change          TolE            ....  1.000e-06 Eh
 1-El. energy change                    ....  1.000e-03 Eh
 Orbital Gradient       TolG            ....  3.330e-04
 Orbital Rotation angle TolX            ....  3.330e-04
 DIIS Error             TolErr          ....  1.000e-06

---------------------
INITIAL GUESS: MOREAD
---------------------
Guess MOs are being read from file: sp_gas.ges
Input Geometry matches current geometry (good)
Atom 0: N(Shells)= 9 and 6 - projection required
Input basis set needs projection
NBasis(read)= 168
NBasis(calc)= 260
Basis set overlap was calculated
Using GuessMode=FMatrix for the initial guess
C*T matrix was formed
Effective Fockian was calculated
Effective Fockian was diagonalized
Initial density was built
                      ------------------
                      INITIAL GUESS DONE (   0.0 sec)
                      ------------------
             **** ENERGY FILE WAS UPDATED (sp_gas.en.tmp) ****
Finished Guess after   0.3 sec
Maximum memory used throughout the entire GUESS-calculation: 19.7 MB

-------------------------------------------------------------------------------------------
                                      ORCA LEAN-SCF
                              memory conserving SCF solver
-------------------------------------------------------------------------------------------

----------------------------------------D-I-I-S--------------------------------------------
Iteration    Energy (Eh)           Delta-E    RMSDP     MaxDP     DIISErr   Damp  Time(sec)
-------------------------------------------------------------------------------------------
               ***  Starting incremental Fock matrix formation  ***
    1    -389.1874361367791266     0.00e+00  9.47e-03  3.57e-01  2.87e-01  0.700   4.0
    2    -389.2430243728749133    -5.56e-02  7.00e-03  2.59e-01  2.01e-01  0.700   3.5
                               ***Turning on AO-DIIS***
    3    -389.2822818931595634    -3.93e-02  4.97e-03  1.82e-01  1.41e-01  0.700   3.5
    4    -389.3098298530807710    -2.75e-02  3.50e-03  1.27e-01  9.87e-02  0.700   3.4
    5    -389.3291497172543245    -1.93e-02  8.17e-03  2.96e-01  6.91e-02  0.000   3.4
                              *** Initializing SOSCF ***
---------------------------------------S-O-S-C-F--------------------------------------
Iteration    Energy (Eh)           Delta-E    RMSDP     MaxDP     MaxGrad    Time(sec)
--------------------------------------------------------------------------------------
    6    -389.3743545841642231    -4.52e-02  4.54e-05  3.43e-03  1.96e-04     3.6
               *** Restarting incremental Fock matrix formation ***
    7    -389.3743552138851669    -6.30e-07  1.99e-05  5.20e-04  8.49e-05     3.9
    8    -389.3743547662192555     4.48e-07  9.03e-06  3.96e-04  2.12e-04     2.9
                 **** Energy Check signals convergence ****

               *****************************************************
               *                     SUCCESS                       *
               *           SCF CONVERGED AFTER   8 CYCLES          *
               *****************************************************

             **** ENERGY FILE WAS UPDATED (sp_gas.en.tmp) ****

----------------
TOTAL SCF ENERGY
----------------

Total Energy       :       -389.37435476621926 Eh          -10595.41485 eV

Components:
Nuclear Repulsion  :        511.84861408333342 Eh           13928.10888 eV
Electronic Energy  :       -901.22296884955267 Eh          -24523.52373 eV
One Electron Energy:      -1538.39060938991474 Eh          -41861.73669 eV
Two Electron Energy:        637.16764054036207 Eh           17338.21296 eV

Virial components:
Potential Energy   :       -777.08914447278789 Eh          -21145.67065 eV
Kinetic Energy     :        387.71478970656864 Eh           10550.25579 eV
Virial Ratio       :          2.00428037594570

DFT components:
N(Alpha)           :       36.999947082266 electrons
N(Beta)            :       36.999947082266 electrons
N(Total)           :       73.999894164533 electrons
E(X)               :      -57.078305646098 Eh       
E(C)               :       -2.336435951711 Eh       
E(XC)              :      -59.414741597809 Eh       

---------------
SCF CONVERGENCE
---------------

  Last Energy change         ...   -4.4767e-07  Tolerance :   1.0000e-06
  Last MAX-Density change    ...    3.9594e-04  Tolerance :   1.0000e-05
  Last RMS-Density change    ...    9.0250e-06  Tolerance :   1.0000e-06
  Last DIIS Error            ...    1.9620e-04  Tolerance :   1.0000e-06
  Last Orbital Gradient      ...    2.1238e-04  Tolerance :   3.3300e-04
  Last Orbital Rotation      ...    3.2614e-04  Tolerance :   3.3300e-04


----------------
ORBITAL ENERGIES
----------------

  NO   OCC          E(Eh)            E(eV) 
   0   2.0000     -10.040331      -273.2113 
   1   2.0000     -10.038890      -273.1721 
   2   2.0000     -10.030629      -272.9473 
   3   2.0000     -10.030564      -272.9455 
   4   2.0000     -10.028683      -272.8943 
   5   2.0000     -10.028342      -272.8851 
   6   2.0000     -10.028155      -272.8800 
   7   2.0000     -10.027727      -272.8683 
   8   2.0000     -10.019172      -272.6355 
   9   2.0000     -10.017996      -272.6035 
  10   2.0000      -0.828287       -22.5388 
  11   2.0000      -0.776398       -21.1269 
  12   2.0000      -0.716529       -19.4978 
  13   2.0000      -0.710305       -19.3284 
  14   2.0000      -0.682099       -18.5609 
  15   2.0000      -0.617847       -16.8125 
  16   2.0000      -0.575278       -15.6541 
  17   2.0000      -0.568127       -15.4595 
  18   2.0000      -0.522125       -14.2077 
  19   2.0000      -0.478467       -13.0197 
  20   2.0000      -0.441921       -12.0253 
  21   2.0000      -0.426370       -11.6021 
  22   2.0000      -0.418227       -11.3805 
  23   2.0000      -0.405262       -11.0277 
  24   2.0000      -0.390305       -10.6207 
  25   2.0000      -0.380244       -10.3470 
  26   2.0000      -0.367868       -10.0102 
  27   2.0000      -0.350901        -9.5485 
  28   2.0000      -0.348867        -9.4932 
  29   2.0000      -0.336133        -9.1466 
  30   2.0000      -0.324251        -8.8233 
  31   2.0000      -0.312025        -8.4906 
  32   2.0000      -0.301342        -8.1999 
  33   2.0000      -0.287112        -7.8127 
  34   2.0000      -0.283450        -7.7131 
  35   2.0000      -0.233301        -6.3484 
  36   2.0000      -0.222837        -6.0637 
  37   0.0000      -0.028925        -0.7871 
  38   0.0000      -0.025522        -0.6945 
  39   0.0000       0.072955         1.9852 
  40   0.0000       0.096570         2.6278 
  41   0.0000       0.102645         2.7931 
  42   0.0000       0.109004         2.9662 
  43   0.0000       0.115505         3.1430 
  44   0.0000       0.125357         3.4111 
  45   0.0000       0.131294         3.5727 
  46   0.0000       0.140929         3.8349 
  47   0.0000       0.144495         3.9319 
*Only the first 10 virtual orbitals were printed.

                    ********************************
                    * MULLIKEN POPULATION ANALYSIS *
                    ********************************

-----------------------
MULLIKEN ATOMIC CHARGES
-----------------------
   0 C :   -0.491095
   1 C :   -0.316246
   2 C :   -0.053405
   3 H :    0.163231
   4 C :   -0.490230
   5 C :    0.140917
   6 C :   -0.251331
   7 C :   -0.154461
   8 C :   -0.151405
   9 C :   -0.179010
  10 C :   -0.186980
  11 H :    0.155824
  12 H :    0.150227
  13 H :    0.152148
  14 H :    0.154681
  15 H :    0.162174
  16 H :    0.150247
  17 H :    0.167454
  18 H :    0.153913
  19 H :    0.146230
  20 H :    0.143915
  21 H :    0.145165
  22 H :    0.143738
  23 H :    0.144298
Sum of atomic charges:    0.0000000

--------------------------------
MULLIKEN REDUCED ORBITAL CHARGES
--------------------------------
  0 C s       :     3.332907  s :     3.332907
      pz      :     0.984418  p :     3.130949
      px      :     1.081984
      py      :     1.064547
      dz2     :     0.004440  d :     0.027239
      dxz     :     0.006846
      dyz     :     0.006883
      dx2y2   :     0.001312
      dxy     :     0.007757

  1 C s       :     3.258561  s :     3.258561
      pz      :     0.961978  p :     3.021091
      px      :     1.062890
      py      :     0.996223
      dz2     :     0.006868  d :     0.036594
      dxz     :     0.009627
      dyz     :     0.007575
      dx2y2   :     0.004316
      dxy     :     0.008208

  2 C s       :     3.107294  s :     3.107294
      pz      :     1.072882  p :     2.899869
      px      :     0.904491
      py      :     0.922496
      dz2     :     0.009297  d :     0.046241
      dxz     :     0.006568
      dyz     :     0.008473
      dx2y2   :     0.012353
      dxy     :     0.009551

  3 H s       :     0.819302  s :     0.819302
      pz      :     0.009745  p :     0.017467
      px      :     0.003236
      py      :     0.004486

  4 C s       :     3.334181  s :     3.334181
      pz      :     1.095768  p :     3.128803
      px      :     1.081512
      py      :     0.951522
      dz2     :     0.004469  d :     0.027246
      dxz     :     0.003271
      dyz     :     0.007552
      dx2y2   :     0.007475
      dxy     :     0.004479

  5 C s       :     3.160281  s :     3.160281
      pz      :     0.861727  p :     2.651513
      px      :     0.842253
      py      :     0.947533
      dz2     :     0.011657  d :     0.047290
      dxz     :     0.015133
      dyz     :     0.006877
      dx2y2   :     0.006659
      dxy     :     0.006964

  6 C s       :     3.217157  s :     3.217157
      pz      :     1.037911  p :     2.996860
      px      :     0.956448
      py      :     1.002500
      dz2     :     0.008728  d :     0.037314
      dxz     :     0.011854
      dyz     :     0.003137
      dx2y2   :     0.006859
      dxy     :     0.006736

  7 C s       :     3.187103  s :     3.187103
      pz      :     0.971160  p :     2.929369
      px      :     0.969155
      py      :     0.989054
      dz2     :     0.008875  d :     0.037989
      dxz     :     0.012846
      dyz     :     0.004805
      dx2y2   :     0.005674
      dxy     :     0.005788

  8 C s       :     3.184583  s :     3.184583
      pz      :     0.914699  p :     2.929189
      px      :     1.021322
      py      :     0.993167
      dz2     :     0.010932  d :     0.037633
      dxz     :     0.011254
      dyz     :     0.006618
      dx2y2   :     0.005565
      dxy     :     0.003264

  9 C s       :     3.197832  s :     3.197832
      pz      :     1.013068  p :     2.943204
      px      :     0.941516
      py      :     0.988620
      dz2     :     0.008869  d :     0.037973
      dxz     :     0.011777
      dyz     :     0.003361
      dx2y2   :     0.006853
      dxy     :     0.007113

 10 C s       :     3.178156  s :     3.178156
      pz      :     0.978145  p :     2.971437
      px      :     0.991701
      py      :     1.001590
      dz2     :     0.008636  d :     0.037387
      dxz     :     0.012859
      dyz     :     0.004603
      dx2y2   :     0.005683
      dxy     :     0.005607

 11 H s       :     0.825679  s :     0.825679
      pz      :     0.005827  p :     0.018497
      px      :     0.007488
      py      :     0.005182

 12 H s       :     0.831538  s :     0.831538
      pz      :     0.006094  p :     0.018235
      px      :     0.005201
      py      :     0.006940

 13 H s       :     0.829499  s :     0.829499
      pz      :     0.004021  p :     0.018353
      px      :     0.006958
      py      :     0.007373

 14 H s       :     0.827579  s :     0.827579
      pz      :     0.005546  p :     0.017739
      px      :     0.007893
      py      :     0.004301

 15 H s       :     0.819872  s :     0.819872
      pz      :     0.003911  p :     0.017954
      px      :     0.005547
      py      :     0.008496

 16 H s       :     0.831424  s :     0.831424
      pz      :     0.006981  p :     0.018329
      px      :     0.005638
      py      :     0.005710

 17 H s       :     0.814285  s :     0.814285
      pz      :     0.009401  p :     0.018261
      px      :     0.003632
      py      :     0.005229

 18 H s       :     0.827905  s :     0.827905
      pz      :     0.004177  p :     0.018182
      px      :     0.010411
      py      :     0.003594

 19 H s       :     0.834239  s :     0.834239
      pz      :     0.010840  p :     0.019532
      px      :     0.004130
      py      :     0.004562

 20 H s       :     0.836608  s :     0.836608
      pz      :     0.007847  p :     0.019477
      px      :     0.006878
      py      :     0.004752

 21 H s       :     0.835282  s :     0.835282
      pz      :     0.003610  p :     0.019554
      px      :     0.011747
      py      :     0.004196

 22 H s       :     0.836798  s :     0.836798
      pz      :     0.010789  p :     0.019464
      px      :     0.004122
      py      :     0.004553

 23 H s       :     0.835520  s :     0.835520
      pz      :     0.008028  p :     0.020182
      px      :     0.007105
      py      :     0.005049


------------------------
MULLIKEN OVERLAP CHARGES
------------------------
B(  0-C ,  1-C ) :   0.2686 B(  0-C , 11-H ) :   0.8943 B(  0-C , 12-H ) :   0.7966 
B(  0-C , 13-H ) :   0.8114 B(  0-C , 15-H ) :  -0.0850 B(  1-C ,  3-H ) :  -0.1206 
B(  1-C ,  4-C ) :  -0.0783 B(  1-C , 11-H ) :  -0.1563 B(  1-C , 12-H ) :  -0.0796 
B(  1-C , 14-H ) :   0.8025 B(  1-C , 15-H ) :   0.9242 B(  1-C , 17-H ) :  -0.0613 
B(  2-C ,  3-H ) :   1.0105 B(  2-C ,  4-C ) :   0.3602 B(  2-C ,  5-C ) :  -0.0959 
B(  2-C ,  6-C ) :  -0.1186 B(  2-C , 10-C ) :  -0.0908 B(  2-C , 13-H ) :  -0.0548 
B(  2-C , 14-H ) :  -0.0776 B(  2-C , 15-H ) :  -0.1681 B(  2-C , 18-H ) :  -0.1566 
B(  3-H ,  4-C ) :  -0.1064 B(  3-H ,  5-C ) :  -0.1622 B(  4-C ,  5-C ) :  -0.1785 
B(  4-C , 16-H ) :   0.8026 B(  4-C , 17-H ) :   0.8357 B(  4-C , 18-H ) :   0.8218 
B(  5-C ,  6-C ) :   0.9905 B(  5-C ,  7-C ) :  -0.1474 B(  5-C ,  9-C ) :  -0.1595 
B(  5-C , 10-C ) :   0.9705 B(  5-C , 19-H ) :  -0.0943 B(  5-C , 23-H ) :  -0.0904 
B(  6-C ,  7-C ) :   0.9752 B(  6-C ,  8-C ) :  -0.1728 B(  6-C ,  9-C ) :  -0.1380 
B(  6-C , 19-H ) :   0.8038 B(  6-C , 20-H ) :  -0.0516 B(  7-C ,  8-C ) :   1.0142 
B(  7-C ,  9-C ) :  -0.1383 B(  7-C , 10-C ) :  -0.1143 B(  7-C , 20-H ) :   0.7906 
B(  7-C , 21-H ) :  -0.0646 B(  8-C ,  9-C ) :   1.0096 B(  8-C , 10-C ) :  -0.1863 
B(  8-C , 20-H ) :  -0.0580 B(  8-C , 21-H ) :   0.8018 B(  8-C , 22-H ) :  -0.0647 
B(  9-C , 10-C ) :   0.9435 B(  9-C , 21-H ) :  -0.0618 B(  9-C , 22-H ) :   0.7959 
B(  9-C , 23-H ) :  -0.0528 B( 10-C , 22-H ) :  -0.0540 B( 10-C , 23-H ) :   0.8231 



                     *******************************
                     * LOEWDIN POPULATION ANALYSIS *
                     *******************************

----------------------
LOEWDIN ATOMIC CHARGES
----------------------
   0 C :   -0.426295
   1 C :   -0.307735
   2 C :   -0.214308
   3 H :    0.167948
   4 C :   -0.395650
   5 C :   -0.079469
   6 C :   -0.161734
   7 C :   -0.162312
   8 C :   -0.174044
   9 C :   -0.162389
  10 C :   -0.164218
  11 H :    0.149707
  12 H :    0.153006
  13 H :    0.151956
  14 H :    0.157508
  15 H :    0.160538
  16 H :    0.156958
  17 H :    0.159511
  18 H :    0.153180
  19 H :    0.168740
  20 H :    0.166239
  21 H :    0.165928
  22 H :    0.165921
  23 H :    0.171012

-------------------------------
LOEWDIN REDUCED ORBITAL CHARGES
-------------------------------
  0 C s       :     2.969856  s :     2.969856
      pz      :     1.099747  p :     3.393009
      px      :     1.145760
      py      :     1.147502
      dz2     :     0.009452  d :     0.063430
      dxz     :     0.015986
      dyz     :     0.016299
      dx2y2   :     0.002662
      dxy     :     0.019031

  1 C s       :     2.932514  s :     2.932514
      pz      :     1.083573  p :     3.296615
      px      :     1.109780
      py      :     1.103262
      dz2     :     0.013428  d :     0.078606
      dxz     :     0.021577
      dyz     :     0.016511
      dx2y2   :     0.008522
      dxy     :     0.018568

  2 C s       :     2.893467  s :     2.893467
      pz      :     1.106687  p :     3.226476
      px      :     1.045389
      py      :     1.074399
      dz2     :     0.019982  d :     0.094365
      dxz     :     0.013032
      dyz     :     0.017362
      dx2y2   :     0.025239
      dxy     :     0.018748

  3 H s       :     0.788956  s :     0.788956
      pz      :     0.024187  p :     0.043096
      px      :     0.007735
      py      :     0.011174

  4 C s       :     2.966577  s :     2.966577
      pz      :     1.157464  p :     3.365401
      px      :     1.136066
      py      :     1.071871
      dz2     :     0.011131  d :     0.063672
      dxz     :     0.007963
      dyz     :     0.017002
      dx2y2   :     0.017638
      dxy     :     0.009939

  5 C s       :     2.866554  s :     2.866554
      pz      :     1.100861  p :     3.114963
      px      :     1.058635
      py      :     0.955467
      dz2     :     0.025440  d :     0.097952
      dxz     :     0.033432
      dyz     :     0.013141
      dx2y2   :     0.013653
      dxy     :     0.012286

  6 C s       :     2.896236  s :     2.896236
      pz      :     1.089345  p :     3.183592
      px      :     1.092405
      py      :     1.001842
      dz2     :     0.020539  d :     0.081906
      dxz     :     0.028105
      dyz     :     0.005664
      dx2y2   :     0.014696
      dxy     :     0.012902

  7 C s       :     2.903416  s :     2.903416
      pz      :     1.093081  p :     3.176048
      px      :     1.099058
      py      :     0.983910
      dz2     :     0.020105  d :     0.082847
      dxz     :     0.030975
      dyz     :     0.008901
      dx2y2   :     0.011871
      dxy     :     0.010995

  8 C s       :     2.903522  s :     2.903522
      pz      :     1.091633  p :     3.188440
      px      :     1.099519
      py      :     0.997288
      dz2     :     0.025236  d :     0.082081
      dxz     :     0.026560
      dyz     :     0.012795
      dx2y2   :     0.011742
      dxy     :     0.005748

  9 C s       :     2.903579  s :     2.903579
      pz      :     1.092705  p :     3.176056
      px      :     1.097533
      py      :     0.985818
      dz2     :     0.020630  d :     0.082755
      dxz     :     0.027825
      dyz     :     0.006015
      dx2y2   :     0.014556
      dxy     :     0.013728

 10 C s       :     2.893055  s :     2.893055
      pz      :     1.083989  p :     3.189080
      px      :     1.095442
      py      :     1.009650
      dz2     :     0.019747  d :     0.082083
      dxz     :     0.031106
      dyz     :     0.008627
      dx2y2   :     0.011975
      dxy     :     0.010628

 11 H s       :     0.805969  s :     0.805969
      pz      :     0.013903  p :     0.044324
      px      :     0.018502
      py      :     0.011919

 12 H s       :     0.803514  s :     0.803514
      pz      :     0.014346  p :     0.043479
      px      :     0.012073
      py      :     0.017060

 13 H s       :     0.804192  s :     0.804192
      pz      :     0.009229  p :     0.043852
      px      :     0.016862
      py      :     0.017761

 14 H s       :     0.799358  s :     0.799358
      pz      :     0.013557  p :     0.043135
      px      :     0.019504
      py      :     0.010074

 15 H s       :     0.795673  s :     0.795673
      pz      :     0.009342  p :     0.043788
      px      :     0.013410
      py      :     0.021036

 16 H s       :     0.799140  s :     0.799140
      pz      :     0.017066  p :     0.043901
      px      :     0.013332
      py      :     0.013504

 17 H s       :     0.796400  s :     0.796400
      pz      :     0.023584  p :     0.044089
      px      :     0.008052
      py      :     0.012452

 18 H s       :     0.803201  s :     0.803201
      pz      :     0.009479  p :     0.043619
      px      :     0.026061
      py      :     0.008080

 19 H s       :     0.786767  s :     0.786767
      pz      :     0.025283  p :     0.044493
      px      :     0.009244
      py      :     0.009966

 20 H s       :     0.789345  s :     0.789345
      pz      :     0.018208  p :     0.044416
      px      :     0.015871
      py      :     0.010337

 21 H s       :     0.789408  s :     0.789408
      pz      :     0.008157  p :     0.044664
      px      :     0.027424
      py      :     0.009083

 22 H s       :     0.789655  s :     0.789655
      pz      :     0.025141  p :     0.044423
      px      :     0.009374
      py      :     0.009909

 23 H s       :     0.783139  s :     0.783139
      pz      :     0.018638  p :     0.045849
      px      :     0.016076
      py      :     0.011135


---------------------------------
LOEWDIN BOND ORDERS (THRESH 0.050000)
---------------------------------
B(  0-C ,  1-C ) :   1.1337 B(  0-C ,  2-C ) :   0.0568 B(  0-C , 11-H ) :   0.9250 
B(  0-C , 12-H ) :   0.9277 B(  0-C , 13-H ) :   0.9254 B(  1-C ,  2-C ) :   1.0707 
B(  1-C ,  4-C ) :   0.0596 B(  1-C ,  5-C ) :   0.0635 B(  1-C , 14-H ) :   0.8913 
B(  1-C , 15-H ) :   0.8864 B(  2-C ,  3-H ) :   0.8468 B(  2-C ,  4-C ) :   1.0846 
B(  2-C ,  5-C ) :   1.0347 B(  2-C ,  6-C ) :   0.0925 B(  2-C , 10-C ) :   0.0770 
B(  4-C ,  5-C ) :   0.0742 B(  4-C , 16-H ) :   0.9180 B(  4-C , 17-H ) :   0.9173 
B(  4-C , 18-H ) :   0.9209 B(  5-C ,  6-C ) :   1.4253 B(  5-C ,  7-C ) :   0.0888 
B(  5-C ,  8-C ) :   0.1262 B(  5-C ,  9-C ) :   0.0900 B(  5-C , 10-C ) :   1.4427 
B(  5-C , 19-H ) :   0.0516 B(  5-C , 23-H ) :   0.0511 B(  6-C ,  7-C ) :   1.5242 
B(  6-C ,  8-C ) :   0.0889 B(  6-C ,  9-C ) :   0.1321 B(  6-C , 10-C ) :   0.0852 
B(  6-C , 19-H ) :   0.8644 B(  6-C , 20-H ) :   0.0559 B(  7-C ,  8-C ) :   1.4972 
B(  7-C ,  9-C ) :   0.0880 B(  7-C , 10-C ) :   0.1277 B(  7-C , 19-H ) :   0.0537 
B(  7-C , 20-H ) :   0.8737 B(  7-C , 21-H ) :   0.0540 B(  8-C ,  9-C ) :   1.5150 
B(  8-C , 10-C ) :   0.0888 B(  8-C , 20-H ) :   0.0538 B(  8-C , 21-H ) :   0.8757 
B(  8-C , 22-H ) :   0.0542 B(  9-C , 10-C ) :   1.5020 B(  9-C , 21-H ) :   0.0545 
B(  9-C , 22-H ) :   0.8739 B(  9-C , 23-H ) :   0.0541 B( 10-C , 22-H ) :   0.0551 
B( 10-C , 23-H ) :   0.8588 

------------------------------------------
LOEWDIN REDUCED ORBITAL POPULATIONS PER MO
-------------------------------------------
THRESHOLD FOR PRINTING IS 0.1%%
                      0         1         2         3         4         5   
                 -10.04033 -10.03889 -10.03063 -10.03056 -10.02868 -10.02834
                   2.00000   2.00000   2.00000   2.00000   2.00000   2.00000
                  --------  --------  --------  --------  --------  --------
 2 C  s              99.4       0.3       0.0       0.0       0.0       0.0
 5 C  s               0.3      99.2       0.0       0.0       0.1       0.1
 5 C  pz              0.0       0.0       0.0       0.0       0.1       0.1
 6 C  s               0.0       0.1       1.0       0.1       0.0      96.7
 6 C  px              0.0       0.1       0.1       0.0       0.0       0.0
 7 C  s               0.0       0.0      88.5       9.1       0.0       0.8
 7 C  px              0.0       0.0       0.0       0.0       0.0       0.1
 8 C  s               0.0       0.0       1.4       0.4       0.3       2.0
 8 C  pz              0.0       0.0       0.1       0.1       0.0       0.0
 9 C  s               0.0       0.0       8.6      88.5       1.4       0.0
 9 C  px              0.0       0.0       0.0       0.0       0.1       0.0
10 C  s               0.0       0.1       0.1       1.4      97.8       0.0
10 C  pz              0.0       0.1       0.0       0.0       0.0       0.0
10 C  px              0.0       0.0       0.0       0.1       0.0       0.0

                      6         7         8         9        10        11   
                 -10.02816 -10.02773 -10.01917 -10.01800  -0.82829  -0.77640
                   2.00000   2.00000   2.00000   2.00000   2.00000   2.00000
                  --------  --------  --------  --------  --------  --------
 0 C  s               0.0       0.0       0.0      99.7       0.4       5.6
 0 C  pz              0.0       0.1       0.0       0.0       0.2       1.3
 0 C  px              0.0       0.0       0.0       0.0       0.1       0.3
 0 C  py              0.0       0.0       0.0       0.0       0.0       0.1
 1 C  s               0.0      99.7       0.0       0.0       1.6      13.5
 1 C  px              0.0       0.0       0.0       0.0       0.4       0.3
 1 C  py              0.0       0.0       0.0       0.0       0.3       1.3
 2 C  s               0.0       0.0       0.0       0.0       5.6      18.2
 2 C  pz              0.0       0.0       0.0       0.0       0.2       0.5
 2 C  px              0.0       0.0       0.0       0.0       1.1       0.5
 3 H  s               0.0       0.0       0.0       0.0       0.6       2.4
 3 H  pz              0.0       0.0       0.0       0.0       0.0       0.2
 4 C  s               0.0       0.0      99.7       0.0       1.3       8.1
 4 C  px              0.0       0.0       0.0       0.0       0.2       0.1
 4 C  py              0.0       0.0       0.0       0.0       0.6       2.0
 5 C  s               0.0       0.0       0.0       0.0      15.9       2.1
 5 C  pz              0.0       0.0       0.0       0.0       0.0       0.2
 5 C  px              0.0       0.0       0.0       0.0       0.7       6.3
 5 C  dx2y2           0.0       0.0       0.0       0.0       0.1       0.0
 6 C  s               1.7       0.0       0.0       0.0      11.9       0.3
 6 C  pz              0.0       0.0       0.0       0.0       2.3       0.0
 6 C  px              0.0       0.0       0.0       0.0       0.0       3.0
 6 C  py              0.0       0.0       0.0       0.0       0.2       0.0
 6 C  dx2y2           0.0       0.0       0.0       0.0       0.1       0.0
 7 C  s               1.2       0.0       0.0       0.0       9.5       4.4
 7 C  pz              0.1       0.0       0.0       0.0       1.0       0.9
 7 C  px              0.0       0.0       0.0       0.0       1.2       0.0
 7 C  py              0.0       0.0       0.0       0.0       0.2       0.1
 8 C  s              95.5       0.0       0.0       0.0       8.8       6.8
 8 C  pz              0.0       0.0       0.0       0.0       0.1       0.0
 8 C  px              0.0       0.0       0.0       0.0       2.2       0.6
 9 C  s               1.1       0.0       0.0       0.0       9.5       4.3
 9 C  pz              0.1       0.0       0.0       0.0       1.9       0.7
 9 C  px              0.0       0.0       0.0       0.0       0.4       0.3
 9 C  py              0.0       0.0       0.0       0.0       0.1       0.1
10 C  s               0.2       0.0       0.0       0.0      11.8       0.2
10 C  pz              0.0       0.0       0.0       0.0       1.8       0.3
10 C  px              0.0       0.0       0.0       0.0       0.5       2.7
10 C  py              0.0       0.0       0.0       0.0       0.2       0.0
11 H  s               0.0       0.0       0.0       0.0       0.0       0.7
12 H  s               0.0       0.0       0.0       0.0       0.0       0.7
13 H  s               0.0       0.0       0.0       0.0       0.0       0.8
14 H  s               0.0       0.0       0.0       0.0       0.2       1.8
14 H  px              0.0       0.0       0.0       0.0       0.0       0.1
15 H  s               0.0       0.0       0.0       0.0       0.2       1.7
15 H  py              0.0       0.0       0.0       0.0       0.0       0.1
16 H  s               0.0       0.0       0.0       0.0       0.2       1.0
17 H  s               0.0       0.0       0.0       0.0       0.1       1.0
18 H  s               0.0       0.0       0.0       0.0       0.1       1.1
19 H  s               0.0       0.0       0.0       0.0       1.1       0.0
20 H  s               0.0       0.0       0.0       0.0       0.9       0.5
21 H  s               0.0       0.0       0.0       0.0       0.8       0.8
22 H  s               0.0       0.0       0.0       0.0       0.9       0.5
23 H  s               0.0       0.0       0.0       0.0       1.1       0.0

                     12        13        14        15        16        17   
                  -0.71653  -0.71031  -0.68210  -0.61785  -0.57528  -0.56813
                   2.00000   2.00000   2.00000   2.00000   2.00000   2.00000
                  --------  --------  --------  --------  --------  --------
 0 C  s              10.3       5.3       8.9      10.3       3.2       1.7
 0 C  pz              0.4       0.2       0.1       1.4       1.1       1.4
 0 C  px              0.1       0.0       0.0       0.3       0.4       0.0
 0 C  py              0.2       0.1       0.2       0.8       0.2       0.5
 1 C  s               7.6       3.8       2.4       5.0       2.1       3.6
 1 C  pz              1.4       0.4       3.1       5.0       0.6       1.1
 1 C  px              0.5       0.6       0.6       2.1       0.1       0.3
 1 C  py              0.0       0.0       0.3       0.9       0.4       0.7
 2 C  s               0.3       0.0       4.2       5.4       0.3       0.0
 2 C  pz              1.0       0.0       1.2       0.1       1.0       0.5
 2 C  px              3.1       2.0       1.1       0.1       3.5       3.2
 2 C  py              1.0       0.1       4.9       8.8       0.1       0.4
 2 C  dx2y2           0.0       0.0       0.1       0.1       0.1       0.0
 3 H  s               0.1       0.0       0.9       2.0       0.3       0.1
 3 H  pz              0.0       0.0       0.1       0.2       0.0       0.0
 4 C  s               0.4       0.1      20.4      12.9       1.2       0.1
 4 C  pz              0.1       0.0       0.1       0.0       0.0       0.2
 4 C  px              0.3       0.1       0.0       0.3       0.6       0.2
 4 C  py              0.0       0.0       0.1       2.5       0.2       0.0
 5 C  s               5.2       4.5       2.6       0.2       2.0       3.9
 5 C  pz              4.4       4.9       0.1       0.1       9.5       4.6
 5 C  px              0.2       0.0       2.9       3.0       0.1       1.5
 5 C  py              0.6       0.4       0.1       0.6       0.7       0.3
 5 C  dxz             0.1       0.1       0.0       0.0       0.0       0.1
 6 C  s              11.8       3.2       3.7       1.0       1.0       7.2
 6 C  pz              0.2       0.6       0.2       0.0       0.1       3.1
 6 C  px              0.3       5.8       0.1       0.1      10.2       0.2
 6 C  py              0.0       0.2       0.1       0.1       0.2       0.3
 7 C  s               1.1      16.4       0.0       0.0       7.4       0.4
 7 C  pz              2.3       0.1       1.4       0.7       1.6       3.9
 7 C  px              3.1       0.1       2.3       1.2       0.4       7.9
 7 C  py              0.0       0.0       0.0       0.0       0.2       0.0
 7 C  dz2             0.1       0.0       0.1       0.0       0.0       0.1
 8 C  s               5.1       4.8       5.8       2.0       2.4       4.0
 8 C  pz              2.9       5.2       0.3       0.0       8.0       4.2
 8 C  px              0.3       0.2       0.1       0.3       0.2       2.4
 8 C  py              0.3       0.5       0.0       0.0       0.6       0.6
 8 C  dxz             0.1       0.1       0.0       0.0       0.1       0.1
 9 C  s              12.0       3.5       2.2       0.0       1.8       7.3
 9 C  pz              0.2       0.6       0.1       0.1       0.1       2.9
 9 C  px              0.1       5.8       2.4       1.6       9.1       0.2
 9 C  py              0.0       0.2       0.1       0.1       0.2       0.3
10 C  s               2.0      15.8       1.4       0.9       7.2       0.4
10 C  pz              2.4       0.1       0.7       0.2       1.0       3.6
10 C  px              2.5       0.1       1.2       0.3       1.1       7.7
10 C  py              0.1       0.0       0.0       0.0       0.2       0.1
10 C  dz2             0.1       0.0       0.1       0.0       0.0       0.1
11 H  s               1.7       0.8       1.7       3.3       1.0       1.1
11 H  px              0.1       0.0       0.1       0.1       0.1       0.0
12 H  s               1.8       0.9       2.0       3.1       1.3       0.6
12 H  py              0.1       0.0       0.1       0.1       0.1       0.0
13 H  s               1.7       0.9       1.5       3.5       1.2       0.7
13 H  px              0.1       0.0       0.1       0.1       0.0       0.0
13 H  py              0.1       0.0       0.1       0.1       0.0       0.0
14 H  s               1.3       0.8       0.4       1.5       0.8       2.1
14 H  px              0.1       0.0       0.0       0.1       0.0       0.1
15 H  s               1.3       0.5       0.6       1.8       1.0       1.1
15 H  py              0.1       0.0       0.0       0.1       0.0       0.0
16 H  s               0.1       0.0       4.2       3.9       0.2       0.0
16 H  pz              0.0       0.0       0.2       0.1       0.0       0.0
16 H  px              0.0       0.0       0.1       0.1       0.0       0.0
16 H  py              0.0       0.0       0.1       0.1       0.0       0.0
17 H  s               0.0       0.0       3.7       4.3       0.4       0.0
17 H  pz              0.0       0.0       0.3       0.3       0.0       0.0
18 H  s               0.0       0.0       4.1       3.9       0.7       0.1
18 H  px              0.0       0.0       0.3       0.3       0.0       0.0
19 H  s               2.1       0.6       0.6       0.3       0.7       4.3
19 H  pz              0.2       0.0       0.1       0.0       0.1       0.2
20 H  s               0.2       2.9       0.0       0.0       3.9       0.2
20 H  pz              0.0       0.1       0.0       0.0       0.1       0.0
20 H  px              0.0       0.1       0.0       0.0       0.1       0.0
21 H  s               0.9       0.9       1.3       0.8       1.3       2.2
21 H  px              0.1       0.1       0.1       0.1       0.1       0.1
22 H  s               2.1       0.6       0.5       0.0       1.0       4.2
22 H  pz              0.2       0.0       0.0       0.0       0.1       0.2
23 H  s               0.5       2.7       0.3       0.2       4.0       0.2
23 H  pz              0.0       0.1       0.0       0.0       0.2       0.0
23 H  px              0.0       0.1       0.0       0.0       0.1       0.0

                     18        19        20        21        22        23   
                  -0.52213  -0.47847  -0.44192  -0.42637  -0.41823  -0.40526
                   2.00000   2.00000   2.00000   2.00000   2.00000   2.00000
                  --------  --------  --------  --------  --------  --------
 0 C  s               1.5       0.3       0.1       0.0       0.0       0.1
 0 C  pz              2.8       0.1       0.3       2.2       5.1       3.6
 0 C  px              0.0       1.1       4.0       0.6       6.6       2.8
 0 C  py              1.4       1.1       2.2       6.7       0.3       0.9
 1 C  s               4.7       0.7       0.1       0.1       0.1       0.4
 1 C  pz              0.1       2.2       0.7       4.5       1.1       0.8
 1 C  px              1.3       0.4       5.5       1.8       8.6       0.0
 1 C  py              3.1       2.6       4.2       8.4       1.0       2.5
 2 C  s               6.1       2.7       0.2       0.0       0.1       0.0
 2 C  pz              1.6       2.5      16.8       0.0       0.8       3.5
 2 C  px              0.9       2.7       0.0       9.0       0.1       0.0
 2 C  py              0.0       0.1       0.3       0.1       0.7       3.1
 2 C  dxz             0.0       0.0       0.0       0.0       0.0       0.1
 3 H  s               3.8       3.1       4.3       0.1       0.9       2.2
 3 H  pz              0.2       0.2       0.1       0.0       0.0       0.1
 4 C  s               2.0       0.4       0.0       0.2       0.0       0.1
 4 C  pz              0.0       0.1       9.1       0.4       1.7       7.0
 4 C  px              0.9       0.3       0.0       6.5       0.1       2.3
 4 C  py              3.7       3.9       0.1       3.2       0.1       0.5
 5 C  s               1.1       0.5       0.0       0.4       3.3       0.4
 5 C  pz              0.3       0.0       3.2       1.4       0.0       7.1
 5 C  px              7.8       1.0       1.6       2.4       0.2       0.0
 5 C  py              0.1       0.0       0.1       0.1       0.4       4.4
 5 C  dz2             0.0       0.1       0.1       0.1       0.0       0.0
 5 C  dxz             0.1       0.1       0.0       0.0       0.0       0.1
 6 C  s               0.1       1.3       0.0       1.7       0.6       0.2
 6 C  pz              4.8       5.8       0.0       2.8       2.4       0.3
 6 C  px              1.2       2.4       6.4       0.0       1.0       5.9
 6 C  py              0.4       0.4       0.2       0.1       0.1       0.1
 6 C  dxz             0.0       0.0       0.0       0.0       0.3       0.0
 7 C  s               2.7       0.4       0.1       1.3       0.7       0.1
 7 C  pz              4.5       2.3       1.6       0.1       4.6       8.9
 7 C  px              1.0       2.0       5.0       1.2       6.9       1.2
 7 C  py              0.5       0.4       0.0       0.0       1.0       0.2
 7 C  dxz             0.0       0.0       0.0       0.1       0.2       0.0
 8 C  s               0.7       1.6       0.3       1.2       1.2       0.1
 8 C  pz              0.2       1.5       3.9       1.5       0.0       7.7
 8 C  px              0.2      13.4       2.8       5.6       2.1       0.0
 8 C  py              0.0       0.0       0.5       0.0       0.1       1.1
 8 C  dz2             0.0       0.0       0.0       0.1       0.0       0.0
 9 C  s               1.2       0.3       0.5       1.2       0.8       0.1
 9 C  pz              4.7       4.4       0.1       0.9       7.2       0.1
 9 C  px              0.8       2.8       5.9       0.1       0.1       7.4
 9 C  py              0.5       0.2       0.1       0.1       0.4       0.0
 9 C  dxz             0.0       0.0       0.0       0.0       0.2       0.0
10 C  s               0.6       0.5       1.4       1.5       0.3       0.0
10 C  pz              7.7       1.9       2.0       0.1       3.0       9.3
10 C  px              0.0       6.9       1.0       2.4       1.8       2.9
10 C  py              0.6       0.5       0.4       0.0       0.9       0.1
10 C  dxz             0.0       0.0       0.0       0.1       0.3       0.0
11 H  s               1.8       0.0       0.6       0.0       3.4       0.0
12 H  s               0.6       0.1       1.9       1.9       0.1       3.0
13 H  s               0.8       0.9       0.1       2.4       2.2       0.1
14 H  s               3.2       0.0       2.8       0.4       2.5       0.0
14 H  px              0.1       0.0       0.0       0.0       0.0       0.0
15 H  s               2.6       2.4       0.0       4.8       2.1       0.2
15 H  py              0.1       0.1       0.0       0.1       0.1       0.0
16 H  s               1.0       0.9       1.7       2.9       0.7       1.0
17 H  s               1.4       1.0       1.8       0.2       0.2       1.2
18 H  s               1.5       0.0       0.4       1.3       0.0       2.4
19 H  s               0.7       4.6       0.3       3.3       2.0       0.2
19 H  pz              0.0       0.2       0.0       0.1       0.0       0.0
20 H  s               4.0       0.9       0.0       1.5       7.9       1.5
20 H  pz              0.1       0.0       0.0       0.0       0.1       0.0
20 H  px              0.1       0.0       0.0       0.0       0.1       0.1
21 H  s               0.1       7.4       1.3       5.4       0.0       0.0
21 H  px              0.0       0.3       0.0       0.2       0.0       0.0
22 H  s               2.2       1.6       0.9       1.5       5.1       0.3
22 H  pz              0.1       0.1       0.1       0.0       0.1       0.0
23 H  s               2.1       3.6       1.0       2.0       4.5       0.7
23 H  pz              0.0       0.1       0.0       0.1       0.0       0.0

                     24        25        26        27        28        29   
                  -0.39031  -0.38024  -0.36787  -0.35090  -0.34887  -0.33613
                   2.00000   2.00000   2.00000   2.00000   2.00000   2.00000
                  --------  --------  --------  --------  --------  --------
 0 C  s               0.0       0.0       0.1       0.0       0.2       0.1
 0 C  pz              1.4       0.4       0.2       0.1      13.5       2.8
 0 C  px              3.4       3.8      12.2       3.7       0.8       0.0
 0 C  py              1.9       2.9       5.9      18.7       0.8       0.7
 0 C  dxz             0.0       0.0       0.0       0.2       0.0       0.0
 0 C  dyz             0.0       0.0       0.1       0.1       0.1       0.0
 0 C  dxy             0.0       0.0       0.1       0.0       0.1       0.0
 1 C  s               0.0       0.0       0.1       0.3       0.2       0.1
 1 C  pz              0.1       0.0       4.2       2.6       5.4       2.1
 1 C  px              3.8       5.4       0.0       0.0       0.7       0.0
 1 C  py              0.0       0.0       1.4       0.0       3.3       2.1
 1 C  dyz             0.0       0.0       0.0       0.1       0.1       0.0
 2 C  s               0.1       0.1       0.1       0.3       0.4       0.1
 2 C  pz              0.1       0.2       0.1       1.2       0.1       0.0
 2 C  px              0.7       0.0       4.7       0.1       1.5       0.1
 2 C  py              4.0       4.0       6.8       1.1       0.3       0.3
 2 C  dx2y2           0.0       0.0       0.0       0.1       0.1       0.0
 2 C  dxy             0.0       0.0       0.0       0.2       0.0       0.0
 3 H  s               0.3       0.0       0.1       0.6       0.7       0.0
 4 C  s               0.1       0.0       0.1       0.1       0.0       0.1
 4 C  pz              0.1       0.4       5.4       4.5      17.8       0.0
 4 C  px             10.7       4.4       0.0      14.7       1.9       6.9
 4 C  py              0.3       1.6      11.5       5.1       0.1       0.0
 4 C  dz2             0.0       0.0       0.1       0.1       0.1       0.0
 4 C  dxz             0.0       0.0       0.0       0.2       0.0       0.0
 4 C  dyz             0.0       0.0       0.1       0.0       0.2       0.0
 4 C  dx2y2           0.1       0.0       0.0       0.0       0.1       0.1
 5 C  s               0.3       0.0       0.0       0.1       0.3       0.2
 5 C  pz              3.4       0.4       0.7       0.4       0.2       0.3
 5 C  px              3.2       0.4       3.7       1.2       1.3       0.5
 5 C  py              1.2       1.8       3.2       0.7       0.7       6.3
 5 C  dxz             0.3       0.1       0.0       0.0       0.0       0.0
 5 C  dxy             0.1       0.0       0.0       0.0       0.0       0.1
 6 C  s               0.3       0.2       0.0       0.0       0.2       0.0
 6 C  pz             11.2       5.5       1.3       1.2       0.8       0.1
 6 C  px              0.1       5.4       0.1       0.2       1.1       2.6
 6 C  py              3.5       0.3       0.8       0.8       0.2       8.4
 7 C  s               0.2       0.3       0.1       0.0       0.1       0.0
 7 C  pz              1.3       3.1       1.4       0.2       0.5       1.7
 7 C  px              0.2      10.1       0.1       0.1       1.5       0.9
 7 C  py              0.8       0.1       1.4       0.9       0.4      10.4
 7 C  dz2             0.1       0.1       0.0       0.0       0.1       0.1
 8 C  s               0.2       0.0       0.1       0.0       0.1       0.0
 8 C  pz              2.0       0.2       0.9       0.5       0.5       0.3
 8 C  px              1.9       0.0       3.5       0.5       7.1       5.2
 8 C  py              0.1       0.2       0.5       0.5       0.5      10.2
 8 C  dz2             0.0       0.0       0.0       0.0       0.2       0.1
 8 C  dxz             0.2       0.2       0.0       0.0       0.0       0.1
 9 C  s               0.2       0.5       0.0       0.0       0.1       0.0
 9 C  pz             12.3       5.0       0.1       0.2       0.1       0.8
 9 C  px              0.4       3.6       0.4       0.0       2.6       0.7
 9 C  py              2.0       0.0       0.5       0.5       0.2      11.4
 9 C  dz2             0.1       0.1       0.0       0.0       0.1       0.0
 9 C  dyz             0.0       0.0       0.0       0.0       0.0       0.1
10 C  s               0.6       0.1       0.1       0.0       0.1       0.1
10 C  pz              0.7       4.0       1.0       0.1       0.0       1.1
10 C  px              0.3       9.9       0.9       0.0       2.3       2.1
10 C  py              1.3       0.1       2.5       1.0       0.9       8.1
10 C  dz2             0.1       0.1       0.0       0.0       0.0       0.0
11 H  s               2.8       2.3       1.2       5.8       0.3       0.8
11 H  pz              0.0       0.0       0.0       0.1       0.1       0.0
11 H  py              0.0       0.0       0.1       0.0       0.0       0.0
12 H  s               0.5       1.0       0.1       8.5       5.2       0.0
12 H  pz              0.0       0.0       0.0       0.1       0.0       0.0
12 H  px              0.0       0.0       0.1       0.0       0.0       0.0
13 H  s               0.1       0.0       8.4       1.6       0.5       0.1
13 H  px              0.0       0.0       0.0       0.2       0.0       0.0
14 H  s               0.8       1.5       0.9       1.4       0.3       0.8
15 H  s               0.4       0.7       0.1       0.0       0.4       0.3
16 H  s               0.6       0.2       0.0      10.8       2.1       1.4
16 H  pz              0.0       0.0       0.0       0.1       0.0       0.0
[...]
10 C  py              0.0       0.1       0.0       0.1       0.0       0.0
10 C  dz2             1.2       3.1       0.1       0.3       0.0       0.0
10 C  dxz             0.9       4.4       0.8       7.6       0.0       0.0
10 C  dyz             0.1       1.3       0.0       0.4       0.0       0.0
10 C  dx2y2           0.3       0.2       0.1       0.0       0.0       0.0
10 C  dxy             0.1       0.3       0.1       0.7       0.0       0.0
11 H  s               0.9       0.4       1.4       0.0       0.0       0.0
11 H  pz              0.6       0.1       1.5       0.0       0.0       0.0
11 H  px              0.8       1.3       1.7       0.0       0.0       0.0
11 H  py              0.6       0.3       0.4       0.0       0.0       0.0
12 H  s               0.0       0.1       0.4       0.0       0.0       0.0
12 H  pz              0.1       0.0       0.3       0.0       0.0       0.0
12 H  px              0.1       0.3       0.2       0.0       0.0       0.0
12 H  py              0.0       0.1       0.3       0.0       0.0       0.0
13 H  s               2.2       0.3       0.2       0.0       0.0       0.0
13 H  pz              0.2       0.0       0.0       0.0       0.0       0.0
13 H  px              2.5       0.2       0.1       0.0       0.0       0.0
13 H  py              2.8       0.3       0.3       0.0       0.0       0.0
14 H  s               0.2       0.1       3.6       0.0       0.0       0.0
14 H  pz              0.0       0.0       3.1       0.0       0.0       0.0
14 H  px              0.0       0.0       4.6       0.0       0.0       0.0
14 H  py              0.5       0.0       0.5       0.0       0.0       0.0
15 H  s               4.5       0.5       0.9       0.0       0.0       0.0
15 H  pz              0.6       0.0       0.0       0.0       0.0       0.0
15 H  px              4.3       0.2       0.1       0.0       0.0       0.0
15 H  py              7.7       0.8       1.7       0.0       0.0       0.0
16 H  s               1.8       0.7       0.3       0.0       0.0       0.0
16 H  pz              2.4       0.6       0.4       0.0       0.0       0.0
16 H  px              1.2       0.5       0.1       0.0       0.0       0.0
16 H  py              1.0       0.4       0.3       0.0       0.0       0.0
17 H  s               0.0       0.9       1.0       0.0       0.0       0.0
17 H  pz              0.0       1.2       1.9       0.0       0.0       0.0
17 H  py              0.1       0.5       0.6       0.0       0.0       0.0
18 H  s               0.3       0.1       0.0       0.0       0.0       0.0
18 H  pz              0.1       0.0       0.0       0.0       0.0       0.0
18 H  px              0.4       0.5       0.0       0.0       0.0       0.0
18 H  py              0.1       0.0       0.0       0.0       0.0       0.0
19 H  s               0.4       0.9       0.1       1.9       0.0       0.0
19 H  pz              1.2       2.2       0.3       3.1       0.0       0.0
19 H  px              0.0       0.1       0.0       0.3       0.0       0.0
19 H  py              0.1       0.1       0.0       0.2       0.0       0.0
20 H  s               0.3       2.5       0.2       2.4       0.0       0.0
20 H  pz              0.6       3.5       0.3       2.2       0.0       0.0
20 H  px              0.2       3.2       0.2       1.9       0.0       0.0
20 H  py              0.1       0.5       0.0       0.3       0.0       0.0
21 H  s               0.0       0.5       0.0       2.8       0.0       0.0
21 H  pz              0.0       0.0       0.0       0.2       0.0       0.0
21 H  px              0.0       1.7       0.0       4.9       0.0       0.0
22 H  s               0.3       0.6       0.2       2.4       0.0       0.0
22 H  pz              0.8       1.5       0.4       3.7       0.0       0.0
22 H  px              0.0       0.1       0.0       0.5       0.0       0.0
22 H  py              0.1       0.1       0.0       0.2       0.0       0.0
23 H  s               0.1       3.2       0.5       2.1       0.0       0.0
23 H  pz              0.1       4.5       1.1       2.2       0.0       0.0
23 H  px              0.0       4.7       0.6       1.5       0.0       0.0
23 H  py              0.0       0.8       0.1       0.4       0.0       0.0

                    252       253       254       255       256       257   
                  21.97485  21.98128  22.03376  22.11123  22.14976  22.20552
                   0.00000   0.00000   0.00000   0.00000   0.00000   0.00000
                  --------  --------  --------  --------  --------  --------
 0 C  s              14.5      35.2      16.1      24.0       0.4       0.1
 1 C  s               4.9       0.1      24.6      60.1       5.0       0.2
 2 C  s               7.3       1.3       5.2       2.9      41.0       0.1
 4 C  s              29.5       9.4      36.7       5.5       2.9       0.8
 5 C  s               0.0       5.1       0.4       0.0      10.1       0.1
 6 C  s              12.6      15.2       0.6       3.0       6.8      28.4
 7 C  s              10.2       7.9       3.8       0.8       0.7      22.5
 8 C  s               0.2       3.5       6.0       1.2      23.1       0.0
 9 C  s              11.3      19.3       0.9       1.4       2.8      21.0
10 C  s               9.1       2.5       5.5       0.5       6.9      26.4

                    258       259   
                  22.23553  22.35337
                   0.00000   0.00000
                  --------  --------
 2 C  s              36.4       1.4
 4 C  s              11.1       1.0
 5 C  s              17.4      19.2
 6 C  s               0.6      16.6
 7 C  s              10.0      14.3
 8 C  s              14.9      13.5
 9 C  s               7.8      15.1
10 C  s               1.4      18.5


                      *****************************
                      * MAYER POPULATION ANALYSIS *
                      *****************************

  NA   - Mulliken gross atomic population
  ZA   - Total nuclear charge
  QA   - Mulliken gross atomic charge
  VA   - Mayer's total valence
  BVA  - Mayer's bonded valence
  FA   - Mayer's free valence

  ATOM       NA         ZA         QA         VA         BVA        FA
  0 C      6.4911     6.0000    -0.4911     3.7834     3.7834     0.0000
  1 C      6.3162     6.0000    -0.3162     3.6277     3.6277     0.0000
  2 C      6.0534     6.0000    -0.0534     3.4483     3.4483    -0.0000
  3 H      0.8368     1.0000     0.1632     0.9570     0.9570    -0.0000
  4 C      6.4902     6.0000    -0.4902     3.7298     3.7298     0.0000
  5 C      5.8591     6.0000     0.1409     3.4781     3.4781     0.0000
  6 C      6.2513     6.0000    -0.2513     3.9264     3.9264    -0.0000
  7 C      6.1545     6.0000    -0.1545     3.8442     3.8442    -0.0000
  8 C      6.1514     6.0000    -0.1514     3.8381     3.8381     0.0000
  9 C      6.1790     6.0000    -0.1790     3.8476     3.8476     0.0000
 10 C      6.1870     6.0000    -0.1870     3.9414     3.9414    -0.0000
 11 H      0.8442     1.0000     0.1558     0.9624     0.9624    -0.0000
 12 H      0.8498     1.0000     0.1502     0.9611     0.9611     0.0000
 13 H      0.8479     1.0000     0.1521     0.9609     0.9609    -0.0000
 14 H      0.8453     1.0000     0.1547     0.9573     0.9573     0.0000
 15 H      0.8378     1.0000     0.1622     0.9590     0.9590     0.0000
 16 H      0.8498     1.0000     0.1502     0.9645     0.9645     0.0000
 17 H      0.8325     1.0000     0.1675     0.9584     0.9584     0.0000
 18 H      0.8461     1.0000     0.1539     0.9601     0.9601    -0.0000
 19 H      0.8538     1.0000     0.1462     0.9686     0.9686    -0.0000
 20 H      0.8561     1.0000     0.1439     0.9691     0.9691     0.0000
 21 H      0.8548     1.0000     0.1452     0.9689     0.9689     0.0000
 22 H      0.8563     1.0000     0.1437     0.9691     0.9691    -0.0000
 23 H      0.8557     1.0000     0.1443     0.9688     0.9688    -0.0000

  Mayer bond orders larger than 0.100000
B(  0-C ,  1-C ) :   0.8699 B(  0-C , 11-H ) :   0.9912 B(  0-C , 12-H ) :   0.9701 
B(  0-C , 13-H ) :   0.9667 B(  1-C ,  2-C ) :   0.8602 B(  1-C , 14-H ) :   0.9675 
B(  1-C , 15-H ) :   1.0038 B(  2-C ,  3-H ) :   1.0143 B(  2-C ,  4-C ) :   0.9005 
B(  2-C ,  5-C ) :   0.8123 B(  4-C , 16-H ) :   0.9650 B(  4-C , 17-H ) :   0.9707 
B(  4-C , 18-H ) :   0.9795 B(  5-C ,  6-C ) :   1.3961 B(  5-C , 10-C ) :   1.4338 
B(  6-C ,  7-C ) :   1.4463 B(  6-C , 19-H ) :   0.9481 B(  7-C ,  8-C ) :   1.4151 
B(  7-C , 20-H ) :   0.9465 B(  8-C ,  9-C ) :   1.4293 B(  8-C , 21-H ) :   0.9494 
B(  9-C , 10-C ) :   1.4381 B(  9-C , 22-H ) :   0.9481 B( 10-C , 23-H ) :   0.9422 


-------
TIMINGS
-------

Total SCF time: 0 days 0 hours 0 min 28 sec 

Total time                  ....      28.666 sec
Sum of individual times     ....      28.265 sec  ( 98.6%)

SCF preparation             ....       0.179 sec  (  0.6%)
Fock matrix formation       ....      27.134 sec  ( 94.7%)
  Startup                   ....       0.054 sec  (  0.2% of F)
  Split-RI-J                ....       6.098 sec  ( 22.5% of F)
  XC integration            ....      20.525 sec  ( 75.6% of F)
    XC Preparation          ....       0.000 sec  (  0.0% of XC)
    Basis function eval.    ....       3.603 sec  ( 17.6% of XC)
    Density eval.           ....       6.863 sec  ( 33.4% of XC)
    XC-Functional eval.     ....       2.293 sec  ( 11.2% of XC)
    XC-Potential eval.      ....       6.905 sec  ( 33.6% of XC)
Diagonalization             ....       0.000 sec  (  0.0%)
Density matrix formation    ....       0.194 sec  (  0.7%)
Total Energy calculation    ....       0.028 sec  (  0.1%)
Population analysis         ....       0.183 sec  (  0.6%)
Orbital Transformation      ....       0.071 sec  (  0.2%)
Orbital Orthonormalization  ....       0.000 sec  (  0.0%)
DIIS solution               ....       0.370 sec  (  1.3%)
  MO trafo                  ....       0.000 sec  (  0.0 % of DIIS)
  Orb grad                  ....       0.000 sec  (  0.0 % of DIIS)
  Energy W gradient         ....       0.000 sec  (  0.0 % of DIIS)
  DIIS error                ....       0.015 sec  (  4.0 % of DIIS)
  DIIS work                 ....       0.297 sec  ( 80.3 % of DIIS)
  Form Q                    ....       0.000 sec  (  0.0 % of DIIS)
  Form QpQm                 ....       0.000 sec  (  0.0 % of DIIS)
  Exp/Cayley                ....       0.000 sec  (  0.0 % of DIIS)
  Orb update                ....       0.000 sec  (  0.0 % of DIIS)
  Wake-sleep                ....       0.021 sec  (  5.7 % of DIIS)
SOSCF solution              ....       0.105 sec  (  0.4%)
  MO trafo                  ....       0.056 sec  ( 53.2 % of SOSCF)
  Orb grad                  ....       0.001 sec  (  1.1 % of SOSCF)
  Rot update                ....       0.014 sec  ( 13.5 % of SOSCF)
  Step                      ....       0.034 sec  ( 32.0 % of SOSCF)
Finished LeanSCF after  28.7 sec

Maximum memory used throughout the entire LEANSCF-calculation: 30.3 MB


-------------------------------------------------------------------------------
                          DFT DISPERSION CORRECTION                            
                                                                               
                                DFTD4 V3.4.0                                   
-------------------------------------------------------------------------------
The R2SCAN3C composite method is recognized
Using three-body term ABC
Active option DFTDOPT                   ...         5   

-------------------------   ----------------
Dispersion correction           -0.008453072
-------------------------   ----------------

------------------   -----------------
gCP correction             0.008522666
------------------   -----------------

-------------------------   --------------------
FINAL SINGLE POINT ENERGY      -389.374285171946
-------------------------   --------------------


------------------------------------------------------------------------------
                              ORCA PROPERTY CALCULATIONS
------------------------------------------------------------------------------

GBWName                                 ... sp_gas.gbw
Number of atoms                         ...     24
Number of basis functions               ...    260
Max core memory                         ...   1024 MB

Electric properties:
Dipole moment                           ... YES
Quadrupole moment                       ...  NO
Static polarizability (Dipole/Dipole)   ...  NO
Static polarizability (Dipole/Quad.)    ...  NO
Static polarizability (Quad./Quad.)     ...  NO
Static polarizability (Velocity)        ...  NO

Atomic electric properties:
Dipole moment                           ...  NO
Quadrupole moment                       ...  NO
Static polarizability                   ...  NO

Choice of electric origin               ... Center of mass
Position of electric origin             ...     0.000015    -0.000001    -0.000002

General magnetic properties:
Magnetizability                         ...  NO

EPR properties:
g-Tensor (aka g-matrix)                 ...  NO
Zero-Field splitting spin-orbit         ...  NO
Zero-field splitting spin-spin          ...  NO
Hyperfine couplings                     ...  NO (   0 nuclei)
Quadrupole couplings                    ...  NO (   0 nuclei)
Contact density                         ...  NO (   0 nuclei)

NMR properties:
Chemical shifts                         ...  NO (   0 nuclei)
Spin-rotation constants                 ...  NO (   0 nuclei)
Spin-spin couplings                     ...  NO (   0 nuclei,    0 pairs)

Choice of magnetic origin               ... GIAO
Position of magnetic origin             ...     0.000000     0.000000     0.000000

Properties with geometric perturbations:
SCF Hessian                             ...  NO
IR spectrum                             ...  NO
VCD spectrum                            ...  NO
X-ray spectroscopy properties:
SCF XES/XAS/RIXS spectra                ...  NO


-------------
DIPOLE MOMENT
-------------

Method             : SCF
Type of density    : Electron Density
Multiplicity       :   1
Irrep              :   0
Energy             :  -389.3743547662192555 Eh
Relativity type    : 
Basis              : AO
                                X                 Y                 Z
Electronic contribution:     -9.894074338       0.883830760       1.420714422
Nuclear contribution   :     10.094285665      -0.874390691      -1.366262505
                        -----------------------------------------
Total Dipole Moment    :      0.200211327       0.009440070       0.054451917
                        -----------------------------------------
Magnitude (a.u.)       :      0.207698584
Magnitude (Debye)      :      0.527927845



--------------------
Rotational spectrum 
--------------------
 
Rotational constants in cm-1:             0.088657             0.029477             0.024399 
Rotational constants in MHz :          2657.855705           883.713015           731.452498 

Dipole components along the rotational axes: 
x,y,z [a.u.] :     0.194703    -0.065507     0.030629 
x,y,z [Debye]:     0.494896    -0.166507     0.077854 

 

Dipole moment calculation done in   0.0 sec 

Maximum memory used throughout the entire PROP-calculation: 17.8 MB

--------------------------------
SUGGESTED CITATIONS FOR THIS RUN
--------------------------------

Below you find a list of papers that are relevant to this ORCA run
We neither can nor want to force you to cite these papers, but we appreciate if you do
You receive ORCA, which is the product of decades of hard work by many enthusiastic individuals, for free
The only thing we kindly ask in return is that you cite our papers,
We deeply appreciate it, if you show your appreciation for ORCA by not just citing the generic ORCA reference.

Please note that relegating all ORCA citations to the supporting information does *not* help us.
SI sections are not indexed - citations you put there will not count into any citation statistics
But we need these citations in order to attract the funding resources that allow us to do what we are doing

Therefore, if you are a happy ORCA user, please consider citing a few of the papers listed below in the main body of your paper

In addition to the list printed below, the program has created the file sp_gas.bibtex that contains the list in bibtex format
You can import this file easily into all common literature databanks and citation aid programs


List of essential papers. We consider these as the minimum necessary citations

  1. Neese,F.
     Software update: the ORCA program system, version 5.0
     WIRES Comput. Molec. Sci., 2022 12(1)e1606
     doi.org/10.1002/wcms.1606
  2. Grimme,S.; Hansen,A.; Ehlert,S.; Mewes,J.
     r2SCAN-3c: A 'Swiss army knife' composite electronic-structure method
     J. Chem. Phys., 2021 154 064103
     doi.org/10.1063/5.0040021

List of papers to cite with high priority. The work reported in these papers was absolutely
necessary for this run to complete.
Our perspective: the developers of density functionals and basis sets usually get cited in chemistry papers
Good! But without the algorithms to do something with them, the functionals or basis sets would not do anything.
Hence, in our opinion, the algorithm design and method developments papers are equally worthy of getting cited

  1. Neese,F.
     An improvement of the resolution of the identity approximation for the formation of the Coulomb matrix
     J. Comp. Chem., 2003 24(14)1740-1747
     doi.org/10.1002/jcc.10318
  2. Neese,F.
     The SHARK Integral Generation and Digestion System
     J. Comp. Chem., 2022  1-16
     doi.org/10.1002/jcc.26942
  3. Lehtola,S.; Steigemann,C.; Oliveira,M.; Marques,M.
     Recent developments in Libxc - A comprehensive library of functionals for density functional theory
     Software X, 2018 7 
     doi.org/10.1016/j.softx.2017.11.002
  4. Caldeweyher,E.; Bannwarth,C.; Grimme,S.
     Extension of the D3 dispersion coefficient model
     J. Chem. Phys., 2017 147 034112-XXXX
     doi.org/10.1063/1.4993215
  5. Caldeweyher,E.; Ehlert,S.; Hansen,A.; Neugebauer,H.; Spicher,S.; Bannwarth,C.; Grimme,S.
     A generally applicable atomic-charge dependent London dispersion correction
     J. Chem. Phys., 2019 150 154122-XXXX
     doi.org/10.1063/1.5090222
  6. Caldeweyher,E.; Mewes,J.; Ehlert,S.; Grimme,S.
     Extension and evaluation of the D4 London-dispersion model for periodic systems
     Phys. Chem. Chem. Phys., 2020 22(16)8499-8512
     doi.org/10.1039/D0CP00502A

List of suggested additional citations. These are papers that are important in the 'surrounding' of 
of this run, or papers that preceded the highly important papers. If you like your results we are grateful for a citation.

  1. Neese,F.
     The ORCA program system
     WIRES Comput. Molec. Sci., 2012 2(1)73-78
     doi.org/10.1002/wcms.81
  2. Neese,F.
     Software update: the ORCA program system, version 4.0
     WIRES Comput. Molec. Sci., 2018 8(1)1-6
     doi.org/10.1002/wcms.1327
  3. Neese,F.; Wennmohs,F.; Becker,U.; Riplinger,C.
     The ORCA quantum chemistry program package
     J. Chem. Phys., 2020 152 Art. No. L224108
     doi.org/10.1063/5.0004608

List of optional additional citations

  1. Neese,F.
     Approximate second-order SCF convergence for spin unrestricted wavefunctions
     Chem. Phys. Lett., 2000 325(1-3)93-98
     doi.org/10.1016/s0009-2614(00)00662-x

Timings for individual modules:

Sum of individual times          ...       30.795 sec (=   0.513 min)
Startup calculation              ...        1.588 sec (=   0.026 min)   5.2 %
SCF iterations                   ...       29.092 sec (=   0.485 min)  94.5 %
Property calculations            ...        0.115 sec (=   0.002 min)   0.4 %
                             ****ORCA TERMINATED NORMALLY****
TOTAL RUN TIME: 0 days 0 hours 0 minutes 31 seconds 447 msec
