
                                 *****************
                                 * O   R   C   A *
                                 *****************

                                            #,                                       
                                            ###                                      
                                            ####                                     
                                            #####                                    
                                            ######                                   
                                           ########,                                 
                                     ,,################,,,,,                         
                               ,,#################################,,                 
                          ,,##########################################,,             
                       ,#########################################, ''#####,          
                    ,#############################################,,   '####,        
                  ,##################################################,,,,####,       
                ,###########''''           ''''###############################       
              ,#####''   ,,,,##########,,,,          '''####'''          '####       
            ,##' ,,,,###########################,,,                        '##       
           ' ,,###''''                  '''############,,,                           
         ,,##''                                '''############,,,,        ,,,,,,###''
      ,#''                                            '''#######################'''  
     '                                                          ''''####''''         
             ,#######,   #######,   ,#######,      ##                                
            ,#'     '#,  ##    ##  ,#'     '#,    #''#        ,####,   ,####,        
            ##       ##  ##   ,#'  ##            #'  '#       #'       #'  '#        
            ##       ##  #######   ##           ,######,      #####,   #    #        
            '#,     ,#'  ##    ##  '#,     ,#' ,#      #,     #,   #   #,  ,#        
             '#######'   ##     ##  '#######'  #'      '#     '####' # '####'        



                #########################################################
                #                        -***-                          #
                #          Department of theory and spectroscopy        #
                #                                                       #
                #                      Frank Neese                      #
                #                                                       #
                #     Directorship, Architecture, Infrastructure        #
                #                    SHARK, DRIVERS                     #
                #        Core code/Algorithms in most modules           #
                #                                                       #
                #        Max Planck Institute fuer Kohlenforschung      #
                #                Kaiser Wilhelm Platz 1                 #
                #                 D-45470 Muelheim/Ruhr                 #
                #                      Germany                          #
                #                                                       #
                #                  All rights reserved                  #
                #                        -***-                          #
                #########################################################


                         Program Version 6.0.0  -   RELEASE  -


 With contributions from (in alphabetic order):
   Daniel Aravena         : Magnetic Suceptibility
   Michael Atanasov       : Ab Initio Ligand Field Theory (pilot matlab implementation)
   Alexander A. Auer      : GIAO ZORA, VPT2 properties, NMR spectrum
   Ute Becker             : All parallelization in ORCA, NUMFREQ, NUMCALC
   Giovanni Bistoni       : ED, misc. LED, open-shell LED, HFLD
   Martin Brehm           : Molecular dynamics
   Dmytro Bykov           : pre 5.0 version of the SCF Hessian
   Marcos Casanova-Páez   : Triplet and SCS-CIS(D). UHF-(DLPNO)-IP/EA/STEOM-CCSD. UHF-CVS-IP/STEOM-CCSD
   Vijay G. Chilkuri      : MRCI spin determinant printing, contributions to CSF-ICE
   Pauline Colinet        : FMM embedding
   Dipayan Datta          : RHF DLPNO-CCSD density
   Achintya Kumar Dutta   : EOM-CC, STEOM-CC
   Nicolas Foglia         : Exact transition moments, OPA infrastructure, MCD improvements
   Dmitry Ganyushin       : Spin-Orbit,Spin-Spin,Magnetic field MRCI
   Miquel Garcia          : C-PCM and meta-GGA Hessian, CCSD/C-PCM, Gaussian charge scheme
   Tiago L. C. Gouveia    : GS-ROHF, GS-ROCIS
   Yang Guo               : DLPNO-NEVPT2, F12-NEVPT2, CIM, IAO-localization
   Andreas Hansen         : Spin unrestricted coupled pair/coupled cluster methods
   Ingolf Harden          : AUTO-CI MPn and infrastructure 
   Benjamin Helmich-Paris : MC-RPA, TRAH-(SCF,CASSCF), AVAS, COSX integrals, SCF dyn. polar.
   Lee Huntington         : MR-EOM, pCC
   Robert Izsak           : Overlap fitted RIJCOSX, COSX-SCS-MP3, EOM
   Riya Kayal             : Wick's Theorem for AUTO-CI, AUTO-CI UHF-CCSDT
   Emily Kempfer          : AUTO-CI, RHF CISDT and CCSDT
   Christian Kollmar      : KDIIS, OOCD, Brueckner-CCSD(T), CCSD density, CASPT2, CASPT2-K, improved NEVPT2
   Axel Koslowski         : Symmetry handling
   Simone Kossmann        : Meta GGA functionals, TD-DFT gradient, OOMP2, (MP2 Hessian; deprecated post 5.0)
   Lucas Lang             : DCDCAS
   Marvin Lechner         : AUTO-CI (C++ implementation), FIC-MRCC
   Spencer Leger          : CASSCF response
   Dagmar Lenk            : GEPOL surface, SMD, ORCA-2-JSON
   Dimitrios Liakos       : Extrapolation schemes; Compound Job, initial MDCI parallelization
   Dimitrios Manganas     : Further ROCIS development; embedding schemes. LFT, Crystal Embedding
   Dimitrios Pantazis     : SARC Basis sets
   Anastasios Papadopoulos: AUTO-CI, single reference methods and gradients
   Taras Petrenko         : pre 6.0 DFT Hessian and TD-DFT gradient, (ASA, deprecated), ECA, 1-Electron XAS/XES, NRVS
   Peter Pinski           : DLPNO-MP2, DLPNO-MP2 Gradient
   Christoph Reimann      : Effective Core Potentials
   Marius Retegan         : Local ZFS, SOC
   Christoph Riplinger    : Optimizer, TS searches, QM/MM, DLPNO-CCSD(T), (RO)-DLPNO pert. Triples
   Michael Roemelt        : Original ROCIS implementation
   Masaaki Saitow         : Open-shell DLPNO-CCSD energy and density
   Barbara Sandhoefer     : DKH picture change effects
   Kantharuban Sivalingam : CASSCF convergence/infrastructure, NEVPT2 and variants, FIC-MRCI
   Bernardo de Souza      : ESD, SOC TD-DFT
   Georgi Stoychev        : AutoAux, RI-MP2 NMR, DLPNO-MP2 response, X2C
   Van Anh Tran           : RI-MP2 g-tensors
   Willem Van den Heuvel  : Paramagnetic NMR
   Zikuan Wang            : NOTCH, Electric field optimization 
   Frank Wennmohs         : Technical directorship and infrastructure
   Hang Xu                : AUTO-CI-Response properties 


 We gratefully acknowledge several colleagues who have allowed us to
 interface, adapt or use parts of their codes:
   Stefan Grimme, W. Hujo, H. Kruse, P. Pracht,  : VdW corrections, initial TS optimization,
                  C. Bannwarth, S. Ehlert,         DFT functionals, gCP, sTDA/sTD-DF
                  L. Wittmann, M. Mueller
   Ed Valeev, F. Pavosevic, A. Kumar             : LibInt (2-el integral package), F12 methods
   Garnet Chan, S. Sharma, J. Yang, R. Olivares  : DMRG
   Ulf Ekstrom                                   : XCFun DFT Library
   Mihaly Kallay                                 : mrcc  (arbitrary order and MRCC methods)
   Frank Weinhold                                : gennbo (NPA and NBO analysis)
   Simon Mueller                                 : openCOSMO-RS
   Christopher J. Cramer and Donald G. Truhlar   : smd solvation model
   Lars Goerigk                                  : TD-DFT with DH, B97 family of functionals
   V. Asgeirsson, H. Jonsson                     : NEB implementation
   FAccTs GmbH                                   : IRC, NEB, NEB-TS, DLPNO-Multilevel, CI-OPT
                                                   MM, QMMM, 2- and 3-layer-ONIOM, Crystal-QMMM,
                                                   LR-CPCM, SF, NACMEs, symmetry and pop. for TD-DFT,
                                                   nearIR, NL-DFT gradient (VV10), updates on ESD,
                                                   ML-optimized integration grids, MBIS, APM,
                                                   GOAT, DOCKER, SOLVATOR, interface openCOSMO-RS
   S Lehtola, MJT Oliveira, MAL Marques          : LibXC Library
   Liviu Ungur et al                             : ANISO software


 Your calculation uses the libint2 library for the computation of 2-el integrals
 For citations please refer to: http://libint.valeyev.net

 Your ORCA version has been built with support for libXC version: 6.2.2
 For citations please refer to: https://libxc.gitlab.io

 This ORCA versions uses:
   CBLAS   interface :  Fast vector & matrix operations
   LAPACKE interface :  Fast linear algebra routines
   SCALAPACK package :  Parallel linear algebra routines
   Shared memory     :  Shared parallel matrices
   BLAS/LAPACK       :  OpenBLAS 0.3.27  USE64BITINT DYNAMIC_ARCH NO_AFFINITY SkylakeX SINGLE_THREADED
        Core in use  :  SkylakeX
   Copyright (c) 2011-2014, The OpenBLAS Project


Your calculation utilizes the geometrical counterpoise correction gCP
Please cite in your paper:
H.Kruse, S. Grimme J.Chem.Phys., 136, (2012), 154101 
   

Your calculation utilizes the atom-pairwise dispersion correction
based on EEQ partial charges (D4)


================================================================================

----- Orbital basis set information -----
Your calculation utilizes the basis: def2-SV(P)
   F. Weigend and R. Ahlrichs, Phys. Chem. Chem. Phys. 7, 3297 (2005).

----- AuxJ basis set information -----
Your calculation utilizes the auxiliary basis: def2/J
   F. Weigend, Phys. Chem. Chem. Phys. 8, 1057 (2006).

================================================================================
                                        WARNINGS
                       Please study these warnings very carefully!
================================================================================


================================================================================
                                       INPUT FILE
================================================================================
NAME = sp.inp
|  1> ! pbe def2-sv(p) def2/J RI DEFGRID1 loosescf d4 GCP(DFT/SV(P)) printgap
|  2> %output
|  3>     printlevel normal
|  4> end
|  5> * xyz 0 1
|  6> C -2.8318908576 -0.1879161244 -0.4206210646
|  7> C -1.6812846853 0.7399470511 -0.0539083971
|  8> C -0.4057314775 -0.0162305347 0.2174891285
|  9> O -0.328952219 -1.2044057009 0.4446889125
| 10> O 0.6451008836 0.7995526747 0.2027954021
| 11> C 1.9464324504 0.2430387552 0.4552999773
| 12> C 2.5686672172 -0.3001853987 -0.8219741428
| 13> H -3.7502384728 0.3798728405 -0.5319343045
| 14> H -2.6210330086 -0.7045066606 -1.3533826755
| 15> H -2.9682807057 -0.9375579345 0.3545403604
| 16> H -1.9180328469 1.295740365 0.856332809
| 17> H -1.4842515673 1.4677159316 -0.8411307646
| 18> H 2.5263454165 1.0741056093 0.8576183334
| 19> H 1.8480882112 -0.5499956109 1.2028439908
| 20> H 2.6084265393 0.4782234281 -1.5791726074
| 21> H 3.5745602297 -0.6488100134 -0.6122041305
| 22> H 1.9779881558 -1.132201058 -1.198957682
| 23> *
| 24> 
| 25>                          ****END OF INPUT****
================================================================================

                       ****************************
                       * Single Point Calculation *
                       ****************************

---------------------------------
CARTESIAN COORDINATES (ANGSTROEM)
---------------------------------
  C     -2.831891   -0.187916   -0.420621
  C     -1.681285    0.739947   -0.053908
  C     -0.405731   -0.016231    0.217489
  O     -0.328952   -1.204406    0.444689
  O      0.645101    0.799553    0.202795
  C      1.946432    0.243039    0.455300
  C      2.568667   -0.300185   -0.821974
  H     -3.750238    0.379873   -0.531934
  H     -2.621033   -0.704507   -1.353383
  H     -2.968281   -0.937558    0.354540
  H     -1.918033    1.295740    0.856333
  H     -1.484252    1.467716   -0.841131
  H      2.526345    1.074106    0.857618
  H      1.848088   -0.549996    1.202844
  H      2.608427    0.478223   -1.579173
  H      3.574560   -0.648810   -0.612204
  H      1.977988   -1.132201   -1.198958

----------------------------
CARTESIAN COORDINATES (A.U.)
----------------------------
  NO LB      ZA    FRAG     MASS         X           Y           Z
   0 C     6.0000    0    12.011   -5.351498   -0.355110   -0.794859
   1 C     6.0000    0    12.011   -3.177168    1.398297   -0.101872
   2 C     6.0000    0    12.011   -0.766721   -0.030671    0.410995
   3 O     8.0000    0    15.999   -0.621630   -2.275997    0.840340
   4 O     8.0000    0    15.999    1.219064    1.510936    0.383228
   5 C     6.0000    0    12.011    3.678224    0.459277    0.860392
   6 C     6.0000    0    12.011    4.854078   -0.567268   -1.553306
   7 H     1.0000    0     1.008   -7.086924    0.717856   -1.005210
   8 H     1.0000    0     1.008   -4.953035   -1.331325   -2.557523
   9 H     1.0000    0     1.008   -5.609238   -1.771728    0.669984
  10 H     1.0000    0     1.008   -3.624557    2.448594    1.618234
  11 H     1.0000    0     1.008   -2.804829    2.773581   -1.589507
  12 H     1.0000    0     1.008    4.774101    2.029765    1.620664
  13 H     1.0000    0     1.008    3.492381   -1.039341    2.273046
  14 H     1.0000    0     1.008    4.929212    0.903711   -2.984204
  15 H     1.0000    0     1.008    6.754940   -1.226073   -1.156898
  16 H     1.0000    0     1.008    3.737856   -2.139550   -2.265702

--------------------------------
INTERNAL COORDINATES (ANGSTROEM)
--------------------------------
 C      0   0   0     0.000000000000     0.00000000     0.00000000
 C      1   0   0     1.522925742342     0.00000000     0.00000000
 C      2   1   0     1.507480395925   112.14920900     0.00000000
 O      3   2   1     1.212136552522   125.38325295   343.10498181
 O      3   2   1     1.330400992735   111.02453505   164.33396014
 C      5   3   2     1.437682214484   118.40180083   179.50163878
 C      6   5   3     1.521084404059   111.16387520    85.92243595
 H      1   2   3     1.085420327976   110.19493979   175.52424462
 H      1   2   3     1.086908937007   110.46580856   295.96259843
 H      1   2   3     1.086940784460   110.07657056    55.11034346
 H      2   1   3     1.092471946129   110.29551226   241.13715959
 H      2   1   3     1.090040663877   111.68122649   121.62195628
 H      6   5   3     1.090335372209   104.54762678   206.20418252
 H      6   5   3     1.094256435813   108.61267861   324.03723959
 H      7   6   5     1.086669508234   110.13686192    55.90213400
 H      7   6   5     1.085063745884   109.36783421   176.06965098
 H      7   6   5     1.087781411739   110.00118781   295.68374582

---------------------------
INTERNAL COORDINATES (A.U.)
---------------------------
 C      0   0   0     0.000000000000     0.00000000     0.00000000
 C      1   0   0     2.877912575326     0.00000000     0.00000000
 C      2   1   0     2.848725100553   112.14920900     0.00000000
 O      3   2   1     2.290606121182   125.38325295   343.10498181
 O      3   2   1     2.514093524566   111.02453505   164.33396014
 C      5   3   2     2.716825652985   118.40180083   179.50163878
 C      6   5   3     2.874432950251   111.16387520    85.92243595
 H      1   2   3     2.051147160065   110.19493979   175.52424462
 H      1   2   3     2.053960223454   110.46580856   295.96259843
 H      1   2   3     2.054020406419   110.07657056    55.11034346
 H      2   1   3     2.064472787176   110.29551226   241.13715959
 H      2   1   3     2.059878329565   111.68122649   121.62195628
 H      6   5   3     2.060435247602   104.54762678   206.20418252
 H      6   5   3     2.067844983968   108.61267861   324.03723959
 H      7   6   5     2.053507768646   110.13686192    55.90213400
 H      7   6   5     2.050473317567   109.36783421   176.06965098
 H      7   6   5     2.055608961757   110.00118781   295.68374582

---------------------
BASIS SET INFORMATION
---------------------
There are 3 groups of distinct atoms

 Group   1 Type C   : 7s4p1d contracted to 3s2p1d pattern {511/31/1}
 Group   2 Type O   : 7s4p1d contracted to 3s2p1d pattern {511/31/1}
 Group   3 Type H   : 4s contracted to 2s pattern {31}

Atom   0C    basis set group =>   1
Atom   1C    basis set group =>   1
Atom   2C    basis set group =>   1
Atom   3O    basis set group =>   2
Atom   4O    basis set group =>   2
Atom   5C    basis set group =>   1
Atom   6C    basis set group =>   1
Atom   7H    basis set group =>   3
Atom   8H    basis set group =>   3
Atom   9H    basis set group =>   3
Atom  10H    basis set group =>   3
Atom  11H    basis set group =>   3
Atom  12H    basis set group =>   3
Atom  13H    basis set group =>   3
Atom  14H    basis set group =>   3
Atom  15H    basis set group =>   3
Atom  16H    basis set group =>   3
---------------------------------
AUXILIARY/J BASIS SET INFORMATION
---------------------------------
There are 3 groups of distinct atoms

 Group   1 Type C   : 12s5p4d2f1g contracted to 6s4p3d1f1g pattern {711111/2111/211/2/1}
 Group   2 Type O   : 12s5p4d2f1g contracted to 6s4p3d1f1g pattern {711111/2111/211/2/1}
 Group   3 Type H   : 5s2p1d contracted to 3s1p1d pattern {311/2/1}

Atom   0C    basis set group =>   1
Atom   1C    basis set group =>   1
Atom   2C    basis set group =>   1
Atom   3O    basis set group =>   2
Atom   4O    basis set group =>   2
Atom   5C    basis set group =>   1
Atom   6C    basis set group =>   1
Atom   7H    basis set group =>   3
Atom   8H    basis set group =>   3
Atom   9H    basis set group =>   3
Atom  10H    basis set group =>   3
Atom  11H    basis set group =>   3
Atom  12H    basis set group =>   3
Atom  13H    basis set group =>   3
Atom  14H    basis set group =>   3
Atom  15H    basis set group =>   3
Atom  16H    basis set group =>   3
------------------------------------------------------------------------------
                             ORCA STARTUP CALCULATIONS
                           -- RI-GTO INTEGRALS CHOSEN --
------------------------------------------------------------------------------
------------------------------------------------------------------------------
                   ___                                                        
                  /   \      - P O W E R E D   B Y -                         
                 /     \                                                     
                 |  |  |   _    _      __       _____    __    __             
                 |  |  |  | |  | |    /  \     |  _  \  |  |  /  |          
                  \  \/   | |  | |   /    \    | | | |  |  | /  /          
                 / \  \   | |__| |  /  /\  \   | |_| |  |  |/  /          
                |  |  |   |  __  | /  /__\  \  |    /   |      \           
                |  |  |   | |  | | |   __   |  |    \   |  |\   \          
                \     /   | |  | | |  |  |  |  | |\  \  |  | \   \       
                 \___/    |_|  |_| |__|  |__|  |_| \__\ |__|  \__/        
                                                                              
                      - O R C A' S   B I G   F R I E N D -                    
                                      &                                       
                       - I N T E G R A L  F E E D E R -                       
                                                                              
 v1 FN, 2020, v2 2021, v3 2022-2024                                           
------------------------------------------------------------------------------


----------------------
SHARK INTEGRAL PACKAGE
----------------------

Number of atoms                             ...     17
Number of basis functions                   ...    118
Number of shells                            ...     62
Maximum angular momentum                    ...      2
Integral batch strategy                     ... SHARK/LIBINT Hybrid
RI-J (if used) integral strategy            ... SPLIT-RIJ (Revised 2003 algorithm where possible)
Printlevel                                  ...      1
Contraction scheme used                     ... SEGMENTED contraction
Prescreening option                         ... SCHWARTZ
   Thresh                                   ... 1.000e-09
   Tcut                                     ... 1.000e-10
   Tpresel                                  ... 1.000e-10 
Coulomb Range Separation                    ... NOT USED
Exchange Range Separation                   ... NOT USED
Multipole approximations                    ... NOT USED
Finite Nucleus Model                        ... NOT USED
CABS basis                                  ... NOT available
Auxiliary Coulomb fitting basis             ... AVAILABLE
   # of basis functions in Aux-J            ...    453
   # of shells in Aux-J                     ...    155
   Maximum angular momentum in Aux-J        ...      4
Auxiliary J/K fitting basis                 ... NOT available
Auxiliary Correlation fitting basis         ... NOT available
Auxiliary 'external' fitting basis          ... NOT available

Checking pre-screening integrals            ... done (  0.0 sec) Dimension = 62
Check shell pair data                       ... done (  0.0 sec)
Shell pair information
Shell pair cut-off parameter TPreSel        ...   1.0e-10
Total number of shell pairs                 ...      1953
Shell pairs after pre-screening             ...      1838
Total number of primitive shell pairs       ...      7871
Primitive shell pairs kept                  ...      5215
          la=0 lb=0:    793 shell pairs
          la=1 lb=0:    558 shell pairs
          la=1 lb=1:    104 shell pairs
          la=2 lb=0:    261 shell pairs
          la=2 lb=1:     96 shell pairs
          la=2 lb=2:     26 shell pairs

Calculating one electron integrals          ... done (  0.0 sec)
Calculating RI/J V-Matrix + Cholesky decomp.... done (  0.1 sec)
Calculating Nuclear repulsion               ... done (  0.0 sec) ENN=    317.291855644128 Eh

Diagonalization of the overlap matrix:
Smallest eigenvalue                        ... 1.920e-03
Time for diagonalization                   ...    0.001 sec
Threshold for overlap eigenvalues          ... 1.000e-07
Number of eigenvalues below threshold      ... 0
Time for construction of square roots      ...    0.022 sec
Total time needed                          ...    0.037 sec

-------------------
DFT GRID GENERATION
-------------------

General Integration Accuracy     IntAcc      ... 4.159
Radial Grid Type                 RadialGrid  ... OptM3 with GC (2021)
Angular Grid (max. ang.)         AngularGrid ... 3 (Lebedev-194)
Angular grid pruning method      GridPruning ... 4 (adaptive)
Weight generation scheme         WeightScheme... mBecke (2022)
Basis function cutoff            BFCut       ... 1.0000e-10
Integration weight cutoff        WCut        ... 1.0000e-14
Partially contracted basis set               ... off
Rotationally invariant grid construction     ... off
Angular grids for H and He will be reduced by one unit

Total number of grid points                  ...    37120
Total number of batches                      ...      588
Average number of points per batch           ...       63
Average number of grid points per atom       ...     2184
Initializing property integral containers    ... done (  0.0 sec)

SHARK setup successfully completed in   0.7 seconds

Maximum memory used throughout the entire STARTUP-calculation: 18.3 MB
-------------------------------------------------------------------------------
                                 ORCA GUESS
                   Start orbitals & Density for SCF / CASSCF
-------------------------------------------------------------------------------

------------
SCF SETTINGS
------------
Hamiltonian:
 Density Functional     Method          .... DFT(GTOs)
 Exchange Functional    Exchange        .... PBE
   PBE kappa parameter   XKappa         ....  0.804000
   PBE mue parameter    XMuePBE         ....  0.219520
 Correlation Functional Correlation     .... PBE
   PBE beta parameter  CBetaPBE         ....  0.066725
 LDA part of GGA corr.  LDAOpt          .... PW91-LDA
 Gradients option       PostSCFGGA      .... off
   NL short-range parameter             ....  6.400000
 RI-approximation to the Coulomb term is turned on
   Number of AuxJ basis functions       .... 453


General Settings:
 Integral files         IntName         .... sp
 Hartree-Fock type      HFTyp           .... RHF
 Total Charge           Charge          ....    0
 Multiplicity           Mult            ....    1
 Number of Electrons    NEL             ....   56
 Basis Dimension        Dim             ....  118
 Nuclear Repulsion      ENuc            ....    317.2918556441 Eh

Convergence Acceleration:
 AO-DIIS                CNVDIIS         .... on
   Start iteration      DIISMaxIt       ....    12
   Startup error        DIISStart       ....  0.200000
   # of expansion vecs  DIISMaxEq       ....     5
   Bias factor          DIISBfac        ....   1.050
   Max. coefficient     DIISMaxC        ....  10.000
 MO-DIIS                CNVKDIIS        .... off
 Trust-Rad. Augm. Hess. CNVTRAH         .... auto
   Auto Start mean grad. ratio tolernc. ....  1.125000
   Auto Start start iteration           ....    50
   Auto Start num. interpolation iter.  ....    10
   Max. Number of Micro iterations      ....    24
   Max. Number of Macro iterations      .... Maxiter - #DIIS iter
   Number of Davidson start vectors     ....     2
   Converg. threshold    (grad. norm)   ....   1.000e-04
   Grad. Scal. Fac. for Micro threshold ....   0.100
   Minimum threshold for Micro iter.    ....   1.000e-02
   NR start threshold (gradient norm)   ....   1.000e-04
   Initial trust radius                 ....   0.400
   Minimum AH scaling param. (alpha)    ....   1.000
   Maximum AH scaling param. (alpha)    .... 1000.000
   Quad. conv. algorithm                .... NR
   White noise on init. David. guess    .... on
   Maximum white noise                  ....   0.010
   Pseudo random numbers                .... off
   Inactive MOs                         .... canonical
   Orbital update algorithm             .... Taylor
   Preconditioner                       .... Diag
   Full preconditioner red. dimension   ....   250
 SOSCF                  CNVSOSCF        .... on
   Start iteration      SOSCFMaxIt      ....   150
   Startup grad/error   SOSCFStart      ....  0.003300
   Hessian update       SOSCFHessUp     .... L-BFGS
 Level Shifting         CNVShift        .... on
   Level shift para.    LevelShift      ....    0.2500
   Turn off err/grad.   ShiftErr        ....    0.0010
 Zerner damping         CNVZerner       .... off
 Static damping         CNVDamp         .... on
   Fraction old density DampFac         ....    0.7000
   Max. Damping (<1)    DampMax         ....    0.9800
   Min. Damping (>=0)   DampMin         ....    0.0000
   Turn off err/grad.   DampErr         ....    0.1000

SCF Procedure:
 Maximum # iterations   MaxIter         ....   125
 SCF integral mode      SCFMode         .... Direct
   Integral package                     .... SHARK and LIBINT hybrid scheme
 Reset frequency        DirectResetFreq ....    20
 Integral Threshold     Thresh          ....  1.000e-09 Eh
 Primitive CutOff       TCut            ....  1.000e-10 Eh

Convergence Tolerance:
 Convergence Check Mode ConvCheckMode   .... Total+1el-Energy
 Convergence forced     ConvForced      .... 0
 Energy Change          TolE            ....  1.000e-05 Eh
 1-El. energy change                    ....  1.000e-02 Eh
 Orbital Gradient       TolG            ....  1.000e-04
 Orbital Rotation angle TolX            ....  1.000e-04
 DIIS Error             TolErr          ....  5.000e-04

------------------------------
INITIAL GUESS: MODEL POTENTIAL
------------------------------
Loading Hartree-Fock densities                     ... done
Calculating cut-offs                               ... done
Initializing the effective Hamiltonian             ... done
Setting up the integral package (SHARK)            ... done
Starting the Coulomb interaction                   ... done (   0.1 sec)
Making the grid                                    ... done (   0.2 sec)
Mapping shells                                     ... done
Starting the XC term evaluation                    ... done (   0.1 sec)
  promolecular density results
     # of electrons  =     55.998559776
     EX              =    -44.831871716
     EC              =     -1.842863057
     EX+EC           =    -46.674734772
Transforming the Hamiltonian                       ... done (   0.0 sec)
Diagonalizing the Hamiltonian                      ... done (   0.0 sec)
Back transforming the eigenvectors                 ... done (   0.0 sec)
Now organizing SCF variables                       ... done
                      ------------------
                      INITIAL GUESS DONE (   0.4 sec)
                      ------------------
             **** ENERGY FILE WAS UPDATED (sp.en.tmp) ****
Finished Guess after   0.6 sec
Maximum memory used throughout the entire GUESS-calculation: 14.0 MB

-------------------------------------------------------------------------------------------
                                      ORCA LEAN-SCF
                              memory conserving SCF solver
-------------------------------------------------------------------------------------------

----------------------------------------D-I-I-S--------------------------------------------
Iteration    Energy (Eh)           Delta-E    RMSDP     MaxDP     DIISErr   Damp  Time(sec)
-------------------------------------------------------------------------------------------
               ***  Starting incremental Fock matrix formation  ***
    1    -346.0913080848906134     0.00e+00  5.58e-03  1.17e-01  2.46e-01  0.700   0.8
    2    -346.2026461236197861    -1.11e-01  3.41e-03  7.06e-02  7.38e-02  0.700   0.8
                               ***Turning on AO-DIIS***
    3    -346.2361829002533682    -3.35e-02  1.33e-03  1.45e-02  2.47e-02  0.700   0.7
    4    -346.2584619409608990    -2.23e-02  1.87e-03  2.18e-02  1.84e-02  0.000   0.7
    5    -346.3102592339745911    -5.18e-02  6.06e-04  9.93e-03  8.65e-03  0.000   0.7
                              *** Initializing SOSCF ***
---------------------------------------S-O-S-C-F--------------------------------------
Iteration    Energy (Eh)           Delta-E    RMSDP     MaxDP     MaxGrad    Time(sec)
--------------------------------------------------------------------------------------
    6    -346.3109193992341375    -6.60e-04  2.23e-04  2.68e-03  3.15e-03     0.7
               *** Restarting incremental Fock matrix formation ***
    7    -346.3109653420269183    -4.59e-05  1.74e-04  2.94e-03  5.80e-04     0.7
    8    -346.3109448167230653     2.05e-05  1.01e-04  2.42e-03  1.84e-03     0.6
    9    -346.3109719426888091    -2.71e-05  7.47e-05  1.18e-03  3.22e-04     0.6
   10    -346.3109678865496903     4.06e-06  4.60e-05  8.62e-04  5.11e-04     0.6
                 **** Energy Check signals convergence ****

               *****************************************************
               *                     SUCCESS                       *
               *           SCF CONVERGED AFTER  10 CYCLES          *
               *****************************************************

             **** ENERGY FILE WAS UPDATED (sp.en.tmp) ****

----------------
TOTAL SCF ENERGY
----------------

Total Energy       :       -346.31096788654969 Eh           -9423.60052 eV

Components:
Nuclear Repulsion  :        317.29185564412802 Eh            8633.95033 eV
Electronic Energy  :       -663.60282353067771 Eh          -18057.55086 eV
One Electron Energy:      -1099.27845170180217 Eh          -29912.88741 eV
Two Electron Energy:        435.67562817112446 Eh           11855.33656 eV

Virial components:
Potential Energy   :       -689.86010644903786 Eh          -18772.04785 eV
Kinetic Energy     :        343.54913856248811 Eh            9348.44733 eV
Virial Ratio       :          2.00803911002548

DFT components:
N(Alpha)           :       28.000189998069 electrons
N(Beta)            :       28.000189998069 electrons
N(Total)           :       56.000379996137 electrons
E(X)               :      -45.739420230671 Eh       
E(C)               :       -1.859646552079 Eh       
E(XC)              :      -47.599066782751 Eh       

---------------
SCF CONVERGENCE
---------------

  Last Energy change         ...   -4.0561e-06  Tolerance :   1.0000e-05
  Last MAX-Density change    ...    8.6209e-04  Tolerance :   1.0000e-03
  Last RMS-Density change    ...    4.6014e-05  Tolerance :   1.0000e-04
  Last DIIS Error            ...    3.1469e-03  Tolerance :   5.0000e-04
  Last Orbital Gradient      ...    5.1133e-04  Tolerance :   1.0000e-04
  Last Orbital Rotation      ...    4.1146e-04  Tolerance :   1.0000e-04


----------------
ORBITAL ENERGIES
----------------

  NO   OCC          E(Eh)            E(eV) 
   0   2.0000     -18.795510      -511.4518 
   1   2.0000     -18.733088      -509.7532 
   2   2.0000     -10.005471      -272.2627 
   3   2.0000      -9.945862      -270.6407 
   4   2.0000      -9.899844      -269.3885 
   5   2.0000      -9.886177      -269.0165 
   6   2.0000      -9.878278      -268.8016 
   7   2.0000      -1.002732       -27.2857 
   8   2.0000      -0.909630       -24.7523 
   9   2.0000      -0.718019       -19.5383 
  10   2.0000      -0.685984       -18.6666 
  11   2.0000      -0.608530       -16.5589 
  12   2.0000      -0.557293       -15.1647 
  13   2.0000      -0.491705       -13.3800 
  14   2.0000      -0.451391       -12.2830 
  15   2.0000      -0.434117       -11.8129 
  16   2.0000      -0.421978       -11.4826 
  17   2.0000      -0.392519       -10.6810 
  18   2.0000      -0.387276       -10.5383 
  19   2.0000      -0.358735        -9.7617 
  20   2.0000      -0.347186        -9.4474 
  21   2.0000      -0.338680        -9.2160 
  22   2.0000      -0.324887        -8.8406 
  23   2.0000      -0.317133        -8.6296 
  24   2.0000      -0.304653        -8.2900 
  25   2.0000      -0.289141        -7.8679 
  26   2.0000      -0.255343        -6.9482 
  27   2.0000      -0.219432        -5.9711 
  28   0.0000      -0.018640        -0.5072 
  29   0.0000       0.040781         1.1097 
  30   0.0000       0.058823         1.6007 
  31   0.0000       0.080344         2.1863 
  32   0.0000       0.090443         2.4611 
  33   0.0000       0.095437         2.5970 
  34   0.0000       0.098465         2.6794 
  35   0.0000       0.106238         2.8909 
  36   0.0000       0.113760         3.0956 
  37   0.0000       0.127177         3.4607 
  38   0.0000       0.134469         3.6591 
*Only the first 10 virtual orbitals were printed.

                    ********************************
                    * MULLIKEN POPULATION ANALYSIS *
                    ********************************

-----------------------
MULLIKEN ATOMIC CHARGES
-----------------------
   0 C :   -0.270421
   1 C :   -0.186948
   2 C :    0.112224
   3 O :   -0.208165
   4 O :   -0.242048
   5 C :   -0.011775
   6 C :   -0.303582
   7 H :    0.101803
   8 H :    0.108212
   9 H :    0.117795
  10 H :    0.117934
  11 H :    0.108688
  12 H :    0.100461
  13 H :    0.106314
  14 H :    0.111927
  15 H :    0.111365
  16 H :    0.126218
Sum of atomic charges:   -0.0000000

--------------------------------
MULLIKEN REDUCED ORBITAL CHARGES
--------------------------------
  0 C s       :     3.095436  s :     3.095436
      pz      :     1.084029  p :     3.146142
      px      :     1.025933
      py      :     1.036179
      dz2     :     0.005279  d :     0.028844
      dxz     :     0.002455
      dyz     :     0.009183
      dx2y2   :     0.004569
      dxy     :     0.007358

  1 C s       :     3.017814  s :     3.017814
      pz      :     1.055760  p :     3.135129
      px      :     1.000975
      py      :     1.078394
      dz2     :     0.005161  d :     0.034005
      dxz     :     0.004686
      dyz     :     0.010153
      dx2y2   :     0.006689
      dxy     :     0.007317

  2 C s       :     3.053092  s :     3.053092
      pz      :     0.858079  p :     2.703864
      px      :     0.931716
      py      :     0.914069
      dz2     :     0.008422  d :     0.130820
      dxz     :     0.012075
      dyz     :     0.025929
      dx2y2   :     0.029911
      dxy     :     0.054483

  3 O s       :     3.753247  s :     3.753247
      pz      :     1.392314  p :     4.437345
      px      :     1.728430
      py      :     1.316602
      dz2     :     0.002099  d :     0.017573
      dxz     :     0.000189
      dyz     :     0.005566
      dx2y2   :     0.005800
      dxy     :     0.003918

  4 O s       :     3.733461  s :     3.733461
      pz      :     1.699213  p :     4.492608
      px      :     1.189096
      py      :     1.604300
      dz2     :     0.002037  d :     0.015979
      dxz     :     0.002443
      dyz     :     0.002196
      dx2y2   :     0.002987
      dxy     :     0.006316

  5 C s       :     3.073229  s :     3.073229
      pz      :     1.080970  p :     2.879527
      px      :     0.781371
      py      :     1.017186
      dz2     :     0.008671  d :     0.059019
      dxz     :     0.011332
      dyz     :     0.011856
      dx2y2   :     0.012171
      dxy     :     0.014989

  6 C s       :     3.100886  s :     3.100886
      pz      :     1.038370  p :     3.174785
      px      :     1.055315
      py      :     1.081100
      dz2     :     0.004977  d :     0.027912
      dxz     :     0.003801
      dyz     :     0.009276
      dx2y2   :     0.004774
      dxy     :     0.005085

  7 H s       :     0.898197  s :     0.898197

  8 H s       :     0.891788  s :     0.891788

  9 H s       :     0.882205  s :     0.882205

 10 H s       :     0.882066  s :     0.882066

 11 H s       :     0.891312  s :     0.891312

 12 H s       :     0.899539  s :     0.899539

 13 H s       :     0.893686  s :     0.893686

 14 H s       :     0.888073  s :     0.888073

 15 H s       :     0.888635  s :     0.888635

 16 H s       :     0.873782  s :     0.873782


------------------------
MULLIKEN OVERLAP CHARGES
------------------------
B(  0-C ,  1-C ) :   0.7346 B(  0-C ,  7-H ) :   0.7306 B(  0-C ,  8-H ) :   0.7764 
B(  0-C ,  9-H ) :   0.7488 B(  1-C ,  2-C ) :   0.4661 B(  1-C ,  3-O ) :  -0.2475 
B(  1-C ,  4-O ) :  -0.2762 B(  1-C ,  8-H ) :  -0.0563 B(  1-C , 10-H ) :   0.6118 
B(  1-C , 11-H ) :   0.6260 B(  2-C ,  3-O ) :   1.3813 B(  2-C ,  4-O ) :   0.7586 
B(  2-C ,  5-C ) :  -0.0600 B(  3-O ,  4-O ) :  -0.1660 B(  3-O , 13-H ) :   0.0514 
B(  4-O ,  5-C ) :   0.5285 B(  4-O ,  6-C ) :  -0.0792 B(  4-O , 12-H ) :  -0.0552 
B(  4-O , 13-H ) :  -0.0649 B(  5-C ,  6-C ) :   0.9426 B(  5-C , 12-H ) :   0.7362 
B(  5-C , 13-H ) :   0.7100 B(  6-C , 12-H ) :  -0.0567 B(  6-C , 13-H ) :  -0.0622 
B(  6-C , 14-H ) :   0.7383 B(  6-C , 15-H ) :   0.7110 B(  6-C , 16-H ) :   0.7448 
B( 12-H , 13-H ) :  -0.0630 B( 14-H , 16-H ) :  -0.0529 


                     *******************************
                     * LOEWDIN POPULATION ANALYSIS *
                     *******************************

----------------------
LOEWDIN ATOMIC CHARGES
----------------------
   0 C :   -0.337133
   1 C :   -0.259007
   2 C :    0.038520
   3 O :   -0.168254
   4 O :   -0.072861
   5 C :   -0.112736
   6 C :   -0.356388
   7 H :    0.120468
   8 H :    0.123349
   9 H :    0.127313
  10 H :    0.143514
  11 H :    0.134831
  12 H :    0.116374
  13 H :    0.118418
  14 H :    0.123743
  15 H :    0.129744
  16 H :    0.130104

-------------------------------
LOEWDIN REDUCED ORBITAL CHARGES
-------------------------------
  0 C s       :     2.942931  s :     2.942931
      pz      :     1.133721  p :     3.323804
      px      :     1.082503
      py      :     1.107580
      dz2     :     0.013215  d :     0.070398
      dxz     :     0.005393
      dyz     :     0.021721
      dx2y2   :     0.010577
      dxy     :     0.019491

  1 C s       :     2.913768  s :     2.913768
      pz      :     1.104682  p :     3.259853
      px      :     1.060441
      py      :     1.094730
      dz2     :     0.012741  d :     0.085386
      dxz     :     0.010369
      dyz     :     0.024421
      dx2y2   :     0.015209
      dxy     :     0.022647

  2 C s       :     2.847488  s :     2.847488
      pz      :     0.841551  p :     2.817255
      px      :     0.960040
      py      :     1.015664
      dz2     :     0.019247  d :     0.296736
      dxz     :     0.023203
      dyz     :     0.050801
      dx2y2   :     0.072282
      dxy     :     0.131203

  3 O s       :     3.550447  s :     3.550447
      pz      :     1.396694  p :     4.586778
      px      :     1.732482
      py      :     1.457603
      dz2     :     0.004188  d :     0.031029
      dxz     :     0.000281
      dyz     :     0.007825
      dx2y2   :     0.012472
      dxy     :     0.006263

  4 O s       :     3.451397  s :     3.451397
      pz      :     1.682693  p :     4.589003
      px      :     1.261650
      py      :     1.644660
      dz2     :     0.004297  d :     0.032461
      dxz     :     0.004689
      dyz     :     0.002565
      dx2y2   :     0.006943
      dxy     :     0.013967

  5 C s       :     2.924441  s :     2.924441
      pz      :     1.107202  p :     3.056742
      px      :     0.858654
      py      :     1.090886
      dz2     :     0.018708  d :     0.131554
      dxz     :     0.026284
      dyz     :     0.028677
      dx2y2   :     0.024804
      dxy     :     0.033080

  6 C s       :     2.952057  s :     2.952057
      pz      :     1.092574  p :     3.335624
      px      :     1.115060
      py      :     1.127990
      dz2     :     0.012615  d :     0.068707
      dxz     :     0.009928
      dyz     :     0.022496
      dx2y2   :     0.011138
      dxy     :     0.012530

  7 H s       :     0.879532  s :     0.879532

  8 H s       :     0.876651  s :     0.876651

  9 H s       :     0.872687  s :     0.872687

 10 H s       :     0.856486  s :     0.856486

 11 H s       :     0.865169  s :     0.865169

 12 H s       :     0.883626  s :     0.883626

 13 H s       :     0.881582  s :     0.881582

 14 H s       :     0.876257  s :     0.876257

 15 H s       :     0.870256  s :     0.870256

 16 H s       :     0.869896  s :     0.869896


---------------------------------
LOEWDIN BOND ORDERS (THRESH 0.050000)
---------------------------------
B(  0-C ,  1-C ) :   1.1228 B(  0-C ,  2-C ) :   0.0601 B(  0-C ,  7-H ) :   0.9377 
B(  0-C ,  8-H ) :   0.9417 B(  0-C ,  9-H ) :   0.9372 B(  1-C ,  2-C ) :   1.0624 
B(  1-C ,  3-O ) :   0.0944 B(  1-C ,  4-O ) :   0.0747 B(  1-C , 10-H ) :   0.8836 
B(  1-C , 11-H ) :   0.8932 B(  2-C ,  3-O ) :   2.2004 B(  2-C ,  4-O ) :   1.3982 
B(  2-C ,  5-C ) :   0.0753 B(  3-O ,  4-O ) :   0.2056 B(  4-O ,  5-C ) :   1.0758 
B(  4-O ,  6-C ) :   0.0540 B(  5-C ,  6-C ) :   1.1499 B(  5-C , 12-H ) :   0.9206 
B(  5-C , 13-H ) :   0.9076 B(  6-C , 14-H ) :   0.9387 B(  6-C , 15-H ) :   0.9303 
B(  6-C , 16-H ) :   0.9353 

------------------------------------------
LOEWDIN REDUCED ORBITAL POPULATIONS PER MO
-------------------------------------------
THRESHOLD FOR PRINTING IS 0.1%%
                      0         1         2         3         4         5   
                 -18.79551 -18.73309 -10.00547  -9.94586  -9.89984  -9.88618
                   2.00000   2.00000   2.00000   2.00000   2.00000   2.00000
                  --------  --------  --------  --------  --------  --------
 1 C  s               0.0       0.0       0.0       0.0      99.6       0.0
 2 C  s               0.0       0.0      99.3       0.0       0.0       0.0
 3 O  s               0.0      99.9       0.0       0.0       0.0       0.0
 3 O  py              0.0       0.0       0.3       0.0       0.0       0.0
 4 O  s              99.9       0.0       0.0       0.0       0.0       0.0
 4 O  px              0.0       0.0       0.1       0.1       0.0       0.0
 5 C  s               0.0       0.0       0.0      99.7       0.0       0.0
 6 C  s               0.0       0.0       0.0       0.0       0.0      99.7

                      6         7         8         9        10        11   
                  -9.87828  -1.00273  -0.90963  -0.71802  -0.68598  -0.60853
                   2.00000   2.00000   2.00000   2.00000   2.00000   2.00000
                  --------  --------  --------  --------  --------  --------
 0 C  s              99.7       0.1       0.1       8.2      12.7      11.5
 0 C  pz              0.0       0.0       0.0       0.1       0.1       0.0
 0 C  px              0.0       0.1       0.1       1.2       0.7       0.3
 0 C  py              0.0       0.0       0.0       0.7       0.5       0.1
 1 C  s               0.0       1.0       0.3      19.2      11.9       0.3
 1 C  pz              0.0       0.1       0.0       0.0       0.1       0.3
 1 C  px              0.1       1.5       0.0       0.1       1.6       6.8
 1 C  py              0.0       0.3       0.5       0.3       0.5       0.7
 1 C  dxy             0.0       0.0       0.0       0.0       0.0       0.2
 2 C  s               0.0      18.8       4.9       4.7       0.2       3.9
 2 C  pz              0.0       0.1       0.5       0.4       0.1       0.2
 2 C  px              0.0       5.0       2.0       3.4       4.6       0.1
 2 C  py              0.0       0.1      21.8       7.2       0.1       3.6
 2 C  dz2             0.0       0.6       0.1       0.0       0.0       0.0
 2 C  dyz             0.0       0.0       0.2       0.0       0.0       0.0
 2 C  dx2y2           0.0       0.0       1.3       0.1       0.0       0.0
 2 C  dxy             0.0       0.4       0.4       0.0       0.2       0.0
 3 O  s               0.0      11.8      41.1       1.9       0.1       0.6
 3 O  pz              0.0       0.1       0.2       0.0       0.0       0.0
 3 O  px              0.0       0.0       0.1       0.1       0.1       0.0
 3 O  py              0.0       2.7       4.1       0.2       0.0       0.3
 3 O  dx2y2           0.0       0.1       0.1       0.0       0.0       0.0
 4 O  s               0.0      40.6      16.0       0.1       1.4       0.8
 4 O  pz              0.0       0.1       0.0       0.1       0.0       0.7
 4 O  px              0.0       0.2       0.4      10.5       3.8      14.8
 4 O  py              0.0       2.9       0.2       0.0       0.1       0.2
 4 O  dxy             0.0       0.0       0.0       0.1       0.1       0.1
 5 C  s               0.0       4.7       2.4      11.5      12.5       1.3
 5 C  pz              0.0       0.2       0.1       0.5       1.2       3.0
 5 C  px              0.0       4.9       1.2       0.2       1.8       3.9
 5 C  py              0.0       0.4       0.5       0.0       0.3       2.9
 5 C  dz2             0.0       0.1       0.0       0.0       0.0       0.2
 5 C  dxz             0.0       0.0       0.0       0.0       0.0       0.1
 5 C  dx2y2           0.0       0.2       0.1       0.0       0.0       0.0
 5 C  dxy             0.0       0.1       0.1       0.0       0.0       0.0
 6 C  s               0.0       0.3       0.2       7.2      16.5      16.4
 6 C  pz              0.0       0.2       0.1       0.9       1.0       0.5
 6 C  px              0.0       0.2       0.1       0.2       0.1       0.4
 6 C  py              0.0       0.1       0.1       0.2       0.2       0.3
 7 H  s               0.1       0.0       0.0       1.5       2.5       3.4
 8 H  s               0.1       0.0       0.0       1.5       2.5       3.1
 9 H  s               0.1       0.0       0.0       1.4       2.5       3.1
10 H  s               0.0       0.2       0.0       3.8       2.4       0.2
11 H  s               0.0       0.2       0.0       3.9       2.2       0.2
12 H  s               0.0       0.5       0.3       2.3       2.9       0.7
13 H  s               0.0       0.8       0.1       2.1       2.3       0.3
14 H  s               0.0       0.1       0.0       1.3       3.3       4.4
15 H  s               0.0       0.0       0.0       1.3       3.5       5.3
16 H  s               0.0       0.1       0.0       1.3       3.2       4.6

                     12        13        14        15        16        17   
                  -0.55729  -0.49170  -0.45139  -0.43412  -0.42198  -0.39252
                   2.00000   2.00000   2.00000   2.00000   2.00000   2.00000
                  --------  --------  --------  --------  --------  --------
 0 C  s              13.4       0.8       0.1       0.0       0.0       0.0
 0 C  pz              0.4       0.1       0.0       4.8       3.4       4.1
 0 C  px              3.1       0.7       0.3       1.9       1.5       3.8
 0 C  py              1.6       0.7       7.4       0.0       1.1       1.8
 1 C  s               8.1       1.2       2.3       0.0       0.0       0.0
 1 C  pz              0.8       0.0       0.1      17.4       6.1       4.9
 1 C  px              3.3       0.4       7.9       1.3       0.1       2.3
 1 C  py              2.0       0.8      14.1       0.3       8.2       1.0
 1 C  dz2             0.0       0.0       0.2       0.0       0.0       0.0
 1 C  dxy             0.1       0.0       0.1       0.0       0.1       0.0
 2 C  s               0.4       2.0       2.6       0.2       1.4       0.6
 2 C  pz              0.0       0.3       0.7      19.2       0.6       0.1
 2 C  px              7.2       2.0       8.8       0.1       2.7       2.7
 2 C  py              0.4       1.4       0.4       0.6       0.7       0.7
 2 C  dxz             0.0       0.0       0.0       0.0       0.0       0.2
 2 C  dx2y2           0.0       0.0       0.0       0.0       0.5       0.0
 2 C  dxy             0.4       0.0       0.1       0.0       0.1       0.0
 3 O  s               0.0       1.4       0.7       0.4       7.8       1.7
 3 O  pz              0.0       0.1       0.5       6.9       0.1       0.5
 3 O  px              0.5       0.8       6.0       0.2       0.8       0.7
 3 O  py              0.0       1.1       0.9       0.1      11.0       6.1
 3 O  dyz             0.0       0.0       0.0       0.1       0.0       0.0
 4 O  s               0.6       3.9       0.5       0.6       0.8       0.9
 4 O  pz              0.6       1.5       0.4      13.7       0.6       6.4
 4 O  px              4.3      13.3       0.1       0.7       5.2       0.4
 4 O  py              0.7       5.9       7.0       3.3       7.3       3.9
 5 C  s               6.1       6.2       0.2       0.4       0.1       0.3
 5 C  pz              3.1       9.9       0.0       2.8       0.5       7.6
 5 C  px              0.0       5.5       4.0       0.1       9.3       3.7
 5 C  py              1.0       7.6       9.3       1.6       4.6       2.3
 5 C  dx2y2           0.0       0.1       0.0       0.0       0.0       0.0
 5 C  dxy             0.0       0.4       0.0       0.0       0.1       0.2
 6 C  s               4.7       1.2       0.0       0.4       0.0       0.2
 6 C  pz              2.2       7.3       0.0       1.3       0.5       0.9
 6 C  px              0.2       0.0       1.1       5.3       4.6       1.1
 6 C  py              0.5       0.2       2.9       0.1       2.1      17.8
 6 C  dz2             0.0       0.1       0.0       0.0       0.0       0.1
 7 H  s               5.4       0.4       0.6       0.4       1.4       2.0
 8 H  s               5.1       0.5       1.1       1.2       0.4       2.9
 9 H  s               4.6       0.5       1.3       1.4       0.8       0.2
10 H  s               3.8       0.8       5.3       5.5       0.1       3.0
11 H  s               3.0       1.0       4.5       3.4       5.5       0.7
12 H  s               3.9       2.8       4.6       0.5       6.0       1.3
13 H  s               2.1      12.6       1.7       0.0       0.3       3.2
14 H  s               1.9       3.1       0.4       0.6       0.1       1.5
15 H  s               1.8       0.1       0.0       2.5       0.9       2.8
16 H  s               2.3       0.9       1.3       0.0       2.1       4.7

                     18        19        20        21        22        23   
                  -0.38728  -0.35873  -0.34719  -0.33868  -0.32489  -0.31713
                   2.00000   2.00000   2.00000   2.00000   2.00000   2.00000
                  --------  --------  --------  --------  --------  --------
 0 C  s               0.0       0.0       0.0       0.0       0.1       0.0
 0 C  pz              6.6       4.9       3.2       9.7       0.1       0.7
 0 C  px              0.3       0.2      22.2       0.5       4.4      10.9
 0 C  py              3.1       2.0       1.4       1.3      29.0       3.7
 0 C  dz2             0.0       0.0       0.0       0.1       0.2       0.1
 0 C  dyz             0.1       0.0       0.0       0.1       0.1       0.1
 0 C  dx2y2           0.0       0.0       0.0       0.0       0.2       0.1
 0 C  dxy             0.0       0.0       0.4       0.0       0.0       0.1
 1 C  s               0.0       0.0       0.6       0.0       0.1       0.0
 1 C  pz              6.4       0.1       0.3       0.1       0.8       0.4
 1 C  px              0.4       3.2       4.3       0.4       7.5       4.9
 1 C  py              0.1       0.6       3.3       0.4      16.1       0.7
 1 C  dz2             0.0       0.0       0.0       0.1       0.1       0.1
 1 C  dxz             0.0       0.0       0.0       0.1       0.2       0.0
 1 C  dyz             0.0       0.0       0.0       0.0       0.0       0.1
 1 C  dx2y2           0.0       0.0       0.0       0.0       0.2       0.1
 1 C  dxy             0.0       0.0       0.2       0.0       0.0       0.1
 2 C  s               1.1       0.1       0.7       0.0       0.0       0.3
 2 C  pz              1.1       3.7       0.3       8.8       1.5       1.0
 2 C  px              0.7       0.1       2.4       0.3       0.3       4.4
 2 C  py              3.6       2.0       1.4       0.2       0.5       0.8
 2 C  dxz             0.1       0.0       0.0       0.0       0.0       0.0
 2 C  dyz             0.0       0.0       0.0       0.1       0.0       0.0
 2 C  dx2y2           0.0       0.0       0.4       0.0       0.0       0.1
 2 C  dxy             0.0       0.0       0.0       0.0       0.3       0.0
 3 O  s               7.2       0.5       0.9       0.0       0.2       0.4
 3 O  pz              0.1       5.2       0.0      11.2       3.3       0.0
 3 O  px              0.2       0.1       1.6       0.4       0.7       2.0
 3 O  py             23.9       1.4       6.2       0.3       0.6       2.5
 3 O  dx2y2           0.2       0.0       0.0       0.0       0.0       0.0
 4 O  s               0.4       1.4       0.2       0.0       0.5       0.0
 4 O  pz              8.0       3.1       0.2       0.1       0.1       0.0
 4 O  px              0.6       0.5       0.1       0.6       2.0       1.6
 4 O  py              1.8       0.5       8.2       0.1       1.5       0.8
 4 O  dxz             0.0       0.0       0.0       0.1       0.0       0.0
 5 C  s               0.3       0.2       0.0       0.1       0.0       0.0
 5 C  pz              3.0       0.0       0.4      14.9       0.6       0.6
 5 C  px              0.3       0.5       0.2       0.0       1.1       4.9
 5 C  py              3.8       0.1       0.0       2.6       0.1       5.1
 5 C  dz2             0.1       0.2       0.0       0.0       0.0       0.0
 5 C  dxz             0.0       0.0       0.0       0.1       0.0       0.0
 5 C  dyz             0.0       0.0       0.0       0.0       0.0       0.4
 5 C  dx2y2           0.1       0.0       0.1       0.1       0.0       0.0
 5 C  dxy             0.0       0.2       0.0       0.2       0.0       0.1
 6 C  s               0.1       0.0       0.0       0.1       0.0       0.0
 6 C  pz              4.3      10.8       0.9      17.2       0.4       0.6
 6 C  px              6.8      17.0       5.7       1.4       3.3       5.9
 6 C  py              0.4       8.7       8.3       2.4       0.0       6.7
 6 C  dxz             0.0       0.0       0.0       0.1       0.0       0.0
 6 C  dyz             0.1       0.1       0.2       0.0       0.0       0.4
 6 C  dx2y2           0.0       0.3       0.0       0.1       0.0       0.0
 6 C  dxy             0.0       0.1       0.0       0.2       0.0       0.1
 7 H  s               0.2       0.0      13.4       0.5       1.0       9.6
 8 H  s               0.7       3.3       0.0       6.1       2.1       4.0
 9 H  s               4.5       0.1       1.1       1.1      10.0       0.1
10 H  s               1.2       0.0       0.0       0.2       3.5       2.2
11 H  s               1.8       0.4       0.2       0.1       4.5       0.0
12 H  s               0.9       0.1       0.0       5.7       0.0       5.9
13 H  s               0.4       0.4       0.1       1.3       0.0       4.2
14 H  s               2.3      10.3       4.2       1.8       0.1       4.4
15 H  s               2.1      16.4       0.7       1.4       1.6       1.1
16 H  s               0.4       0.8       5.3       7.0       0.4       7.2

                     24        25        26        27        28        29   
                  -0.30465  -0.28914  -0.25534  -0.21943  -0.01864   0.04078
                   2.00000   2.00000   2.00000   2.00000   0.00000   0.00000
                  --------  --------  --------  --------  --------  --------
 0 C  s               0.0       0.0       0.0       0.2       0.4       7.1
 0 C  pz             18.0       0.2       0.2       0.1       0.1       0.2
 0 C  px              0.0       1.7       0.0       0.1       0.1       0.7
 0 C  py              0.7       0.2       0.0       0.0       0.1       0.3
 0 C  dyz             0.7       0.0       0.0       0.0       0.0       0.0
 0 C  dxy             0.1       0.0       0.0       0.0       0.0       0.1
 1 C  s               0.0       0.2       0.0       0.7       0.0       6.8
 1 C  pz             16.8       0.4       0.1       0.1       0.4       0.1
 1 C  px              0.0       3.2       0.0       3.4       0.0       0.0
 1 C  py              0.3       0.7       0.1       3.6       0.0       3.0
 1 C  dz2             0.0       0.0       0.0       0.0       0.0       0.2
 1 C  dxz             0.0       0.0       0.0       0.0       0.9       0.0
 1 C  dyz             0.8       0.1       0.0       0.0       0.9       0.0
 1 C  dxy             0.2       0.0       0.0       0.0       0.2       0.1
 2 C  s               0.1       0.8       0.0       0.3       0.0       2.0
 2 C  pz              2.9       0.1       0.4       0.0      45.7       0.1
 2 C  px              0.1       0.2       0.0       0.8       0.7       0.3
 2 C  py              0.4       4.3       0.0       0.5       1.4       1.1
 2 C  dz2             0.0       0.0       0.1       0.0       0.3       0.5
 2 C  dxz             0.1       0.1       0.4       0.2       0.3       0.0
 2 C  dyz             0.4       0.0       1.7       0.0       0.6       0.1
 2 C  dx2y2           0.1       0.7       0.1       0.0       0.0       0.3
 2 C  dxy             0.0       0.1       0.0       4.4       0.0       0.1
 3 O  s               0.2       0.9       0.0       0.0       0.0       1.0
 3 O  pz              8.8       1.4      31.2       0.4      25.0       0.0
 3 O  px              0.2       0.2       0.0      71.9       0.3       0.0
 3 O  py              3.2       6.4       1.1       0.3       0.7       0.2
 3 O  dyz             0.0       0.0       0.0       0.0       0.5       0.0
 4 O  s               0.1       3.6       0.0       0.2       0.0       0.3
 4 O  pz              0.7       2.7      45.0       0.0       8.9       0.2
 4 O  px              0.2       1.5       0.9       1.3       0.1       0.0
 4 O  py              1.6      27.4       1.3       7.3       0.4       0.0
 4 O  dxz             0.0       0.0       0.0       0.0       0.3       0.0
 4 O  dyz             0.0       0.0       0.0       0.0       0.1       0.0
 5 C  s               0.0       0.2       0.0       0.1       0.0       4.0
 5 C  pz              0.9       1.9       3.7       0.5       0.1       1.0
 5 C  px              0.2       0.3       0.1       0.5       0.1       0.3
 5 C  py              0.2      11.5       0.4       0.1       0.0       0.1
 5 C  dz2             0.0       0.2       0.0       0.0       0.0       0.0
 5 C  dxz             0.0       0.0       0.7       0.0       0.3       0.0
 5 C  dyz             0.0       0.5       0.2       0.0       0.2       0.0
 5 C  dx2y2           0.0       0.2       0.0       0.1       0.0       0.0
 5 C  dxy             0.0       0.1       0.1       0.0       0.1       0.0
 6 C  s               0.1       0.0       0.6       0.0       0.7       5.5
 6 C  pz              0.7       0.4       4.1       0.1       0.3       1.3
 6 C  px              1.0       0.0       1.2       0.1       0.0       0.5
 6 C  py              0.0       3.6       1.7       0.1       0.1       0.2
 6 C  dz2             0.0       0.1       0.0       0.0       0.0       0.1
 6 C  dyz             0.0       0.3       0.0       0.0       0.0       0.1
 7 H  s               0.5       1.2       0.0       0.1       0.2       6.4
 8 H  s               8.2       0.8       0.1       0.1       0.2       5.6
 9 H  s              10.4       0.0       0.0       0.2       0.0       3.3
10 H  s               9.0       1.2       0.0       0.4       5.8      10.6
11 H  s              10.8       0.1       0.0       0.7       2.4      11.5
12 H  s               0.2       3.9       1.4       0.1       0.2       5.6
13 H  s               0.1      10.2       1.7       0.3       0.2       3.7
14 H  s               0.1       3.8       0.1       0.0       0.2       5.0
15 H  s               0.4       0.7       0.7       0.1       0.3       5.9
16 H  s               0.1       1.5       0.2       0.1       0.2       4.0

                     30        31        32        33        34        35   
                   0.05882   0.08034   0.09044   0.09544   0.09847   0.10624
                   0.00000   0.00000   0.00000   0.00000   0.00000   0.00000
                  --------  --------  --------  --------  --------  --------
 0 C  s               5.3       2.2       0.4      10.7       0.0       2.9
 0 C  pz              0.1       0.5       0.3       0.3       6.1       2.0
 0 C  px              1.1       0.5       0.1       0.4       1.2       0.5
 0 C  py              0.2       0.1       0.8       0.3       1.9       3.1
 0 C  dz2             0.0       0.0       0.0       0.0       0.5       0.0
 0 C  dxz             0.0       0.1       0.1       0.0       0.0       0.1
 0 C  dyz             0.0       0.1       0.0       0.1       0.5       0.3
 0 C  dx2y2           0.0       0.0       0.1       0.0       0.1       0.1
 0 C  dxy             0.1       0.1       0.1       0.1       0.0       0.1
 1 C  s               3.6       2.3       0.3       6.4       0.1       0.5
 1 C  pz              0.0       1.3       2.1       0.5       7.8       3.7
 1 C  px              0.0       0.3       0.3       0.8       1.5       0.0
 1 C  py              2.2       0.1       1.8       0.9       0.3       1.4
 1 C  dz2             0.1       0.0       0.0       0.0       0.2       0.0
 1 C  dxz             0.0       0.1       0.1       0.0       0.0       0.2
 1 C  dyz             0.0       0.2       0.0       0.1       0.4       0.2
 1 C  dx2y2           0.0       0.0       0.1       0.0       0.3       0.2
 1 C  dxy             0.0       0.1       0.2       0.3       0.0       0.0
 2 C  s               0.0       0.2       1.7       0.1       0.4       0.1
 2 C  pz              0.8       0.7       0.2       0.0       1.1       0.2
 2 C  px              0.0       0.4       0.0       0.4       0.4       0.1
 2 C  py              0.0       0.3       0.4       0.2       0.3       0.9
 2 C  dz2             0.0       0.1       0.4       0.2       0.1       0.0
 2 C  dxz             0.0       0.0       0.0       0.0       0.2       0.0
 2 C  dx2y2           0.0       0.3       0.1       0.1       0.3       0.5
 2 C  dxy             0.0       0.0       0.0       0.0       0.0       0.1
 3 O  s               0.0       0.0       0.5       0.0       0.0       0.1
 3 O  pz              0.3       0.5       0.2       0.0       0.4       0.1
 3 O  px              1.0       0.3       0.3       0.1       0.2       0.1
 4 O  s               0.0       4.2       0.2       1.0       3.5       1.2
 4 O  pz              0.8       0.8       0.0       0.0       0.1       0.3
 4 O  px              0.1       2.1       0.0       0.1       2.3       0.9
 4 O  py              0.0       0.7       0.2       0.0       1.2       1.1
 4 O  dz2             0.0       0.1       0.0       0.0       0.1       0.1
 4 O  dx2y2           0.0       0.1       0.2       0.1       0.2       0.1
 4 O  dxy             0.0       0.1       0.1       0.0       0.0       0.0
 5 C  s               4.9       0.7       0.3       5.3       3.0       7.4
 5 C  pz              1.6       1.3       1.2       0.4       0.1       0.6
 5 C  px              1.1      18.0       0.5       0.4       7.8       2.6
 5 C  py              0.6       1.2      10.7       1.6       1.6       0.7
 5 C  dz2             0.1       0.9       0.4       0.0       0.5       0.0
 5 C  dxz             0.0       0.2       0.1       0.0       0.2       0.0
 5 C  dyz             0.0       0.2       0.9       0.1       0.0       0.1
 5 C  dx2y2           0.0       1.0       0.0       0.0       0.5       0.4
 5 C  dxy             0.0       0.8       0.0       0.0       0.4       0.2
 6 C  s               8.9       6.5       0.0       3.7       0.1       2.6
 6 C  pz              1.1       1.2       0.7       0.5       0.1       0.4
 6 C  px              2.3       1.4       0.0       0.0       0.8       1.3
 6 C  py              0.0       0.1       7.0       0.1       0.5       1.2
 6 C  dz2             0.1       0.6       0.3       0.0       0.2       0.1
 6 C  dxz             0.0       0.1       0.2       0.0       0.0       0.2
 6 C  dyz             0.2       0.1       0.6       0.1       0.0       0.0
 6 C  dx2y2           0.0       0.4       0.0       0.0       0.2       0.1
 6 C  dxy             0.0       0.3       0.0       0.0       0.2       0.2
 7 H  s               6.3       0.7       0.5       6.1       4.2       0.4
 8 H  s               3.5       3.9       0.4      10.5      17.6       0.3
 9 H  s               2.7       0.1       3.5       5.3       1.8      19.8
10 H  s               5.3       7.2       0.1      13.5      12.3       0.5
11 H  s               6.1       0.2       8.3       4.0       7.8      13.1
12 H  s              12.7      11.2      10.5      14.7       1.4       1.0
13 H  s               3.1       1.4      21.7       1.2       1.0      13.4
14 H  s               7.8       7.7      12.1       3.1       0.7       5.2
15 H  s              13.2       1.8       2.3       1.8       4.7       5.6
16 H  s               2.0      12.3       6.3       4.1       0.2       1.0

                     36        37        38        39        40        41   
                   0.11376   0.12718   0.13447   0.14422   0.17995   0.19410
                   0.00000   0.00000   0.00000   0.00000   0.00000   0.00000
                  --------  --------  --------  --------  --------  --------
 0 C  s               0.1       0.0       0.1       0.0       0.1       1.7
 0 C  pz              0.1       0.5       0.0      16.6       0.1       1.2
 0 C  px              4.5       6.7       0.2       0.4       0.7      16.8
 0 C  py              6.4       3.7       0.0       0.1       2.3      10.9
 0 C  dz2             0.3       0.3       0.0       0.0       0.3       1.1
 0 C  dxz             0.1       0.0       0.0       0.7       0.0       0.5
 0 C  dyz             0.0       0.0       0.0       0.5       0.1       0.5
 0 C  dx2y2           0.1       0.0       0.0       0.1       0.0       0.0
 0 C  dxy             0.2       0.3       0.0       0.0       0.3       4.1
 1 C  s               0.2       0.2       0.0       0.0       0.6       2.0
 1 C  pz              0.3       0.0       0.2       8.5       0.7       2.4
 1 C  px              0.1       0.1       0.3       1.1       2.4      19.0
 1 C  py              0.4       3.0       0.1       0.2       0.4       4.9
 1 C  dz2             0.0       0.5       0.0       0.0       0.0       0.4
 1 C  dxz             0.0       0.0       0.0       0.2       0.0       0.3
 1 C  dyz             0.0       0.0       0.0       0.0       0.1       0.6
 1 C  dx2y2           0.5       0.1       0.0       0.0       0.0       0.0
 1 C  dxy             0.0       0.0       0.0       0.1       0.6       4.8
 2 C  s               1.2       0.2       0.6       0.0       6.8       1.6
 2 C  pz              0.3       0.0       0.3       1.7       0.9       0.2
 2 C  px              0.2       0.4       0.3       0.0       0.7       2.3
 2 C  py              0.1       0.5       0.4       0.4       0.0       0.3
 2 C  dz2             0.5       0.0       0.0       0.0       1.5       0.2
 2 C  dxz             0.0       0.0       0.0       0.3       0.1       0.0
 2 C  dx2y2           0.0       0.3       0.0       0.1       0.2       0.4
 2 C  dxy             0.0       0.0       0.0       0.0       0.0       0.8
 3 O  s               0.3       0.1       0.1       0.2       0.3       0.1
 3 O  pz              0.1       0.0       0.4       0.3       0.1       0.0
 3 O  px              0.2       0.5       0.2       0.1       0.1       0.4
 3 O  py              0.1       0.1       0.1       0.0       0.7       0.7
 4 O  s               0.6       2.7       0.0       0.1       0.2       0.0
 4 O  pz              0.1       0.2       0.3       0.4       1.4       0.0
 4 O  px              0.4       2.1       0.5       0.3       0.6       2.6
 4 O  py              0.1       0.6       0.3       0.1       0.3       0.5
 4 O  dz2             0.0       0.2       0.0       0.0       0.3       0.0
 4 O  dx2y2           0.0       0.2       0.1       0.0       0.0       0.0
 4 O  dxy             0.1       0.0       0.2       0.0       0.1       0.0
 5 C  s               0.7       0.7       0.5       0.0       2.9       1.5
 5 C  pz              0.2       2.0       0.2       0.1      21.5       2.9
 5 C  px              0.7       8.7       2.4       0.5       1.3       0.8
 5 C  py              0.3       4.2       6.1       0.2       0.8       0.3
 5 C  dz2             0.1       0.0       0.0       0.0       1.5       0.0
 5 C  dxz             0.2       0.6       0.1       0.1       0.5       0.0
 5 C  dyz             0.0       0.0       0.0       0.0       1.2       0.1
 5 C  dx2y2           0.1       1.1       0.1       0.0       0.2       0.4
 5 C  dxy             0.0       0.4       0.6       0.0       0.6       0.5
 6 C  s               0.4       0.2       0.4       0.0       2.5       0.3
 6 C  pz              4.0       2.6       0.3       0.3      15.2       2.4
 6 C  px              7.8       3.8       6.5       0.2       7.4       0.9
 6 C  py              1.9       1.3      11.4       0.5       4.2       0.6
 6 C  dz2             0.0       0.2       0.0       0.1       1.2       0.1
 6 C  dxz             0.0       0.3       0.1       0.0       2.7       0.7
 6 C  dyz             0.1       0.0       0.4       0.0       1.6       0.3
 6 C  dx2y2           0.4       0.2       0.2       0.0       0.0       0.0
 6 C  dxy             0.2       0.0       0.7       0.0       0.3       0.1
 7 H  s              22.1      20.3       0.2       0.0       0.3       1.7
 8 H  s               2.5       0.9       0.0      21.3       0.3       0.7
 9 H  s               4.4       3.8       0.1      19.5       1.1       1.8
10 H  s               0.6       2.2       0.2      10.8       0.0       1.0
11 H  s               0.1       1.7       0.6      12.5       0.9       0.6
12 H  s               1.0       0.7       8.3       0.0       0.9       0.2
13 H  s               1.0       3.1      12.2       0.0       4.8       0.3
14 H  s               6.8       7.8      11.6       0.2       0.7       0.3
15 H  s              25.5       7.9       1.1       0.1       1.6       0.0
16 H  s               1.3       1.7      30.5       0.7       0.5       0.2

                     42        43        44        45        46        47   
                   0.21480   0.25637   0.30623   0.38331   0.39174   0.39568
                   0.00000   0.00000   0.00000   0.00000   0.00000   0.00000
                  --------  --------  --------  --------  --------  --------
 0 C  s               0.4       0.1       0.8       0.1       0.0       0.2
 0 C  pz              0.0       0.1       0.5       4.9       0.9      11.3
 0 C  px              3.7       0.1      10.6       0.0       0.0       4.5
 0 C  py              0.7       1.0       0.1       0.1       0.2       0.3
 0 C  dz2             0.0       0.2       0.2       0.4       0.1       0.5
 0 C  dxz             0.1       0.2       0.0       0.0       0.0       0.0
 0 C  dyz             0.0       0.0       0.1       1.3       0.2       4.8
 0 C  dx2y2           1.6       0.8       0.3       0.1       0.0       0.0
 0 C  dxy             0.7       0.0       2.1       0.3       0.1       0.0
 1 C  s               3.9       3.2       0.4       0.0       0.1       0.0
 1 C  pz              0.2       0.2       0.3       1.6       0.3       3.7
 1 C  px              6.0       9.1       0.4       0.7       0.2       0.3
 1 C  py             11.6       7.0       0.6       0.0       0.8       0.0
 1 C  dz2             2.2       1.7       0.0       0.1       0.0       0.4
 1 C  dxz             0.8       0.4       0.0       0.1       0.0       0.1
 1 C  dyz             0.0       0.1       0.2       1.6       0.3       2.1
 1 C  dx2y2           0.4       0.3       2.9       0.1       0.0       0.1
 1 C  dxy             1.9       1.7       0.1       0.0       0.0       0.5
 2 C  s              21.9      12.9       5.5       6.5       1.8       0.0
 2 C  pz              0.2       0.5       0.4       8.9       6.9       0.6
 2 C  px              1.6      19.4       6.3       4.7       0.3       0.4
 2 C  py              3.0       1.3      22.1       2.3       2.8       0.2
 2 C  dz2             4.4       2.3       0.1       0.0       0.0       0.0
 2 C  dxz             0.2       0.0       0.0       0.0       0.0       0.3
 2 C  dyz             0.8       0.4       0.2       0.0       0.0       0.0
 2 C  dx2y2           0.0       0.9       2.2       0.9       0.0       0.0
 2 C  dxy             0.0       1.1       1.8       0.1       0.0       0.0
 3 O  s               1.7       2.4       5.8       0.7       0.2       0.1
 3 O  pz              0.4       0.0       0.1       0.1       0.5       0.0
 3 O  px              0.8       3.4       3.0       0.0       0.9       0.5
 3 O  py              1.5       1.4       0.2       0.9       0.0       0.0
 3 O  dyz             0.0       0.0       0.0       0.1       0.0       0.0
 3 O  dx2y2           0.1       0.1       0.0       0.1       0.0       0.0
 3 O  dxy             0.1       0.7       0.3       0.1       0.0       0.0
 4 O  s               0.5       2.4       2.9       0.1       0.0       0.1
 4 O  pz              0.3       0.2       0.1       0.5       1.2       0.1
 4 O  px              6.5       2.1       6.5       1.3       0.0       0.2
 4 O  py              0.8       2.8       0.2       0.5       1.0       0.4
 4 O  dz2             0.0       0.0       0.1       0.3       0.4       0.0
 4 O  dxz             0.1       0.1       0.0       0.0       0.1       0.0
 4 O  dx2y2           0.0       0.5       0.3       0.0       0.0       0.0
 4 O  dxy             0.4       0.5       0.7       1.1       0.0       0.0
 5 C  s               0.1       0.5       0.1       0.7       0.5       0.1
 5 C  pz              0.5       1.2       0.3       5.2      23.3       0.3
 5 C  px              3.4       3.0       2.7       1.5       4.9       0.5
 5 C  py              2.4       0.8       0.3       2.2       4.2       2.7
 5 C  dz2             0.5       0.3       0.0       0.0       2.4       0.4
 5 C  dxz             0.6       0.1       0.0       0.8       0.7       0.5
 5 C  dyz             0.1       0.2       0.4       1.2       0.7       1.4
 5 C  dx2y2           0.0       0.0       0.0       0.3       0.7       0.0
 5 C  dxy             0.3       0.2       1.0       0.0       0.7       0.0
 6 C  s               0.0       0.2       0.0       0.2       1.8       0.1
 6 C  pz              3.3       3.1       0.1       2.9      24.1       0.4
 6 C  px              0.1       0.6       0.2      11.6       1.9       3.6
 6 C  py              0.7       0.5       0.3       1.4       0.5       8.5
 6 C  dz2             0.7       0.2       0.0       0.5       0.9       0.5
 6 C  dxz             0.2       0.1       0.1       0.0       0.5       0.1
 6 C  dyz             0.1       0.3       0.2       0.3       1.9       2.5
 6 C  dx2y2           0.1       0.2       0.0       1.0       0.1       0.0
 6 C  dxy             0.0       0.1       0.1       1.8       0.1       0.7
 7 H  s               0.3       1.1       7.0       0.0       0.0       1.0
 8 H  s               0.6       0.8       0.2       3.9       0.9       8.6
 9 H  s               1.5       0.7       0.3       2.4       0.1       7.3
10 H  s               1.5       1.7       0.0       2.0       0.6       6.0
11 H  s               1.0       0.6       2.7       4.1       0.5       3.7
12 H  s               0.6       0.1       3.5       1.6       2.4       2.8
13 H  s               0.6       0.1       0.4       4.6       1.2       4.1
14 H  s               0.2       0.6       0.3       0.1       3.5       6.0
15 H  s               0.1       0.1       0.3       2.5       0.7       0.1
16 H  s               1.1       0.9       0.8       6.7       0.4       5.9

                     48        49        50        51        52        53   
                   0.40915   0.42275   0.43985   0.45794   0.51500   0.52149
                   0.00000   0.00000   0.00000   0.00000   0.00000   0.00000
                  --------  --------  --------  --------  --------  --------
 0 C  s               0.0       1.6       0.1       0.4       0.2       1.9
 0 C  pz              6.7       0.4       0.1       5.0       5.0       6.3
 0 C  px              0.2       1.5       0.2       3.2       0.8       9.3
 0 C  py              0.5      32.1       3.1       1.2       2.5       1.2
 0 C  dz2             0.5       3.8       0.3       0.5       0.4       0.2
 0 C  dxz             0.2       0.9       0.0       0.0       0.2       0.2
 0 C  dyz             1.5       0.6       0.1       0.3       0.5       0.5
 0 C  dx2y2           0.0       0.2       0.0       0.6       0.1       0.1
 0 C  dxy             0.1       0.1       0.0       1.5       0.4       0.0
 1 C  s               0.0       0.3       4.0       0.7       2.2       5.0
[...]
 0 C  py              0.0       0.0       0.0       0.0       0.1       0.0
 0 C  dz2             0.0       0.1       0.0       0.0       0.1       0.0
 0 C  dyz             0.1       0.0       0.0       0.0       0.1       0.0
 0 C  dx2y2           0.0       0.1       0.0       0.0       0.1       0.0
 0 C  dxy             0.1       0.0       0.0       0.0       0.7       0.0
 1 C  s               0.0       0.1       0.0       0.0       0.0       0.3
 1 C  px              0.0       0.2       0.0       0.0       0.1       0.2
 1 C  dz2             0.1       0.1       0.0       0.1       0.0       0.3
 1 C  dxz             0.2       0.0       0.1       0.4       0.1       0.0
 1 C  dyz             0.1       0.2       0.2       0.6       0.3       0.0
 1 C  dx2y2           0.0       0.3       0.0       0.0       2.8       1.3
 1 C  dxy             0.0       0.4       0.0       0.0       2.8       0.1
 2 C  s               0.0       0.0       0.0       0.0       0.2       1.1
 2 C  pz              0.2       0.0       0.0       1.1       0.0       0.0
 2 C  px              0.0       0.2       0.0       0.0       0.4       1.6
 2 C  py              0.0       0.3       0.0       0.1       0.2       1.7
 2 C  dz2             0.0       2.1       0.0       0.8       0.3       1.3
 2 C  dxz             0.1       0.1       1.9       9.8       0.5       0.3
 2 C  dyz             0.3       0.2       0.4       0.0       0.3       1.6
 2 C  dx2y2           0.0       0.1       0.0       0.6      11.0       0.0
 2 C  dxy             0.0       0.0       0.1       0.3       1.3       2.6
 3 O  s               0.0       0.0       0.0       0.0       1.4       0.4
 3 O  pz              0.0       0.0       0.0       0.3       0.0       0.1
 3 O  px              0.0       0.0       0.0       0.0       0.2       0.5
 3 O  py              0.0       0.0       0.0       0.0       0.6       0.3
 3 O  dz2             2.1      54.2       1.5       0.4       4.7       0.2
 3 O  dxz            75.2       2.8       3.6       7.9       1.8       0.9
 3 O  dyz             0.0       2.2       2.5      17.9       0.3       3.2
 3 O  dx2y2           0.6      23.2       0.0       1.3       0.1       0.2
 3 O  dxy             3.2       1.0       0.2       0.1       8.3      21.7
 4 O  s               0.0       0.1       0.0       0.0       0.6       7.5
 4 O  pz              0.2       0.0       1.2       0.3       0.1       0.0
 4 O  px              0.0       0.1       0.0       0.1       1.5       0.1
 4 O  py              0.0       0.5       0.0       0.1       1.1       1.0
 4 O  dz2             0.5       4.2       7.1       0.6      21.5      30.7
 4 O  dxz             2.6       0.0      19.8      33.7       0.1       3.2
 4 O  dyz            12.3       0.4      37.9      16.7       8.1       1.0
 4 O  dx2y2           0.8       2.3       0.2       3.8      11.6       7.8
 4 O  dxy             0.1       0.0       1.7       0.0       8.0       3.9
 5 C  s               0.0       0.4       0.2       0.0       0.5       0.4
 5 C  pz              0.0       0.1       0.3       0.0       0.0       0.0
 5 C  px              0.0       0.2       0.1       0.0       0.9       0.6
 5 C  py              0.0       0.2       0.0       0.0       0.1       0.2
 5 C  dz2             0.1       0.6       0.7       0.4       1.2       0.9
 5 C  dxz             0.3       0.2      12.6       0.5       0.5       0.1
 5 C  dyz             0.2       0.0       1.3       1.1       0.1       0.2
 5 C  dx2y2           0.0       0.2       0.2       0.1       4.1       0.2
 5 C  dxy             0.1       0.9       0.9       0.0       0.2       1.9
 6 C  s               0.0       0.2       0.1       0.0       0.0       0.0
 6 C  pz              0.0       0.1       0.2       0.0       0.0       0.0
 6 C  dz2             0.0       0.1       3.0       0.4       0.0       0.0
 6 C  dxz             0.0       0.3       0.0       0.0       0.2       0.0
 6 C  dyz             0.0       0.0       0.6       0.0       0.0       0.1
 6 C  dx2y2           0.0       0.0       0.5       0.0       0.0       0.0
 6 C  dxy             0.0       0.1       0.2       0.1       0.1       0.1
12 H  s               0.0       0.1       0.0       0.0       0.0       0.0
13 H  s               0.0       0.1       0.0       0.1       0.0       0.0
15 H  s               0.0       0.0       0.2       0.0       0.0       0.0

                    114       115       116       117   
                   3.11660   3.32186   3.50185   3.55721
                   0.00000   0.00000   0.00000   0.00000
                  --------  --------  --------  --------
 0 C  dx2y2           0.0       0.0       0.2       0.0
 1 C  s               0.0       0.2       0.1       0.0
 1 C  px              0.0       0.1       0.3       0.1
 1 C  dz2             0.0       0.0       0.1       0.0
 1 C  dxz             0.6       0.0       0.1       0.0
 1 C  dx2y2           0.0       0.1       1.7       0.1
 1 C  dxy             0.0       0.8       0.2       0.6
 2 C  s               0.0       3.8       0.2       6.1
 2 C  pz              0.4       0.1       0.0       0.2
 2 C  px              0.1       1.4       0.8       0.1
 2 C  py              0.0       0.3       2.7       4.1
 2 C  dz2             1.9       0.3       0.3       1.4
 2 C  dxz             0.7       0.4       0.4       0.1
 2 C  dyz            16.4       0.0       0.2       0.5
 2 C  dx2y2           0.7       4.8       0.3       8.5
 2 C  dxy             0.4       1.1      19.9       2.3
 3 O  s               0.0       1.8       0.8       4.2
 3 O  pz              0.8       0.0       0.0       0.2
 3 O  px              0.1       0.2       0.6       0.2
 3 O  py              0.1       0.7       0.6       3.0
 3 O  dz2             5.9       4.3       1.4       8.6
 3 O  dxz             0.5       0.1       0.8       0.3
 3 O  dyz            45.8       0.7       0.2       6.0
 3 O  dx2y2           1.8       9.4       8.5      30.9
 3 O  dxy             3.2       6.1      16.2       7.4
 4 O  s               0.2       0.1       0.8       0.3
 4 O  px              0.0       2.4       3.5       0.1
 4 O  py              0.0       0.2       0.4       0.1
 4 O  dz2             1.8       0.3       2.8       1.4
 4 O  dxz            14.4       2.4       0.1       0.4
 4 O  dyz             1.1       0.0       0.2       0.1
 4 O  dx2y2           1.0      22.5       2.1      11.2
 4 O  dxy             0.0      26.5      31.5       0.1
 5 C  s               0.0       0.8       0.3       0.0
 5 C  px              0.0       1.3       0.4       0.1
 5 C  py              0.0       0.4       0.0       0.1
 5 C  dz2             0.1       1.2       0.0       0.1
 5 C  dxz             0.8       0.5       0.0       0.0
 5 C  dyz             0.5       0.1       0.0       0.1
 5 C  dx2y2           0.0       1.4       1.0       0.0
 5 C  dxy             0.0       2.6       0.0       0.6
 6 C  dz2             0.2       0.0       0.0       0.0
 6 C  dxz             0.0       0.1       0.0       0.0


                      *****************************
                      * MAYER POPULATION ANALYSIS *
                      *****************************

  NA   - Mulliken gross atomic population
  ZA   - Total nuclear charge
  QA   - Mulliken gross atomic charge
  VA   - Mayer's total valence
  BVA  - Mayer's bonded valence
  FA   - Mayer's free valence

  ATOM       NA         ZA         QA         VA         BVA        FA
  0 C      6.2704     6.0000    -0.2704     4.0382     4.0382     0.0000
  1 C      6.1869     6.0000    -0.1869     3.9798     3.9798     0.0000
  2 C      5.8878     6.0000     0.1122     4.3725     4.3725    -0.0000
  3 O      8.2082     8.0000    -0.2082     2.2902     2.2902     0.0000
  4 O      8.2420     8.0000    -0.2420     2.2544     2.2544    -0.0000
  5 C      6.0118     6.0000    -0.0118     4.0526     4.0526    -0.0000
  6 C      6.3036     6.0000    -0.3036     4.0136     4.0136     0.0000
  7 H      0.8982     1.0000     0.1018     0.9495     0.9495     0.0000
  8 H      0.8918     1.0000     0.1082     0.9558     0.9558     0.0000
  9 H      0.8822     1.0000     0.1178     0.9673     0.9673     0.0000
 10 H      0.8821     1.0000     0.1179     0.9506     0.9506     0.0000
 11 H      0.8913     1.0000     0.1087     0.9621     0.9621    -0.0000
 12 H      0.8995     1.0000     0.1005     0.9503     0.9503    -0.0000
 13 H      0.8937     1.0000     0.1063     0.9771     0.9771    -0.0000
 14 H      0.8881     1.0000     0.1119     0.9572     0.9572     0.0000
 15 H      0.8886     1.0000     0.1114     0.9550     0.9550     0.0000
 16 H      0.8738     1.0000     0.1262     0.9676     0.9676     0.0000

  Mayer bond orders larger than 0.100000
B(  0-C ,  1-C ) :   1.1531 B(  0-C ,  7-H ) :   0.9493 B(  0-C ,  8-H ) :   0.9595 
B(  0-C ,  9-H ) :   0.9487 B(  1-C ,  2-C ) :   1.0188 B(  1-C , 10-H ) :   0.8955 
B(  1-C , 11-H ) :   0.9111 B(  2-C ,  3-O ) :   2.0451 B(  2-C ,  4-O ) :   1.2107 
B(  4-O ,  5-C ) :   0.9244 B(  5-C ,  6-C ) :   1.1727 B(  5-C , 12-H ) :   0.9376 
B(  5-C , 13-H ) :   0.9145 B(  6-C , 14-H ) :   0.9492 B(  6-C , 15-H ) :   0.9446 
B(  6-C , 16-H ) :   0.9466 

-------
TIMINGS
-------

Total SCF time: 0 days 0 hours 0 min 7 sec 

Total time                  ....       7.145 sec
Sum of individual times     ....       6.623 sec  ( 92.7%)

SCF preparation             ....       0.151 sec  (  2.1%)
Fock matrix formation       ....       5.654 sec  ( 79.1%)
  Startup                   ....       0.067 sec  (  1.2% of F)
  Split-RI-J                ....       1.713 sec  ( 30.3% of F)
  XC integration            ....       3.190 sec  ( 56.4% of F)
    Basis function eval.    ....       1.073 sec  ( 33.7% of XC)
    Density eval.           ....       0.354 sec  ( 11.1% of XC)
    XC-Functional eval.     ....       0.309 sec  (  9.7% of XC)
    XC-Potential eval.      ....       0.577 sec  ( 18.1% of XC)
Diagonalization             ....       0.000 sec  (  0.0%)
Density matrix formation    ....       0.178 sec  (  2.5%)
Total Energy calculation    ....       0.043 sec  (  0.6%)
Population analysis         ....       0.059 sec  (  0.8%)
Orbital Transformation      ....       0.042 sec  (  0.6%)
Orbital Orthonormalization  ....       0.000 sec  (  0.0%)
DIIS solution               ....       0.328 sec  (  4.6%)
  MO trafo                  ....       0.000 sec  (  0.0 % of DIIS)
  Orb grad                  ....       0.000 sec  (  0.0 % of DIIS)
  Energy W gradient         ....       0.000 sec  (  0.0 % of DIIS)
  DIIS error                ....       0.002 sec  (  0.7 % of DIIS)
  DIIS work                 ....       0.288 sec  ( 87.9 % of DIIS)
  Form Q                    ....       0.000 sec  (  0.0 % of DIIS)
  Form QpQm                 ....       0.000 sec  (  0.0 % of DIIS)
  Exp/Cayley                ....       0.000 sec  (  0.0 % of DIIS)
  Orb update                ....       0.000 sec  (  0.0 % of DIIS)
  Wake-sleep                ....       0.016 sec  (  5.0 % of DIIS)
SOSCF solution              ....       0.168 sec  (  2.4%)
  MO trafo                  ....       0.060 sec  ( 36.0 % of SOSCF)
  Orb grad                  ....       0.002 sec  (  1.4 % of SOSCF)
  Rot update                ....       0.074 sec  ( 44.2 % of SOSCF)
  Step                      ....       0.031 sec  ( 18.5 % of SOSCF)
Finished LeanSCF after   7.2 sec

Maximum memory used throughout the entire LEANSCF-calculation: 11.1 MB


-------------------------------------------------------------------------------
                          DFT DISPERSION CORRECTION                            
                                                                               
                                DFTD4 V3.4.0                                   
-------------------------------------------------------------------------------
The PBE functional is recognized
Active option DFTDOPT                   ...         5   

-------------------------   ----------------
Dispersion correction           -0.011916950
-------------------------   ----------------

------------------   -----------------
gCP correction             0.076749087
------------------   -----------------

-------------------------   --------------------
FINAL SINGLE POINT ENERGY      -346.246135749567
-------------------------   --------------------


------------------------------------------------------------------------------
                              ORCA PROPERTY CALCULATIONS
------------------------------------------------------------------------------

GBWName                                 ... sp.gbw
Number of atoms                         ...     17
Number of basis functions               ...    118
Max core memory                         ...   1024 MB

Electric properties:
Dipole moment                           ... YES
Quadrupole moment                       ...  NO
Static polarizability (Dipole/Dipole)   ...  NO
Static polarizability (Dipole/Quad.)    ...  NO
Static polarizability (Quad./Quad.)     ...  NO
Static polarizability (Velocity)        ...  NO

Atomic electric properties:
Dipole moment                           ...  NO
Quadrupole moment                       ...  NO
Static polarizability                   ...  NO

Choice of electric origin               ... Center of mass
Position of electric origin             ...    -0.000003     0.000004    -0.000010

General magnetic properties:
Magnetizability                         ...  NO

EPR properties:
g-Tensor (aka g-matrix)                 ...  NO
Zero-Field splitting spin-orbit         ...  NO
Zero-field splitting spin-spin          ...  NO
Hyperfine couplings                     ...  NO (   0 nuclei)
Quadrupole couplings                    ...  NO (   0 nuclei)
Contact density                         ...  NO (   0 nuclei)

NMR properties:
Chemical shifts                         ...  NO (   0 nuclei)
Spin-rotation constants                 ...  NO (   0 nuclei)
Spin-spin couplings                     ...  NO (   0 nuclei,    0 pairs)

Choice of magnetic origin               ... GIAO
Position of magnetic origin             ...     0.000000     0.000000     0.000000

Properties with geometric perturbations:
SCF Hessian                             ...  NO
IR spectrum                             ...  NO
VCD spectrum                            ...  NO
X-ray spectroscopy properties:
SCF XES/XAS/RIXS spectra                ...  NO


-------------
DIPOLE MOMENT
-------------

Method             : SCF
Type of density    : Electron Density
Multiplicity       :   1
Irrep              :   0
Energy             :  -346.3109678865496903 Eh
Relativity type    : 
Basis              : AO
                                X                 Y                 Z
Electronic contribution:      0.482634496      -0.067235379       2.546460557
Nuclear contribution   :     -0.188976755       0.671904913      -2.659905036
                        -----------------------------------------
Total Dipole Moment    :      0.293657740       0.604669534      -0.113444479
                        -----------------------------------------
Magnitude (a.u.)       :      0.681710909
Magnitude (Debye)      :      1.732771426



--------------------
Rotational spectrum 
--------------------
 
Rotational constants in cm-1:             0.214900             0.046534             0.043682 
Rotational constants in MHz :          6442.540038          1395.042519          1309.566828 

Dipole components along the rotational axes: 
x,y,z [a.u.] :    -0.292770     0.603718    -0.120583 
x,y,z [Debye]:    -0.744161     1.534529    -0.306499 

 

Dipole moment calculation done in   0.0 sec 

Maximum memory used throughout the entire PROP-calculation: 7.0 MB

--------------------------------
SUGGESTED CITATIONS FOR THIS RUN
--------------------------------

Below you find a list of papers that are relevant to this ORCA run
We neither can nor want to force you to cite these papers, but we appreciate if you do
You receive ORCA, which is the product of decades of hard work by many enthusiastic individuals, for free
The only thing we kindly ask in return is that you cite our papers,
We deeply appreciate it, if you show your appreciation for ORCA by not just citing the generic ORCA reference.

Please note that relegating all ORCA citations to the supporting information does *not* help us.
SI sections are not indexed - citations you put there will not count into any citation statistics
But we need these citations in order to attract the funding resources that allow us to do what we are doing

Therefore, if you are a happy ORCA user, please consider citing a few of the papers listed below in the main body of your paper

In addition to the list printed below, the program has created the file sp.bibtex that contains the list in bibtex format
You can import this file easily into all common literature databanks and citation aid programs


List of essential papers. We consider these as the minimum necessary citations

  1. Neese,F.
     Software update: the ORCA program system, version 5.0
     WIRES Comput. Molec. Sci., 2022 12(1)e1606
     doi.org/10.1002/wcms.1606

List of papers to cite with high priority. The work reported in these papers was absolutely
necessary for this run to complete.
Our perspective: the developers of density functionals and basis sets usually get cited in chemistry papers
Good! But without the algorithms to do something with them, the functionals or basis sets would not do anything.
Hence, in our opinion, the algorithm design and method developments papers are equally worthy of getting cited

  1. Neese,F.
     An improvement of the resolution of the identity approximation for the formation of the Coulomb matrix
     J. Comp. Chem., 2003 24(14)1740-1747
     doi.org/10.1002/jcc.10318
  2. Neese,F.
     The SHARK Integral Generation and Digestion System
     J. Comp. Chem., 2022  1-16
     doi.org/10.1002/jcc.26942
  3. Caldeweyher,E.; Bannwarth,C.; Grimme,S.
     Extension of the D3 dispersion coefficient model
     J. Chem. Phys., 2017 147 034112-XXXX
     doi.org/10.1063/1.4993215
  4. Caldeweyher,E.; Ehlert,S.; Hansen,A.; Neugebauer,H.; Spicher,S.; Bannwarth,C.; Grimme,S.
     A generally applicable atomic-charge dependent London dispersion correction
     J. Chem. Phys., 2019 150 154122-XXXX
     doi.org/10.1063/1.5090222
  5. Caldeweyher,E.; Mewes,J.; Ehlert,S.; Grimme,S.
     Extension and evaluation of the D4 London-dispersion model for periodic systems
     Phys. Chem. Chem. Phys., 2020 22(16)8499-8512
     doi.org/10.1039/D0CP00502A

List of suggested additional citations. These are papers that are important in the 'surrounding' of 
of this run, or papers that preceded the highly important papers. If you like your results we are grateful for a citation.

  1. Neese,F.
     The ORCA program system
     WIRES Comput. Molec. Sci., 2012 2(1)73-78
     doi.org/10.1002/wcms.81
  2. Neese,F.
     Software update: the ORCA program system, version 4.0
     WIRES Comput. Molec. Sci., 2018 8(1)1-6
     doi.org/10.1002/wcms.1327
  3. Neese,F.; Wennmohs,F.; Becker,U.; Riplinger,C.
     The ORCA quantum chemistry program package
     J. Chem. Phys., 2020 152 Art. No. L224108
     doi.org/10.1063/5.0004608

List of optional additional citations

  1. Neese,F.
     Approximate second-order SCF convergence for spin unrestricted wavefunctions
     Chem. Phys. Lett., 2000 325(1-3)93-98
     doi.org/10.1016/s0009-2614(00)00662-x

Timings for individual modules:

Sum of individual times          ...        8.651 sec (=   0.144 min)
Startup calculation              ...        0.703 sec (=   0.012 min)   8.1 %
SCF iterations                   ...        7.854 sec (=   0.131 min)  90.8 %
Property calculations            ...        0.094 sec (=   0.002 min)   1.1 %
                             ****ORCA TERMINATED NORMALLY****
TOTAL RUN TIME: 0 days 0 hours 0 minutes 9 seconds 419 msec
