 Entering Gaussian System
 *********************************************
 Gaussian 98:
 frequency output generated by the xtb code
 *********************************************
                         Standard orientation:
 --------------------------------------------------------------------
  Center     Atomic     Atomic              Coordinates (Angstroms)
  Number     Number      Type              X           Y           Z
 --------------------------------------------------------------------
    1          6             0       -2.318178   -0.127222   -1.024078
    2          6             0       -1.769465    0.666548    0.155924
    3          6             0       -0.592482    0.017655    0.889823
    4          6             0        0.765093   -0.092382    0.158598
    5          6             0        1.104363    1.185578   -0.614284
    6          6             0        0.835841   -1.310506   -0.763962
    7          8             0        1.776987   -0.333193    1.143291
    8          1             0       -3.271602    0.291592   -1.338705
    9          1             0       -2.475449   -1.166482   -0.746026
   10          1             0       -1.643953   -0.093417   -1.875098
   11          1             0       -1.494394    1.668169   -0.176004
   12          1             0       -2.570655    0.779355    0.890860
   13          1             0       -0.416946    0.607118    1.795117
   14          1             0       -0.880163   -0.984860    1.214676
   15          1             0        2.134933    1.132259   -0.958502
   16          1             0        0.994234    2.060496    0.023294
   17          1             0        0.457330    1.294966   -1.478351
   18          1             0        0.133070   -1.228276   -1.583373
   19          1             0        0.622388   -2.211569   -0.195018
   20          1             0        1.843613   -1.393361   -1.163687
   21          1             0        1.866056    0.447817    1.705552
 --------------------------------------------------------------------
     1 basis functions        1 primitive gaussians
     1 alpha electrons        1 beta electrons
 
 Harmonic frequencies (cm**-1), IR intensities (km*mol⁻¹),
 Raman scattering activities (A**4/amu), Raman depolarization ratios,
 reduced masses (AMU), force constants (mDyne/A) and normal coordinates:
                      1                      2                      3
                        a                      a                      a 
 Frequencies --    51.4626               116.7116               165.7420
 Red. masses --     7.8972                 6.1466                 2.5801
 Frc consts  --     0.0000                 0.0000                 0.0000
 IR Inten    --     0.6232                 0.4197                 0.1921
 Raman Activ --     0.0000                 0.0000                 0.0000
 Depolar     --     0.0000                 0.0000                 0.0000
 Atom AN      X      Y      Z        X      Y      Z        X      Y      Z
   1   6    -0.16  -0.41   0.19    -0.44   0.04   0.17     0.06  -0.11  -0.07
   2   6     0.01   0.03  -0.19     0.09   0.11  -0.13    -0.01  -0.02  -0.07
   3   6     0.04   0.25  -0.04    -0.04  -0.19  -0.19     0.03   0.15   0.02
   4   6     0.03   0.08  -0.01     0.08  -0.03  -0.01     0.01   0.04   0.02
   5   6     0.27   0.12   0.17     0.08   0.00   0.04     0.11   0.05   0.08
   6   6    -0.11   0.19  -0.17     0.29  -0.00  -0.03    -0.19   0.05   0.01
   7   8    -0.08  -0.25   0.02    -0.04   0.06   0.14    -0.00  -0.15  -0.01
   8   1    -0.07  -0.17   0.06    -0.05   0.16   0.00    -0.09  -0.18   0.10
   9   1    -0.01  -0.09   0.17    -0.33   0.07   0.16     0.22  -0.08  -0.07
  10   1    -0.09  -0.19   0.02    -0.12  -0.21   0.05    -0.08   0.15  -0.09
  11   1     0.01  -0.03  -0.17     0.12  -0.02  -0.12    -0.03  -0.00  -0.03
  12   1     0.02   0.11  -0.04     0.07   0.17  -0.01    -0.01  -0.02  -0.03
  13   1     0.01   0.15  -0.06    -0.03  -0.14   0.00     0.01   0.09  -0.02
  14   1     0.02   0.10   0.07    -0.04  -0.08  -0.15     0.02   0.05   0.06
  15   1     0.08   0.00   0.06     0.06   0.05   0.10     0.06   0.03   0.09
  16   1     0.10   0.02   0.08    -0.07   0.00  -0.01    -0.03   0.02   0.01
  17   1     0.10   0.09   0.04     0.09  -0.05  -0.05     0.09  -0.01  -0.02
  18   1     0.09   0.18  -0.14    -0.05  -0.11   0.10    -0.40  -0.18   0.28
  19   1    -0.21   0.05  -0.12     0.30  -0.03   0.03     0.38  -0.01   0.13
  20   1     0.01  -0.05   0.08     0.04   0.14  -0.16    -0.19   0.23  -0.39
  21   1    -0.02  -0.10   0.06    -0.02   0.03   0.01     0.06  -0.03  -0.02
                      4                      5                      6
                        a                      a                      a 
 Frequencies --   236.8648               251.9093               281.3122
 Red. masses --     6.1303                 1.9229                 4.7911
 Frc consts  --     0.0000                 0.0000                 0.0000
 IR Inten    --     5.6945                 1.6110                15.1775
 Raman Activ --     0.0000                 0.0000                 0.0000
 Depolar     --     0.0000                 0.0000                 0.0000
 Atom AN      X      Y      Z        X      Y      Z        X      Y      Z
   1   6    -0.27   0.09  -0.01     0.05  -0.07  -0.09     0.05  -0.04   0.06
   2   6    -0.21  -0.12   0.11    -0.02  -0.07  -0.06     0.28   0.24  -0.22
   3   6     0.01  -0.02  -0.15    -0.00   0.05   0.05    -0.08  -0.16  -0.02
   4   6     0.09   0.03  -0.05    -0.01   0.04   0.03    -0.02  -0.09   0.08
   5   6     0.34  -0.10  -0.13    -0.03   0.08   0.11    -0.28  -0.01   0.14
   6   6     0.16   0.01  -0.01    -0.08   0.02   0.05    -0.01  -0.02  -0.00
   7   8    -0.14   0.10   0.23     0.08  -0.05  -0.07     0.05   0.05   0.04
   8   1    -0.18  -0.08   0.16     0.17   0.18  -0.24    -0.13  -0.21   0.20
   9   1     0.12  -0.03  -0.12    -0.29   0.05   0.06     0.27  -0.05   0.03
  10   1    -0.18   0.24  -0.08     0.17  -0.28   0.08    -0.15   0.13  -0.11
  11   1    -0.14   0.01   0.10    -0.01  -0.02  -0.02     0.20   0.01  -0.15
  12   1    -0.03  -0.14   0.08    -0.03  -0.02  -0.04     0.08   0.23  -0.09
  13   1    -0.00  -0.02  -0.03    -0.01   0.05  -0.01    -0.04  -0.14   0.06
  14   1     0.05  -0.02  -0.05     0.01   0.02   0.04    -0.10  -0.06  -0.11
  15   1     0.01  -0.20  -0.26    -0.14  -0.13  -0.32    -0.15  -0.02  -0.15
  16   1     0.39  -0.03   0.02     0.37  -0.03   0.17     0.07  -0.04   0.12
  17   1    -0.07   0.12   0.11    -0.28   0.25   0.26    -0.23   0.08   0.16
  18   1     0.05   0.02  -0.01    -0.12  -0.07   0.09     0.02   0.04  -0.02
  19   1     0.02   0.00  -0.01     0.10   0.01   0.07    -0.05  -0.02  -0.04
  20   1     0.05  -0.01   0.01    -0.06   0.06  -0.10     0.01  -0.02   0.03
  21   1     0.04   0.10  -0.05     0.13   0.02  -0.08     0.20   0.13  -0.19
                      7                      8                      9
                        a                      a                      a 
 Frequencies --   286.2343               291.8838               335.8959
 Red. masses --     3.4887                 8.4247                 8.1587
 Frc consts  --     0.0000                 0.0000                 0.0000
 IR Inten    --    97.0066                90.1997                 5.5396
 Raman Activ --     0.0000                 0.0000                 0.0000
 Depolar     --     0.0000                 0.0000                 0.0000
 Atom AN      X      Y      Z        X      Y      Z        X      Y      Z
   1   6    -0.15   0.02  -0.14    -0.30   0.07  -0.19     0.20  -0.09   0.07
   2   6    -0.04  -0.18  -0.04     0.07  -0.16  -0.17     0.16  -0.04   0.05
   3   6     0.02  -0.07   0.01     0.06  -0.10  -0.01    -0.06  -0.30   0.06
   4   6     0.06   0.02   0.04     0.12   0.03   0.11    -0.06   0.07   0.05
   5   6     0.15   0.04   0.14     0.02   0.08   0.12     0.24  -0.11  -0.15
   6   6    -0.24  -0.00   0.06    -0.21  -0.06   0.22    -0.36   0.21  -0.14
   7   8     0.13   0.09   0.03     0.44   0.15  -0.16    -0.09   0.31   0.12
   8   1    -0.01   0.09  -0.04    -0.12   0.05   0.08     0.09   0.00  -0.04
   9   1    -0.13   0.01  -0.07    -0.07   0.00  -0.12    -0.00  -0.01   0.06
  10   1    -0.03  -0.02  -0.03    -0.18   0.08  -0.13     0.09  -0.08   0.04
  11   1    -0.02  -0.04   0.01     0.04  -0.05  -0.05     0.13  -0.04  -0.00
  12   1    -0.01  -0.08  -0.01     0.03  -0.02  -0.04     0.03   0.06  -0.02
  13   1    -0.02  -0.02   0.00    -0.05  -0.00  -0.01    -0.07  -0.22   0.11
  14   1     0.03  -0.03   0.00     0.02  -0.03  -0.01    -0.02  -0.14  -0.15
  15   1     0.10   0.07   0.19    -0.00   0.03   0.01     0.07  -0.16  -0.01
  16   1    -0.12   0.01   0.01     0.03   0.00   0.06     0.15   0.02  -0.10
  17   1     0.17  -0.04  -0.06    -0.02   0.05   0.06     0.10  -0.02  -0.07
  18   1    -0.04   0.08   0.00    -0.06   0.04   0.07    -0.16   0.15   0.02
  19   1    -0.19   0.02   0.01    -0.15   0.02   0.09    -0.11   0.03  -0.09
  20   1    -0.07  -0.11   0.04    -0.07  -0.13   0.06    -0.15   0.04  -0.14
  21   1     0.52   0.30  -0.46    -0.28  -0.18   0.33    -0.17   0.05   0.09
                     10                     11                     12
                        a                      a                      a 
 Frequencies --   371.6970               440.5427               449.8163
 Red. masses --     8.2676                 9.8095                 8.9581
 Frc consts  --     0.0000                 0.0000                 0.0000
 IR Inten    --     2.8340                 5.8448                10.7080
 Raman Activ --     0.0000                 0.0000                 0.0000
 Depolar     --     0.0000                 0.0000                 0.0000
 Atom AN      X      Y      Z        X      Y      Z        X      Y      Z
   1   6     0.13  -0.05   0.15     0.03   0.03   0.03    -0.02   0.03  -0.02
   2   6    -0.12   0.14   0.10     0.25  -0.13   0.02    -0.04   0.02  -0.01
   3   6    -0.11  -0.11  -0.20     0.35   0.02  -0.17    -0.04   0.12   0.14
   4   6    -0.10   0.04  -0.25     0.17  -0.07  -0.24    -0.14  -0.33  -0.02
   5   6     0.23   0.24   0.20    -0.14   0.20   0.03     0.05  -0.26   0.29
   6   6    -0.02  -0.30   0.17    -0.17  -0.22  -0.11     0.06  -0.16  -0.31
   7   8    -0.09   0.13  -0.32    -0.35   0.10   0.33     0.10   0.43  -0.08
   8   1     0.02  -0.11  -0.02     0.02   0.08   0.05    -0.00   0.01  -0.01
   9   1     0.11  -0.02   0.08    -0.05   0.01  -0.01    -0.01   0.01  -0.02
  10   1     0.08   0.00   0.08    -0.02  -0.01  -0.02    -0.00   0.02  -0.00
  11   1    -0.04   0.04   0.03     0.03  -0.02   0.02     0.00  -0.00  -0.02
  12   1    -0.03   0.02   0.04     0.10  -0.07   0.05    -0.02   0.03  -0.01
  13   1    -0.01  -0.16   0.02     0.15   0.08  -0.10     0.07   0.20  -0.08
  14   1    -0.05  -0.07  -0.18     0.14   0.03   0.06    -0.04   0.11   0.24
  15   1     0.09   0.05   0.13    -0.05   0.20  -0.04     0.04  -0.11   0.15
  16   1     0.08  -0.02   0.18    -0.11  -0.02   0.11     0.04  -0.14   0.18
  17   1     0.14   0.24   0.03    -0.10   0.08   0.05     0.08   0.07   0.05
  18   1     0.01  -0.22   0.02    -0.10  -0.03   0.02     0.01   0.01  -0.08
  19   1    -0.02   0.00   0.19    -0.11  -0.01   0.02     0.07  -0.12  -0.19
  20   1     0.01  -0.15   0.10    -0.09  -0.18  -0.10     0.02   0.07  -0.11
  21   1    -0.08   0.01  -0.04    -0.15   0.08   0.01    -0.17   0.14  -0.04
                     13                     14                     15
                        a                      a                      a 
 Frequencies --   507.7825               741.2934               820.3581
 Red. masses --     8.7963                 8.3771                 4.8132
 Frc consts  --     0.0000                 0.0000                 0.0000
 IR Inten    --     7.7713                 6.1308                 9.7739
 Raman Activ --     0.0000                 0.0000                 0.0000
 Depolar     --     0.0000                 0.0000                 0.0000
 Atom AN      X      Y      Z        X      Y      Z        X      Y      Z
   1   6     0.07  -0.05   0.07     0.06   0.02   0.05    -0.03   0.01   0.12
   2   6    -0.32   0.26   0.02     0.23  -0.02  -0.08    -0.18  -0.09   0.12
   3   6    -0.04   0.10  -0.36     0.22   0.09  -0.33     0.05  -0.14  -0.33
   4   6     0.28  -0.13   0.07    -0.13   0.01   0.06     0.06  -0.00  -0.05
   5   6    -0.07  -0.10   0.06    -0.10  -0.35   0.21    -0.06  -0.18   0.10
   6   6    -0.11  -0.04  -0.11    -0.04   0.28   0.22     0.00   0.25   0.16
   7   8     0.35   0.03   0.24    -0.17   0.05  -0.23    -0.03   0.01  -0.07
   8   1     0.03  -0.11  -0.13     0.00   0.04   0.11     0.05  -0.01  -0.16
   9   1     0.05   0.01   0.12    -0.02   0.04   0.12     0.04  -0.07  -0.21
  10   1     0.11  -0.06   0.09    -0.09  -0.10  -0.07     0.22   0.23   0.22
  11   1    -0.24   0.13   0.06    -0.18   0.11   0.14     0.21  -0.18  -0.23
  12   1    -0.07  -0.10   0.06     0.09  -0.32   0.06     0.07   0.37   0.09
  13   1    -0.03  -0.09  -0.02     0.04  -0.03  -0.05     0.09   0.14  -0.22
  14   1    -0.09   0.01  -0.22     0.02   0.02  -0.14     0.11   0.01   0.13
  15   1    -0.03   0.10  -0.04    -0.02  -0.15   0.10    -0.02  -0.04   0.01
  16   1    -0.10  -0.04   0.02    -0.01  -0.09   0.05    -0.02  -0.06   0.04
  17   1    -0.09  -0.11   0.06    -0.00  -0.09   0.04    -0.02  -0.06   0.03
  18   1    -0.09   0.12   0.04     0.02   0.06   0.04    -0.03   0.08   0.07
  19   1    -0.08  -0.04  -0.09     0.02   0.06   0.05    -0.03   0.10   0.08
  20   1    -0.08  -0.08  -0.14     0.01   0.14   0.11    -0.02   0.00   0.01
  21   1     0.01   0.01   0.07    -0.03   0.00  -0.04     0.00  -0.01  -0.01
                     16                     17                     18
                        a                      a                      a 
 Frequencies --   880.4576               910.2196               943.1512
 Red. masses --     5.8718                 7.6586                 6.9243
 Frc consts  --     0.0000                 0.0000                 0.0000
 IR Inten    --     4.3867                29.6674                 9.3611
 Raman Activ --     0.0000                 0.0000                 0.0000
 Depolar     --     0.0000                 0.0000                 0.0000
 Atom AN      X      Y      Z        X      Y      Z        X      Y      Z
   1   6    -0.09  -0.17  -0.10     0.05  -0.06   0.14     0.20   0.02   0.28
   2   6    -0.04   0.03   0.11     0.09  -0.13   0.00     0.08  -0.22  -0.07
   3   6     0.21   0.34   0.24     0.04   0.20  -0.20    -0.29   0.10  -0.18
   4   6     0.16   0.04   0.03    -0.35   0.07  -0.07     0.08  -0.11   0.23
   5   6     0.05  -0.17   0.09    -0.14   0.05  -0.03     0.10   0.15  -0.10
   6   6     0.02  -0.05  -0.02    -0.17  -0.08  -0.12     0.09  -0.15   0.14
   7   8    -0.20   0.05  -0.17     0.31  -0.05   0.31    -0.12   0.02  -0.17
   8   1     0.03   0.08  -0.03     0.07   0.16   0.10     0.10   0.24   0.24
   9   1    -0.10  -0.10  -0.28    -0.08  -0.07  -0.22    -0.09  -0.02  -0.13
  10   1     0.04   0.12   0.02     0.04   0.15   0.07    -0.02   0.11   0.02
  11   1    -0.08  -0.05  -0.21    -0.07  -0.06  -0.16    -0.06  -0.06  -0.10
  12   1     0.01   0.15   0.03     0.10   0.01   0.07     0.02  -0.06  -0.01
  13   1    -0.01  -0.29   0.32    -0.02  -0.06   0.02    -0.16   0.08  -0.07
  14   1     0.02  -0.04  -0.36    -0.04   0.02  -0.19    -0.16   0.06  -0.02
  15   1    -0.01   0.11  -0.05    -0.01  -0.17   0.10     0.02   0.13  -0.07
  16   1    -0.08  -0.09   0.07     0.07   0.03  -0.02    -0.02   0.02  -0.01
  17   1    -0.08  -0.11   0.09     0.09   0.13  -0.09    -0.02   0.03   0.00
  18   1     0.01   0.01  -0.01     0.09  -0.24  -0.17    -0.03   0.28   0.12
  19   1     0.01  -0.03  -0.04     0.09  -0.04  -0.01    -0.01  -0.20  -0.23
  20   1     0.01  -0.00  -0.01     0.04   0.17   0.15    -0.03   0.04  -0.10
  21   1    -0.07   0.02  -0.04     0.08  -0.01   0.07     0.04  -0.03  -0.01
                     19                     20                     21
                        a                      a                      a 
 Frequencies --   951.9247               984.6476               998.5412
 Red. masses --     4.9879                 5.9140                 3.6098
 Frc consts  --     0.0000                 0.0000                 0.0000
 IR Inten    --     3.1198                25.2074                 0.2456
 Raman Activ --     0.0000                 0.0000                 0.0000
 Depolar     --     0.0000                 0.0000                 0.0000
 Atom AN      X      Y      Z        X      Y      Z        X      Y      Z
   1   6    -0.08  -0.03  -0.11    -0.18  -0.02  -0.11     0.06  -0.10  -0.01
   2   6    -0.02   0.09   0.04     0.03   0.10   0.03    -0.00   0.06   0.04
   3   6     0.13  -0.04   0.06     0.29  -0.03  -0.08    -0.04   0.05   0.08
   4   6    -0.08  -0.20  -0.10    -0.07   0.02   0.30     0.02   0.04  -0.13
   5   6    -0.01   0.00  -0.34    -0.14   0.24   0.08    -0.28  -0.07  -0.06
   6   6    -0.07   0.09   0.31     0.03  -0.27   0.05     0.31   0.08  -0.02
   7   8     0.06  -0.06   0.09    -0.13   0.04  -0.11     0.01  -0.03   0.05
   8   1    -0.03  -0.08  -0.10    -0.04  -0.16  -0.23     0.03   0.10   0.10
   9   1     0.02  -0.00   0.02     0.07  -0.02  -0.01    -0.09  -0.03  -0.10
  10   1     0.02  -0.03   0.00     0.11   0.02   0.10    -0.06   0.01  -0.06
  11   1    -0.00   0.03   0.02    -0.02   0.04   0.01    -0.08   0.02  -0.05
  12   1     0.01   0.02   0.02     0.12  -0.00   0.13    -0.03  -0.01  -0.02
  13   1     0.09  -0.05   0.03     0.08  -0.02  -0.01     0.09  -0.05   0.04
  14   1     0.02  -0.02  -0.01     0.06  -0.01  -0.02    -0.12   0.03  -0.02
  15   1     0.05   0.18   0.05    -0.03  -0.29   0.09    -0.00  -0.30   0.22
  16   1    -0.07  -0.27   0.28     0.16   0.26  -0.22     0.10  -0.06   0.07
  17   1     0.09   0.41  -0.11     0.09  -0.01  -0.08     0.17   0.27  -0.16
  18   1     0.03   0.24   0.07    -0.01   0.17   0.05    -0.14   0.20   0.20
  19   1     0.05  -0.16  -0.20     0.00  -0.23  -0.24    -0.16   0.16   0.13
  20   1     0.00   0.28   0.08    -0.02   0.04  -0.08    -0.06  -0.38  -0.25
  21   1    -0.01   0.01  -0.01     0.09  -0.05   0.04     0.10  -0.06   0.07
                     22                     23                     24
                        a                      a                      a 
 Frequencies --  1051.5149              1084.7591              1113.9809
 Red. masses --     5.0776                 5.0789                 5.7149
 Frc consts  --     0.0000                 0.0000                 0.0000
 IR Inten    --    28.5343                10.9332                34.7174
 Raman Activ --     0.0000                 0.0000                 0.0000
 Depolar     --     0.0000                 0.0000                 0.0000
 Atom AN      X      Y      Z        X      Y      Z        X      Y      Z
   1   6    -0.05  -0.20  -0.05     0.22  -0.17  -0.19     0.12   0.22   0.16
   2   6     0.10   0.22   0.05    -0.21   0.16   0.30    -0.28  -0.17  -0.23
   3   6     0.00  -0.15   0.05     0.05  -0.03  -0.16     0.18   0.07   0.09
   4   6    -0.01  -0.35  -0.01    -0.10   0.02  -0.12     0.14  -0.18  -0.05
   5   6     0.09   0.22   0.00     0.02   0.05   0.12    -0.15   0.11   0.04
   6   6    -0.02   0.20   0.07    -0.03  -0.07   0.11    -0.01   0.06   0.09
   7   8     0.05  -0.08   0.00     0.05   0.01   0.03     0.06  -0.15   0.01
   8   1     0.04   0.08  -0.00     0.03   0.16   0.27    -0.00   0.01   0.08
   9   1    -0.09  -0.09  -0.22    -0.16  -0.00  -0.03     0.05   0.09   0.16
  10   1     0.01   0.07   0.00    -0.26  -0.16  -0.30    -0.01  -0.01   0.01
  11   1    -0.21   0.10  -0.06     0.16  -0.03   0.03    -0.02  -0.09  -0.14
  12   1     0.09  -0.08   0.11    -0.21   0.21  -0.12    -0.16   0.05  -0.17
  13   1     0.22  -0.02  -0.04     0.25  -0.03  -0.07    -0.10  -0.06   0.09
  14   1    -0.38   0.10   0.11     0.15  -0.03   0.01     0.19  -0.07  -0.09
  15   1    -0.00   0.01  -0.08    -0.02  -0.05  -0.03    -0.02  -0.20   0.07
  16   1     0.04   0.17  -0.16     0.02   0.10  -0.10     0.10   0.12  -0.10
  17   1    -0.02  -0.09   0.01    -0.04  -0.14   0.04     0.09   0.05  -0.08
  18   1    -0.00  -0.03   0.02     0.01   0.11   0.02     0.01   0.04   0.02
  19   1    -0.00   0.11   0.11     0.02  -0.12  -0.12     0.02  -0.01  -0.01
  20   1     0.01   0.02   0.07    -0.00   0.11   0.02     0.00   0.05   0.03
  21   1    -0.28   0.17  -0.21     0.03  -0.02   0.03    -0.38   0.22  -0.29
                     25                     26                     27
                        a                      a                      a 
 Frequencies --  1143.3548              1168.8089              1211.9114
 Red. masses --     7.1241                 8.1123                 5.2542
 Frc consts  --     0.0000                 0.0000                 0.0000
 IR Inten    --    32.7187               112.8669                40.1584
 Raman Activ --     0.0000                 0.0000                 0.0000
 Depolar     --     0.0000                 0.0000                 0.0000
 Atom AN      X      Y      Z        X      Y      Z        X      Y      Z
   1   6     0.11   0.01   0.19     0.05  -0.10  -0.12     0.06   0.25  -0.08
   2   6    -0.24   0.20  -0.33    -0.03   0.06   0.21    -0.11  -0.33   0.08
   3   6     0.25  -0.36   0.16    -0.03   0.02  -0.14     0.13   0.12  -0.05
   4   6     0.09   0.08   0.09     0.46  -0.11   0.42    -0.13  -0.26   0.16
   5   6     0.01  -0.03  -0.04    -0.17   0.01  -0.14     0.07   0.08  -0.05
   6   6    -0.10  -0.02  -0.05    -0.17   0.05  -0.16     0.01   0.09  -0.06
   7   8    -0.13   0.11  -0.04    -0.14   0.03  -0.11    -0.06   0.11  -0.03
   8   1     0.06   0.14   0.13    -0.00   0.03   0.08    -0.06  -0.11  -0.00
   9   1    -0.06  -0.01  -0.08    -0.06  -0.01  -0.02     0.10   0.12   0.26
  10   1    -0.01   0.10   0.02    -0.07  -0.06  -0.10    -0.03  -0.14  -0.06
  11   1    -0.33   0.07  -0.24     0.13  -0.01   0.09    -0.01  -0.17  -0.23
  12   1    -0.09  -0.06  -0.10    -0.02   0.08   0.03    -0.01   0.11  -0.00
  13   1     0.17  -0.00  -0.03    -0.14   0.06  -0.04     0.34  -0.15   0.04
  14   1     0.05  -0.05   0.16    -0.05   0.04   0.02    -0.35   0.11  -0.10
  15   1     0.01   0.01   0.01     0.02  -0.08   0.13     0.01   0.08  -0.05
  16   1    -0.01  -0.05   0.04     0.09  -0.05   0.07    -0.02   0.02  -0.02
  17   1    -0.00   0.03   0.00     0.12   0.24  -0.12    -0.01   0.01   0.01
  18   1     0.04  -0.10  -0.08     0.07  -0.27  -0.15    -0.03  -0.06   0.00
  19   1     0.04  -0.01  -0.00     0.09   0.06   0.10    -0.02   0.09   0.10
  20   1     0.01   0.06   0.07     0.04   0.05   0.14     0.01  -0.05   0.02
  21   1     0.24  -0.14   0.18    -0.02   0.01  -0.03     0.19  -0.11   0.15
                     28                     29                     30
                        a                      a                      a 
 Frequencies --  1238.2970              1270.9021              1323.0930
 Red. masses --     7.6688                 3.4463                 5.9595
 Frc consts  --     0.0000                 0.0000                 0.0000
 IR Inten    --    59.3893                16.9316                55.2382
 Raman Activ --     0.0000                 0.0000                 0.0000
 Depolar     --     0.0000                 0.0000                 0.0000
 Atom AN      X      Y      Z        X      Y      Z        X      Y      Z
   1   6     0.07  -0.05  -0.03    -0.14  -0.10   0.19    -0.06   0.04   0.04
   2   6    -0.10   0.12  -0.01     0.03   0.01  -0.16     0.07  -0.05   0.05
   3   6     0.19  -0.03  -0.10     0.05   0.14  -0.05     0.03  -0.07  -0.10
   4   6    -0.46  -0.11   0.45    -0.07  -0.27   0.09    -0.04   0.52   0.27
   5   6     0.13   0.03  -0.15     0.01   0.06  -0.01     0.01  -0.11  -0.08
   6   6     0.17   0.04  -0.15     0.01   0.07  -0.03     0.02  -0.11  -0.02
   7   8     0.06  -0.04  -0.02    -0.03   0.07  -0.02     0.08  -0.14  -0.00
   8   1     0.02   0.04   0.06     0.03   0.05  -0.06    -0.01  -0.03  -0.03
   9   1    -0.05  -0.00  -0.01    -0.01  -0.08  -0.15     0.03  -0.01  -0.02
  10   1    -0.04  -0.01  -0.06     0.10   0.17   0.16     0.03  -0.01   0.04
  11   1    -0.02   0.02  -0.03     0.33   0.06   0.40     0.00  -0.02  -0.02
  12   1     0.07   0.04   0.10    -0.34  -0.11  -0.41    -0.21  -0.03  -0.23
  13   1    -0.15   0.03  -0.01     0.21  -0.09   0.03     0.36  -0.06  -0.06
  14   1     0.35  -0.09  -0.01     0.07  -0.01  -0.09    -0.25   0.09   0.05
  15   1     0.03   0.20  -0.07    -0.00   0.05  -0.03     0.03   0.03   0.06
  16   1    -0.08  -0.05   0.04     0.02   0.05  -0.04    -0.06  -0.12   0.11
  17   1    -0.04   0.09   0.03     0.02   0.01  -0.02    -0.05   0.06   0.04
  18   1    -0.09  -0.07   0.07    -0.03  -0.03   0.01     0.04  -0.07  -0.05
  19   1    -0.10   0.12   0.10    -0.01   0.06   0.07    -0.00  -0.10  -0.12
  20   1    -0.01  -0.24  -0.08     0.01  -0.02   0.03    -0.03  -0.07  -0.10
  21   1    -0.12   0.08  -0.10     0.11  -0.06   0.09    -0.29   0.16  -0.21
                     31                     32                     33
                        a                      a                      a 
 Frequencies --  1352.6604              1358.8878              1391.0630
 Red. masses --     4.9332                 3.9202                 3.5697
 Frc consts  --     0.0000                 0.0000                 0.0000
 IR Inten    --    10.1496                 5.4011                 8.6538
 Raman Activ --     0.0000                 0.0000                 0.0000
 Depolar     --     0.0000                 0.0000                 0.0000
 Atom AN      X      Y      Z        X      Y      Z        X      Y      Z
   1   6    -0.07   0.07  -0.03     0.05  -0.08  -0.06    -0.01  -0.00  -0.01
   2   6     0.30   0.02   0.16    -0.23  -0.05  -0.33    -0.00   0.00   0.00
   3   6    -0.43   0.08  -0.05    -0.23   0.10   0.07     0.02   0.02   0.00
   4   6     0.09  -0.13   0.07     0.08   0.07   0.05    -0.01  -0.12  -0.03
   5   6    -0.03   0.01   0.01    -0.03  -0.03  -0.00     0.07   0.29  -0.16
   6   6    -0.03   0.07   0.01    -0.02   0.02   0.02     0.00   0.26   0.19
   7   8     0.00   0.01  -0.01     0.01  -0.02  -0.01    -0.01   0.02  -0.00
   8   1    -0.02  -0.06  -0.08     0.03   0.14   0.16    -0.01   0.01   0.03
   9   1     0.06   0.00   0.00     0.01   0.03   0.13     0.01  -0.01  -0.02
  10   1     0.02  -0.04   0.02     0.06   0.09   0.04     0.02  -0.02   0.01
  11   1    -0.31   0.00  -0.29     0.20   0.02   0.23     0.01   0.01   0.02
  12   1    -0.09  -0.06  -0.12     0.37  -0.00   0.38    -0.00   0.02  -0.00
  13   1     0.33  -0.10  -0.02     0.46  -0.18   0.06    -0.07   0.01   0.01
  14   1     0.51  -0.14   0.04     0.13  -0.03   0.02     0.01  -0.00  -0.01
  15   1    -0.01   0.00  -0.01     0.00   0.02   0.01     0.05  -0.35   0.16
  16   1     0.03   0.03  -0.03     0.02  -0.00   0.00    -0.10  -0.20   0.28
  17   1     0.04   0.05  -0.03     0.02   0.02  -0.01    -0.18  -0.32   0.08
  18   1     0.01  -0.07  -0.02     0.03  -0.05  -0.03     0.11  -0.32  -0.10
  19   1     0.03  -0.02  -0.02     0.02  -0.04  -0.05     0.01  -0.16  -0.28
  20   1    -0.01  -0.05   0.01    -0.02  -0.04  -0.03    -0.10  -0.25  -0.18
  21   1     0.00  -0.01   0.01    -0.06   0.02  -0.03     0.04  -0.02   0.03
                     34                     35                     36
                        a                      a                      a 
 Frequencies --  1403.6952              1414.1253              1465.0876
 Red. masses --     3.2979                 3.1933                 1.5771
 Frc consts  --     0.0000                 0.0000                 0.0000
 IR Inten    --     3.4148                 0.9979                 1.0414
 Raman Activ --     0.0000                 0.0000                 0.0000
 Depolar     --     0.0000                 0.0000                 0.0000
 Atom AN      X      Y      Z        X      Y      Z        X      Y      Z
   1   6     0.06   0.07   0.13     0.17   0.20   0.30     0.03  -0.03  -0.01
   2   6    -0.01  -0.02  -0.05    -0.08   0.01  -0.09    -0.00   0.04   0.02
   3   6    -0.08   0.03  -0.01    -0.02   0.02   0.05    -0.01   0.00  -0.02
   4   6     0.03   0.02   0.07     0.01  -0.00  -0.01     0.04   0.06  -0.04
   5   6     0.05   0.22  -0.17    -0.04  -0.08   0.05    -0.06   0.02   0.04
   6   6    -0.01  -0.22  -0.20    -0.01   0.09   0.08     0.13   0.09  -0.10
   7   8     0.01  -0.01  -0.00    -0.00   0.00  -0.00     0.00  -0.01   0.00
   8   1     0.01  -0.11  -0.17    -0.04  -0.35  -0.29    -0.01  -0.06  -0.04
   9   1    -0.06  -0.03  -0.15    -0.21  -0.07  -0.44    -0.12   0.04   0.09
  10   1    -0.13  -0.07  -0.10    -0.28  -0.25  -0.22    -0.02   0.14  -0.01
  11   1     0.03  -0.00   0.02     0.11  -0.02   0.04     0.07  -0.05  -0.08
  12   1     0.05  -0.02   0.05     0.09  -0.07   0.10    -0.01  -0.13   0.00
  13   1     0.12  -0.07   0.03     0.07   0.02  -0.02    -0.01  -0.06   0.04
  14   1     0.08  -0.01   0.04    -0.00  -0.01  -0.06    -0.03   0.03   0.08
  15   1     0.05  -0.28   0.18    -0.01   0.13  -0.05    -0.04   0.05  -0.10
  16   1    -0.07  -0.18   0.25     0.07   0.06  -0.08     0.11  -0.05   0.10
  17   1    -0.18  -0.26   0.08     0.07   0.08  -0.04     0.13  -0.12  -0.12
  18   1    -0.13   0.30   0.12     0.06  -0.14  -0.06    -0.44  -0.31   0.35
  19   1     0.01   0.16   0.27     0.02  -0.07  -0.12    -0.27  -0.12  -0.32
  20   1     0.12   0.23   0.23    -0.05  -0.11  -0.08     0.16   0.05   0.37
  21   1    -0.03   0.02  -0.03     0.01  -0.00   0.01    -0.01   0.00  -0.00
                     37                     38                     39
                        a                      a                      a 
 Frequencies --  1479.4095              1484.4867              1488.6803
 Red. masses --     1.7673                 1.7961                 1.6371
 Frc consts  --     0.0000                 0.0000                 0.0000
 IR Inten    --     1.0789                 0.5646                 0.1601
 Raman Activ --     0.0000                 0.0000                 0.0000
 Depolar     --     0.0000                 0.0000                 0.0000
 Atom AN      X      Y      Z        X      Y      Z        X      Y      Z
   1   6    -0.04   0.01   0.01    -0.01  -0.03  -0.03     0.00  -0.02   0.03
   2   6    -0.06   0.13   0.04    -0.04   0.10   0.06    -0.02   0.02   0.01
   3   6     0.03   0.05  -0.15    -0.02  -0.06   0.17     0.02   0.03  -0.08
   4   6    -0.03  -0.00   0.01    -0.04   0.02   0.04     0.00   0.03   0.00
   5   6    -0.08   0.05   0.03    -0.07   0.07   0.02     0.13   0.03   0.12
   6   6     0.01  -0.06   0.07    -0.08   0.00  -0.04    -0.09   0.06  -0.05
   7   8     0.00   0.00  -0.00     0.00  -0.01  -0.00     0.00  -0.00  -0.00
   8   1     0.02   0.07   0.01     0.02   0.04  -0.01     0.04   0.02  -0.09
   9   1     0.11  -0.02  -0.03     0.00   0.02   0.09     0.00   0.01   0.03
  10   1     0.01  -0.07   0.01     0.00   0.08   0.00    -0.07   0.06  -0.05
  11   1     0.23  -0.13  -0.22     0.18  -0.11  -0.19     0.07  -0.03  -0.03
  12   1    -0.02  -0.34   0.03    -0.02  -0.28   0.03    -0.00  -0.07   0.01
  13   1    -0.11  -0.30   0.21     0.12   0.35  -0.24    -0.05  -0.16   0.11
  14   1     0.02   0.12   0.37    -0.03  -0.13  -0.42    -0.01   0.07   0.20
  15   1    -0.05   0.10  -0.14    -0.05   0.06  -0.15    -0.13  -0.31  -0.37
  16   1     0.19  -0.09   0.16     0.16  -0.11   0.19    -0.49  -0.03  -0.03
  17   1     0.18  -0.21  -0.17     0.18  -0.22  -0.17     0.14   0.20  -0.06
  18   1     0.17   0.02  -0.14     0.04   0.16  -0.03    -0.03   0.13   0.02
  19   1    -0.10   0.09   0.11     0.27  -0.03   0.06     0.36  -0.09  -0.02
  20   1    -0.09   0.14  -0.24     0.01  -0.19   0.07     0.04  -0.29   0.18
  21   1     0.00  -0.00   0.00    -0.02   0.01  -0.02    -0.01  -0.00   0.00
                     40                     41                     42
                        a                      a                      a 
 Frequencies --  1497.4866              1504.1467              1505.3475
 Red. masses --     1.6033                 1.5706                 1.7455
 Frc consts  --     0.0000                 0.0000                 0.0000
 IR Inten    --     1.1045                 0.8019                 0.4147
 Raman Activ --     0.0000                 0.0000                 0.0000
 Depolar     --     0.0000                 0.0000                 0.0000
 Atom AN      X      Y      Z        X      Y      Z        X      Y      Z
   1   6    -0.12  -0.04   0.10     0.10  -0.04  -0.05    -0.09  -0.00   0.03
   2   6    -0.02  -0.04  -0.00     0.00   0.08   0.04    -0.08   0.15   0.05
   3   6     0.03   0.01  -0.04     0.00   0.03  -0.05    -0.03  -0.01   0.07
   4   6    -0.03   0.01  -0.04    -0.01  -0.02  -0.05     0.06  -0.02  -0.02
   5   6    -0.07  -0.05  -0.05     0.00  -0.07  -0.10     0.10  -0.05  -0.03
   6   6    -0.06   0.08  -0.04    -0.07   0.04  -0.00     0.06  -0.01   0.01
   7   8     0.00  -0.00   0.00     0.00   0.00   0.00    -0.01   0.00  -0.00
   8   1     0.23   0.35  -0.25    -0.09  -0.22  -0.00     0.10   0.20  -0.05
   9   1     0.44  -0.07  -0.00    -0.38   0.10   0.17     0.28  -0.05  -0.04
  10   1    -0.19  -0.10  -0.15     0.02   0.32   0.02    -0.05  -0.13  -0.04
  11   1    -0.05   0.02   0.03     0.16  -0.10  -0.17     0.29  -0.16  -0.24
  12   1     0.01   0.09   0.01    -0.03  -0.25  -0.00    -0.00  -0.39   0.07
  13   1    -0.05  -0.09   0.07    -0.06  -0.11   0.09     0.03   0.12  -0.08
  14   1    -0.02   0.04   0.12     0.01   0.05   0.14    -0.00  -0.05  -0.14
  15   1     0.08   0.21   0.21     0.13   0.12   0.35     0.04  -0.15   0.13
  16   1     0.28   0.04  -0.02     0.13   0.11  -0.14    -0.26   0.10  -0.19
  17   1    -0.08  -0.08   0.04    -0.27   0.06   0.21    -0.22   0.26   0.20
  18   1    -0.08   0.06   0.07     0.04   0.11  -0.02    -0.06  -0.13   0.04
  19   1     0.26  -0.10  -0.07     0.24  -0.05   0.00    -0.22   0.02  -0.04
  20   1     0.05  -0.26   0.19     0.00  -0.19   0.06     0.01   0.16  -0.02
  21   1     0.01   0.00  -0.00     0.01  -0.00   0.00     0.01  -0.01   0.01
                     43                     44                     45
                        a                      a                      a 
 Frequencies --  1514.0861              2943.3950              2957.5495
 Red. masses --     1.5675                 1.8465                 1.8585
 Frc consts  --     0.0000                 0.0000                 0.0000
 IR Inten    --     1.4762                78.6427                64.4833
 Raman Activ --     0.0000                 0.0000                 0.0000
 Depolar     --     0.0000                 0.0000                 0.0000
 Atom AN      X      Y      Z        X      Y      Z        X      Y      Z
   1   6    -0.05   0.16  -0.09     0.00  -0.00   0.00    -0.02   0.00   0.00
   2   6    -0.03   0.06  -0.02     0.04  -0.00  -0.03     0.19   0.04  -0.18
   3   6     0.01  -0.00  -0.01     0.06   0.20   0.18    -0.02  -0.08  -0.01
   4   6    -0.01   0.01  -0.03     0.00   0.01   0.01    -0.00  -0.00   0.00
   5   6    -0.01  -0.01  -0.01     0.00  -0.00  -0.00     0.00  -0.00   0.00
   6   6    -0.04   0.03  -0.07    -0.01  -0.00   0.00     0.00   0.00  -0.00
   7   8     0.00  -0.00   0.00    -0.00  -0.00  -0.00     0.00   0.00   0.00
   8   1    -0.20  -0.09   0.46    -0.00   0.00   0.00     0.04  -0.02   0.02
   9   1     0.08  -0.09  -0.32     0.00   0.01  -0.00     0.00   0.02  -0.00
  10   1     0.34  -0.48   0.25     0.00  -0.00  -0.00     0.03  -0.00  -0.05
  11   1     0.06  -0.01  -0.02     0.01   0.02  -0.01    -0.05  -0.25   0.06
  12   1     0.00  -0.07   0.01    -0.14   0.01   0.13    -0.65   0.09   0.59
  13   1    -0.03  -0.03   0.03    -0.14  -0.49  -0.75     0.01   0.05   0.09
  14   1     0.00   0.01   0.05    -0.06  -0.22   0.10     0.07   0.23  -0.07
  15   1     0.02   0.04   0.07    -0.00  -0.00   0.00     0.00  -0.00  -0.00
  16   1     0.05   0.02  -0.02    -0.00   0.01   0.01    -0.00   0.00   0.00
  17   1    -0.04  -0.01   0.03    -0.00   0.00  -0.00    -0.00   0.00  -0.00
  18   1    -0.12   0.08   0.11     0.00  -0.00   0.00    -0.00   0.00  -0.00
  19   1     0.17  -0.06  -0.04     0.00   0.01  -0.00    -0.00  -0.00   0.00
  20   1     0.06  -0.15   0.20     0.01   0.00  -0.00    -0.00   0.00   0.00
  21   1     0.00  -0.00   0.00    -0.00   0.00   0.00     0.00  -0.00  -0.00
                     46                     47                     48
                        a                      a                      a 
 Frequencies --  2976.7508              2995.5340              3020.5161
 Red. masses --     1.5920                 1.6204                 1.8373
 Frc consts  --     0.0000                 0.0000                 0.0000
 IR Inten    --    84.1192                63.9226                61.4852
 Raman Activ --     0.0000                 0.0000                 0.0000
 Depolar     --     0.0000                 0.0000                 0.0000
 Atom AN      X      Y      Z        X      Y      Z        X      Y      Z
   1   6    -0.01  -0.00   0.00    -0.02   0.03  -0.02    -0.00   0.01  -0.01
   2   6     0.04  -0.01  -0.04    -0.02  -0.23   0.03    -0.00  -0.00   0.00
   3   6     0.05   0.17  -0.13    -0.01  -0.04   0.00    -0.00  -0.00  -0.00
   4   6     0.00   0.01  -0.01    -0.00  -0.00   0.00     0.00  -0.01  -0.01
   5   6     0.00  -0.00   0.00    -0.01   0.00  -0.00     0.09  -0.20  -0.17
   6   6    -0.00  -0.00   0.00     0.00   0.00  -0.00    -0.02  -0.01   0.02
   7   8     0.00  -0.00   0.00     0.00   0.00   0.00     0.00   0.00   0.00
   8   1     0.02  -0.01   0.01     0.08  -0.03   0.02     0.03  -0.01   0.01
   9   1    -0.00   0.01  -0.00    -0.02  -0.10   0.02    -0.00  -0.02   0.01
  10   1     0.01   0.00  -0.01    -0.01   0.01   0.01    -0.01   0.00   0.01
  11   1     0.01   0.03  -0.02     0.26   0.83  -0.30    -0.00   0.01  -0.00
  12   1    -0.17   0.02   0.15    -0.19  -0.01   0.18     0.00   0.00  -0.00
  13   1     0.06   0.20   0.24     0.01   0.02   0.03     0.00   0.01   0.01
  14   1    -0.24  -0.83   0.24     0.03   0.09  -0.03     0.00   0.01  -0.00
  15   1    -0.00   0.00   0.00     0.01  -0.00  -0.00    -0.23  -0.01   0.05
  16   1    -0.00   0.00   0.00    -0.00  -0.01  -0.01    -0.09   0.74   0.55
  17   1    -0.00   0.00  -0.00     0.01   0.00   0.01     0.02  -0.03  -0.02
  18   1     0.00  -0.00   0.00    -0.00  -0.00  -0.00    -0.01  -0.00  -0.01
  19   1     0.00   0.02  -0.01    -0.00  -0.00   0.00     0.01   0.05  -0.04
  20   1     0.00  -0.00  -0.00    -0.00   0.00   0.00     0.07  -0.01  -0.03
  21   1     0.00   0.00  -0.00    -0.00  -0.00  -0.00     0.00  -0.00   0.00
                     49                     50                     51
                        a                      a                      a 
 Frequencies --  3025.4388              3032.6247              3034.8929
 Red. masses --     1.9018                 1.7015                 1.8233
 Frc consts  --     0.0000                 0.0000                 0.0000
 IR Inten    --    95.1898                13.4054                22.2882
 Raman Activ --     0.0000                 0.0000                 0.0000
 Depolar     --     0.0000                 0.0000                 0.0000
 Atom AN      X      Y      Z        X      Y      Z        X      Y      Z
   1   6    -0.24   0.14  -0.02     0.02   0.01  -0.01     0.10   0.18  -0.10
   2   6    -0.02   0.03   0.01     0.00  -0.00  -0.00     0.01   0.02  -0.01
   3   6     0.00   0.00   0.00    -0.00  -0.00   0.00     0.00   0.00  -0.00
   4   6     0.00   0.00   0.00     0.00   0.00   0.00    -0.01  -0.00   0.00
   5   6    -0.00   0.01   0.00     0.20   0.04  -0.01    -0.09   0.00   0.01
   6   6    -0.02  -0.01   0.01    -0.12  -0.04   0.07    -0.09  -0.04   0.07
   7   8    -0.00  -0.00  -0.00    -0.00  -0.00  -0.00     0.00  -0.00  -0.00
   8   1     0.77  -0.34   0.25    -0.06   0.03  -0.02    -0.12   0.08  -0.06
   9   1    -0.07  -0.20   0.06    -0.01  -0.08   0.02    -0.09  -0.72   0.20
  10   1     0.15   0.04  -0.22    -0.01   0.00   0.02    -0.16   0.01   0.19
  11   1    -0.03  -0.08   0.03     0.00   0.01  -0.00    -0.02  -0.07   0.03
  12   1     0.06  -0.00  -0.05    -0.01   0.00   0.01    -0.02   0.00   0.01
  13   1    -0.00  -0.01  -0.02     0.00   0.00   0.00     0.00   0.00   0.00
  14   1    -0.00  -0.01   0.00     0.00   0.01  -0.00    -0.00  -0.01   0.00
  15   1    -0.00   0.00   0.00    -0.74   0.06   0.25     0.31  -0.02  -0.11
  16   1     0.00  -0.03  -0.02     0.06  -0.21  -0.16    -0.02   0.02   0.02
  17   1     0.01   0.00   0.01    -0.02   0.01  -0.07     0.03  -0.00   0.05
  18   1     0.01  -0.00   0.02    -0.02  -0.01   0.01    -0.02  -0.01  -0.00
  19   1     0.01   0.05  -0.03     0.03   0.19  -0.12     0.03   0.19  -0.12
  20   1     0.05  -0.01  -0.02     0.40  -0.03  -0.15     0.31  -0.03  -0.11
  21   1     0.00   0.00   0.00     0.00   0.00   0.00    -0.00   0.00   0.00
                     52                     53                     54
                        a                      a                      a 
 Frequencies --  3035.2524              3044.1024              3045.3565
 Red. masses --     1.9000                 1.5079                 1.3967
 Frc consts  --     0.0000                 0.0000                 0.0000
 IR Inten    --   157.5215                48.7048                38.5408
 Raman Activ --     0.0000                 0.0000                 0.0000
 Depolar     --     0.0000                 0.0000                 0.0000
 Atom AN      X      Y      Z        X      Y      Z        X      Y      Z
   1   6    -0.06  -0.12   0.09     0.00  -0.00  -0.00     0.05  -0.03  -0.17
   2   6    -0.01  -0.02   0.01     0.00  -0.00  -0.00     0.01   0.00  -0.01
   3   6    -0.00  -0.01  -0.00    -0.00  -0.00   0.00     0.00  -0.00   0.00
   4   6    -0.01  -0.00   0.00     0.00  -0.01   0.00    -0.00  -0.00   0.00
   5   6    -0.10  -0.00   0.01     0.01   0.01  -0.00    -0.01   0.00   0.00
   6   6    -0.17  -0.08   0.11     0.09  -0.18   0.07    -0.02  -0.01   0.02
   7   8     0.00   0.00  -0.00    -0.00   0.00   0.00     0.00   0.00   0.00
   8   1    -0.03  -0.01   0.01    -0.01   0.00  -0.00     0.31  -0.14   0.07
   9   1     0.06   0.44  -0.12     0.00   0.01  -0.00     0.05   0.29  -0.11
  10   1     0.16  -0.01  -0.19    -0.01  -0.00   0.01    -0.55  -0.04   0.65
  11   1     0.02   0.05  -0.02     0.00   0.00  -0.00    -0.00  -0.02   0.00
  12   1     0.01  -0.00  -0.01    -0.00   0.00   0.00    -0.02   0.00   0.01
  13   1     0.00   0.00   0.01    -0.00  -0.00  -0.00     0.00   0.00   0.00
  14   1     0.01   0.02  -0.01     0.00   0.01  -0.00     0.00   0.00  -0.00
  15   1     0.35  -0.02  -0.12    -0.04   0.00   0.01     0.03  -0.00  -0.01
  16   1    -0.02   0.03   0.02     0.00  -0.02  -0.02     0.00  -0.01  -0.01
  17   1     0.03  -0.01   0.06     0.00   0.00   0.00     0.00  -0.00   0.01
  18   1    -0.01  -0.01   0.03     0.01  -0.02   0.01    -0.03   0.00  -0.02
  19   1     0.06   0.33  -0.21     0.18   0.66  -0.44     0.01   0.04  -0.03
  20   1     0.54  -0.05  -0.20    -0.50   0.01   0.21     0.09  -0.01  -0.03
  21   1    -0.00  -0.00   0.00    -0.00  -0.01  -0.01     0.00  -0.00  -0.00
                     55                     56                     57
                        a                      a                      a 
 Frequencies --  3058.2711              3085.1341              3506.7204
 Red. masses --     1.6449                 1.7106                 1.8684
 Frc consts  --     0.0000                 0.0000                 0.0000
 IR Inten    --    28.3914                35.4758                39.1570
 Raman Activ --     0.0000                 0.0000                 0.0000
 Depolar     --     0.0000                 0.0000                 0.0000
 Atom AN      X      Y      Z        X      Y      Z        X      Y      Z
   1   6     0.00  -0.00   0.00     0.01   0.00  -0.01     0.00  -0.00  -0.00
   2   6     0.00   0.00  -0.00     0.00   0.00  -0.00     0.00  -0.00   0.00
   3   6     0.00   0.00  -0.00    -0.00  -0.00  -0.00     0.00  -0.00   0.00
   4   6    -0.00   0.00  -0.01    -0.01   0.00  -0.01    -0.00  -0.00  -0.01
   5   6    -0.12   0.03  -0.20    -0.01   0.00  -0.02    -0.00   0.00  -0.00
   6   6     0.02   0.00   0.01    -0.16   0.02  -0.19    -0.00  -0.00  -0.00
   7   8     0.00   0.00   0.00     0.00  -0.00   0.00    -0.02  -0.19  -0.14
   8   1    -0.01   0.00  -0.00    -0.01   0.00  -0.00    -0.00   0.00   0.00
   9   1     0.00   0.01  -0.00     0.00  -0.00   0.00     0.00   0.00  -0.00
  10   1     0.00  -0.00  -0.00    -0.03   0.00   0.03    -0.00  -0.00   0.00
  11   1    -0.00  -0.01   0.00    -0.00  -0.00   0.00     0.00   0.00  -0.00
  12   1    -0.00  -0.00   0.00    -0.00  -0.00   0.00     0.00   0.00   0.00
  13   1    -0.00   0.00   0.00     0.00   0.00   0.00    -0.00   0.00   0.00
  14   1    -0.00  -0.00   0.00     0.00   0.00  -0.00     0.00   0.00  -0.00
  15   1    -0.13   0.01   0.01    -0.01   0.00   0.00     0.00  -0.00  -0.00
  16   1    -0.01  -0.03  -0.05    -0.00   0.01   0.00    -0.00   0.00   0.00
  17   1     0.58  -0.08   0.75     0.05  -0.01   0.06     0.00  -0.00   0.00
  18   1    -0.05   0.01  -0.06     0.63  -0.09   0.72     0.00  -0.00   0.00
  19   1    -0.00  -0.03   0.02    -0.02   0.00  -0.02     0.00   0.01  -0.00
  20   1    -0.03   0.00   0.01    -0.03   0.01  -0.02    -0.01   0.00   0.00
  21   1     0.00  -0.00  -0.00    -0.00  -0.00  -0.00     0.10   0.78   0.57
