
                                 *****************
                                 * O   R   C   A *
                                 *****************

                                            #,                                       
                                            ###                                      
                                            ####                                     
                                            #####                                    
                                            ######                                   
                                           ########,                                 
                                     ,,################,,,,,                         
                               ,,#################################,,                 
                          ,,##########################################,,             
                       ,#########################################, ''#####,          
                    ,#############################################,,   '####,        
                  ,##################################################,,,,####,       
                ,###########''''           ''''###############################       
              ,#####''   ,,,,##########,,,,          '''####'''          '####       
            ,##' ,,,,###########################,,,                        '##       
           ' ,,###''''                  '''############,,,                           
         ,,##''                                '''############,,,,        ,,,,,,###''
      ,#''                                            '''#######################'''  
     '                                                          ''''####''''         
             ,#######,   #######,   ,#######,      ##                                
            ,#'     '#,  ##    ##  ,#'     '#,    #''#        ,####,   ,####,        
            ##       ##  ##   ,#'  ##            #'  '#       #'       #'  '#        
            ##       ##  #######   ##           ,######,      #####,   #    #        
            '#,     ,#'  ##    ##  '#,     ,#' ,#      #,     #,   #   #,  ,#        
             '#######'   ##     ##  '#######'  #'      '#     '####' # '####'        



                #########################################################
                #                        -***-                          #
                #          Department of theory and spectroscopy        #
                #                                                       #
                #                      Frank Neese                      #
                #                                                       #
                #     Directorship, Architecture, Infrastructure        #
                #                    SHARK, DRIVERS                     #
                #        Core code/Algorithms in most modules           #
                #                                                       #
                #        Max Planck Institute fuer Kohlenforschung      #
                #                Kaiser Wilhelm Platz 1                 #
                #                 D-45470 Muelheim/Ruhr                 #
                #                      Germany                          #
                #                                                       #
                #                  All rights reserved                  #
                #                        -***-                          #
                #########################################################


                         Program Version 6.0.0  -   RELEASE  -


 With contributions from (in alphabetic order):
   Daniel Aravena         : Magnetic Suceptibility
   Michael Atanasov       : Ab Initio Ligand Field Theory (pilot matlab implementation)
   Alexander A. Auer      : GIAO ZORA, VPT2 properties, NMR spectrum
   Ute Becker             : All parallelization in ORCA, NUMFREQ, NUMCALC
   Giovanni Bistoni       : ED, misc. LED, open-shell LED, HFLD
   Martin Brehm           : Molecular dynamics
   Dmytro Bykov           : pre 5.0 version of the SCF Hessian
   Marcos Casanova-Páez   : Triplet and SCS-CIS(D). UHF-(DLPNO)-IP/EA/STEOM-CCSD. UHF-CVS-IP/STEOM-CCSD
   Vijay G. Chilkuri      : MRCI spin determinant printing, contributions to CSF-ICE
   Pauline Colinet        : FMM embedding
   Dipayan Datta          : RHF DLPNO-CCSD density
   Achintya Kumar Dutta   : EOM-CC, STEOM-CC
   Nicolas Foglia         : Exact transition moments, OPA infrastructure, MCD improvements
   Dmitry Ganyushin       : Spin-Orbit,Spin-Spin,Magnetic field MRCI
   Miquel Garcia          : C-PCM and meta-GGA Hessian, CCSD/C-PCM, Gaussian charge scheme
   Tiago L. C. Gouveia    : GS-ROHF, GS-ROCIS
   Yang Guo               : DLPNO-NEVPT2, F12-NEVPT2, CIM, IAO-localization
   Andreas Hansen         : Spin unrestricted coupled pair/coupled cluster methods
   Ingolf Harden          : AUTO-CI MPn and infrastructure 
   Benjamin Helmich-Paris : MC-RPA, TRAH-(SCF,CASSCF), AVAS, COSX integrals, SCF dyn. polar.
   Lee Huntington         : MR-EOM, pCC
   Robert Izsak           : Overlap fitted RIJCOSX, COSX-SCS-MP3, EOM
   Riya Kayal             : Wick's Theorem for AUTO-CI, AUTO-CI UHF-CCSDT
   Emily Kempfer          : AUTO-CI, RHF CISDT and CCSDT
   Christian Kollmar      : KDIIS, OOCD, Brueckner-CCSD(T), CCSD density, CASPT2, CASPT2-K, improved NEVPT2
   Axel Koslowski         : Symmetry handling
   Simone Kossmann        : Meta GGA functionals, TD-DFT gradient, OOMP2, (MP2 Hessian; deprecated post 5.0)
   Lucas Lang             : DCDCAS
   Marvin Lechner         : AUTO-CI (C++ implementation), FIC-MRCC
   Spencer Leger          : CASSCF response
   Dagmar Lenk            : GEPOL surface, SMD, ORCA-2-JSON
   Dimitrios Liakos       : Extrapolation schemes; Compound Job, initial MDCI parallelization
   Dimitrios Manganas     : Further ROCIS development; embedding schemes. LFT, Crystal Embedding
   Dimitrios Pantazis     : SARC Basis sets
   Anastasios Papadopoulos: AUTO-CI, single reference methods and gradients
   Taras Petrenko         : pre 6.0 DFT Hessian and TD-DFT gradient, (ASA, deprecated), ECA, 1-Electron XAS/XES, NRVS
   Peter Pinski           : DLPNO-MP2, DLPNO-MP2 Gradient
   Christoph Reimann      : Effective Core Potentials
   Marius Retegan         : Local ZFS, SOC
   Christoph Riplinger    : Optimizer, TS searches, QM/MM, DLPNO-CCSD(T), (RO)-DLPNO pert. Triples
   Michael Roemelt        : Original ROCIS implementation
   Masaaki Saitow         : Open-shell DLPNO-CCSD energy and density
   Barbara Sandhoefer     : DKH picture change effects
   Kantharuban Sivalingam : CASSCF convergence/infrastructure, NEVPT2 and variants, FIC-MRCI
   Bernardo de Souza      : ESD, SOC TD-DFT
   Georgi Stoychev        : AutoAux, RI-MP2 NMR, DLPNO-MP2 response, X2C
   Van Anh Tran           : RI-MP2 g-tensors
   Willem Van den Heuvel  : Paramagnetic NMR
   Zikuan Wang            : NOTCH, Electric field optimization 
   Frank Wennmohs         : Technical directorship and infrastructure
   Hang Xu                : AUTO-CI-Response properties 


 We gratefully acknowledge several colleagues who have allowed us to
 interface, adapt or use parts of their codes:
   Stefan Grimme, W. Hujo, H. Kruse, P. Pracht,  : VdW corrections, initial TS optimization,
                  C. Bannwarth, S. Ehlert,         DFT functionals, gCP, sTDA/sTD-DF
                  L. Wittmann, M. Mueller
   Ed Valeev, F. Pavosevic, A. Kumar             : LibInt (2-el integral package), F12 methods
   Garnet Chan, S. Sharma, J. Yang, R. Olivares  : DMRG
   Ulf Ekstrom                                   : XCFun DFT Library
   Mihaly Kallay                                 : mrcc  (arbitrary order and MRCC methods)
   Frank Weinhold                                : gennbo (NPA and NBO analysis)
   Simon Mueller                                 : openCOSMO-RS
   Christopher J. Cramer and Donald G. Truhlar   : smd solvation model
   Lars Goerigk                                  : TD-DFT with DH, B97 family of functionals
   V. Asgeirsson, H. Jonsson                     : NEB implementation
   FAccTs GmbH                                   : IRC, NEB, NEB-TS, DLPNO-Multilevel, CI-OPT
                                                   MM, QMMM, 2- and 3-layer-ONIOM, Crystal-QMMM,
                                                   LR-CPCM, SF, NACMEs, symmetry and pop. for TD-DFT,
                                                   nearIR, NL-DFT gradient (VV10), updates on ESD,
                                                   ML-optimized integration grids, MBIS, APM,
                                                   GOAT, DOCKER, SOLVATOR, interface openCOSMO-RS
   S Lehtola, MJT Oliveira, MAL Marques          : LibXC Library
   Liviu Ungur et al                             : ANISO software


 Your calculation uses the libint2 library for the computation of 2-el integrals
 For citations please refer to: http://libint.valeyev.net

 Your ORCA version has been built with support for libXC version: 6.2.2
 For citations please refer to: https://libxc.gitlab.io

 This ORCA versions uses:
   CBLAS   interface :  Fast vector & matrix operations
   LAPACKE interface :  Fast linear algebra routines
   SCALAPACK package :  Parallel linear algebra routines
   Shared memory     :  Shared parallel matrices
   BLAS/LAPACK       :  OpenBLAS 0.3.27  USE64BITINT DYNAMIC_ARCH NO_AFFINITY SkylakeX SINGLE_THREADED
        Core in use  :  SkylakeX
   Copyright (c) 2011-2014, The OpenBLAS Project


Your calculation utilizes the geometrical counterpoise correction gCP
Please cite in your paper:
H.Kruse, S. Grimme J.Chem.Phys., 136, (2012), 154101 
   

Your calculation utilizes the atom-pairwise dispersion correction
based on EEQ partial charges (D4)


Your calculation utilizes the SMD solvation module
Please cite in your paper:
A.V. Marenich, C.J. Cramer, D.G. Truhlar J. Phys. Chem. B, 113, (2009), 6378 

================================================================================

----- Orbital basis set information -----
Your calculation utilizes the basis: def2-mTZVPP
   Stefan Grimme, Andreas Hansen, Sebastian Ehlert, and Jan-Michael Mewes 
   J. Chem. Phys. 154, 064103 (2021). DOI: 10.1063/5.0040021

----- AuxJ basis set information -----
Your calculation utilizes the auxiliary basis: def2/J
   F. Weigend, Phys. Chem. Chem. Phys. 8, 1057 (2006).

================================================================================
                                        WARNINGS
                       Please study these warnings very carefully!
================================================================================

Using LibXC functional ID 497 : Re-regularized SCAN exchange by Furness et al
[ 1]  J. W. Furness, A. D. Kaplan, J. Ning, J. P. Perdew, and J. Sun.,  J. Phys. Chem. Lett. 11, 8208-8215 (2020)
[ 2]  J. W. Furness, A. D. Kaplan, J. Ning, J. P. Perdew, and J. Sun.,  J. Phys. Chem. Lett. 11, 9248-9248 (2020)
Using LibXC functional ID 498 : Re-regularized SCAN correlation by Furness et al
[ 1]  J. W. Furness, A. D. Kaplan, J. Ning, J. P. Perdew, and J. Sun.,  J. Phys. Chem. Lett. 11, 8208-8215 (2020)
[ 2]  J. W. Furness, A. D. Kaplan, J. Ning, J. P. Perdew, and J. Sun.,  J. Phys. Chem. Lett. 11, 9248-9248 (2020)
Using LibXC functional ID 497 : Re-regularized SCAN exchange by Furness et al
[ 1]  J. W. Furness, A. D. Kaplan, J. Ning, J. P. Perdew, and J. Sun.,  J. Phys. Chem. Lett. 11, 8208-8215 (2020)
[ 2]  J. W. Furness, A. D. Kaplan, J. Ning, J. P. Perdew, and J. Sun.,  J. Phys. Chem. Lett. 11, 9248-9248 (2020)
Using LibXC functional ID 498 : Re-regularized SCAN correlation by Furness et al
[ 1]  J. W. Furness, A. D. Kaplan, J. Ning, J. P. Perdew, and J. Sun.,  J. Phys. Chem. Lett. 11, 8208-8215 (2020)
[ 2]  J. W. Furness, A. D. Kaplan, J. Ning, J. P. Perdew, and J. Sun.,  J. Phys. Chem. Lett. 11, 9248-9248 (2020)

================================================================================
                                       INPUT FILE
================================================================================
NAME = sp_solv.inp
|  1> ! r2scan-3c def2/J RI DEFGRID2 scfconv6 printgap
|  2> %output
|  3>     printlevel normal
|  4> end
|  5> %cpcm
|  6>     smd true
|  7>     smdsolvent "water"
|  8> end
|  9> * xyz 0 1
| 10> C -2.1784866411 0.3133540653 -1.135288958
| 11> C -2.1596428363 -0.6031968518 0.0818602553
| 12> C -1.224052155 -0.1742910715 1.2171852275
| 13> C 0.2874686839 -0.0805967159 0.9457540883
| 14> C 0.8963758867 -1.1790741124 0.0458217186
| 15> C 1.7681767922 -0.4541379429 -0.9891951456
| 16> C 2.0578130749 0.9062089442 -0.3600140356
| 17> C 0.7375668172 1.2502340261 0.3208560821
| 18> H -2.9688234804 0.0054357875 -1.8171391118
| 19> H -2.3687079679 1.3421793717 -0.837149621
| 20> H -1.2361742675 0.2693196466 -1.6732456115
| 21> H -3.1683317378 -0.6393675586 0.5025859749
| 22> H -1.9165841749 -1.6184533751 -0.2370178029
| 23> H -1.549771627 0.802303331 1.5847690266
| 24> H -1.3735571101 -0.8899334482 2.0304878744
| 25> H 0.7717423927 -0.1469275822 1.9267684569
| 26> H 1.5042321502 -1.8565828565 0.6460464255
| 27> H 0.1327512064 -1.7772941849 -0.4443569832
| 28> H 2.6765932182 -1.0080612075 -1.2222643578
| 29> H 1.2127458087 -0.3136801505 -1.9180232801
| 30> H 2.8494722861 0.8120550755 0.3854195576
| 31> H 2.3609897112 1.6515736225 -1.0941389552
| 32> H 0.8462249633 2.029852611 1.0746499349
| 33> H 0.0199629032 1.5937892747 -0.4205848625
| 34> *
| 35> 
| 36>                          ****END OF INPUT****
================================================================================

                       ****************************
                       * Single Point Calculation *
                       ****************************

---------------------------------
CARTESIAN COORDINATES (ANGSTROEM)
---------------------------------
  C     -2.178487    0.313354   -1.135289
  C     -2.159643   -0.603197    0.081860
  C     -1.224052   -0.174291    1.217185
  C      0.287469   -0.080597    0.945754
  C      0.896376   -1.179074    0.045822
  C      1.768177   -0.454138   -0.989195
  C      2.057813    0.906209   -0.360014
  C      0.737567    1.250234    0.320856
  H     -2.968823    0.005436   -1.817139
  H     -2.368708    1.342179   -0.837150
  H     -1.236174    0.269320   -1.673246
  H     -3.168332   -0.639368    0.502586
  H     -1.916584   -1.618453   -0.237018
  H     -1.549772    0.802303    1.584769
  H     -1.373557   -0.889933    2.030488
  H      0.771742   -0.146928    1.926768
  H      1.504232   -1.856583    0.646046
  H      0.132751   -1.777294   -0.444357
  H      2.676593   -1.008061   -1.222264
  H      1.212746   -0.313680   -1.918023
  H      2.849472    0.812055    0.385420
  H      2.360990    1.651574   -1.094139
  H      0.846225    2.029853    1.074650
  H      0.019963    1.593789   -0.420585

----------------------------
CARTESIAN COORDINATES (A.U.)
----------------------------
  NO LB      ZA    FRAG     MASS         X           Y           Z
   0 C     6.0000    0    12.011   -4.116743    0.592153   -2.145385
   1 C     6.0000    0    12.011   -4.081134   -1.139877    0.154693
   2 C     6.0000    0    12.011   -2.313123   -0.329362    2.300147
   3 C     6.0000    0    12.011    0.543237   -0.152306    1.787216
   4 C     6.0000    0    12.011    1.693905   -2.228127    0.086590
   5 C     6.0000    0    12.011    3.341370   -0.858196   -1.869308
   6 C     6.0000    0    12.011    3.888703    1.712487   -0.680328
   7 C     6.0000    0    12.011    1.393799    2.362600    0.606330
   8 H     1.0000    0     1.008   -5.610263    0.010272   -3.433895
   9 H     1.0000    0     1.008   -4.476209    2.536351   -1.581984
  10 H     1.0000    0     1.008   -2.336031    0.508940   -3.161976
  11 H     1.0000    0     1.008   -5.987279   -1.208230    0.949750
  12 H     1.0000    0     1.008   -3.621819   -3.058434   -0.447899
  13 H     1.0000    0     1.008   -2.928644    1.516134    2.994779
  14 H     1.0000    0     1.008   -2.595647   -1.681730    3.837066
  15 H     1.0000    0     1.008    1.458382   -0.277653    3.641065
  16 H     1.0000    0     1.008    2.842587   -3.508433    1.220851
  17 H     1.0000    0     1.008    0.250863   -3.358599   -0.839713
  18 H     1.0000    0     1.008    5.058028   -1.904960   -2.309745
  19 H     1.0000    0     1.008    2.291757   -0.592770   -3.624539
  20 H     1.0000    0     1.008    5.384722    1.534562    0.728337
  21 H     1.0000    0     1.008    4.461624    3.121022   -2.067623
  22 H     1.0000    0     1.008    1.599133    3.835866    2.030794
  23 H     1.0000    0     1.008    0.037724    3.011825   -0.794790

--------------------------------
INTERNAL COORDINATES (ANGSTROEM)
--------------------------------
 C      0   0   0     0.000000000000     0.00000000     0.00000000
 C      1   0   0     1.523769300141     0.00000000     0.00000000
 C      2   1   0     1.532401019254   115.53049426     0.00000000
 C      3   2   1     1.538554107605   119.08787995   298.38970568
 C      4   3   2     1.545088619555   116.52752574   320.93034221
 C      5   4   3     1.535196787991   106.30552075   132.50440782
 C      6   5   4     1.526532573737   104.51727994    20.68844028
 C      7   6   5     1.524790987357   102.75726813   321.75815517
 H      1   2   3     1.088285632357   109.83142731   188.01428023
 H      1   2   3     1.087912095955   110.61542729   307.37857641
 H      1   2   3     1.085950735768   111.13550122    68.62030278
 H      2   1   3     1.093513489250   108.41002570   119.64615126
 H      2   1   3     1.091561513148   109.19972089   235.51019699
 H      3   2   1     1.093136611223   108.49745405    61.43342462
 H      3   2   1     1.093598161293   106.52077215   176.41889725
 H      4   3   2     1.096042882491   105.81218802   201.28041413
 H      5   4   3     1.090310521907   109.92829122   251.95759405
 H      5   4   3     1.086860187514   112.15490499    11.28709570
 H      6   5   4     1.089207346545   112.19349581   142.90273023
 H      6   5   4     1.091308238912   110.21629822   263.20076624
 H      7   6   5     1.091448807567   110.01366114    78.90215245
 H      7   6   5     1.089230909419   112.63293376   200.09473691
 H      8   7   6     1.089870131325   112.57600009   162.03419113
 H      8   7   6     1.087529429743   109.76572827   282.54466789

---------------------------
INTERNAL COORDINATES (A.U.)
---------------------------
 C      0   0   0     0.000000000000     0.00000000     0.00000000
 C      1   0   0     2.879506668544     0.00000000     0.00000000
 C      2   1   0     2.895818253732   115.53049426     0.00000000
 C      3   2   1     2.907445905593   119.08787995   298.38970568
 C      4   3   2     2.919794343597   116.52752574   320.93034221
 C      5   4   3     2.901101490979   106.30552075   132.50440782
 C      6   5   4     2.884728498873   104.51727994    20.68844028
 C      7   6   5     2.881437377575   102.75726813   321.75815517
 H      1   2   3     2.056561800636   109.83142731   188.01428023
 H      1   2   3     2.055855919135   110.61542729   307.37857641
 H      1   2   3     2.052149485532   111.13550122    68.62030278
 H      2   1   3     2.066441018432   108.41002570   119.64615126
 H      2   1   3     2.062752318179   109.19972089   235.51019699
 H      3   2   1     2.065728822173   108.49745405    61.43342462
 H      3   2   1     2.066601025403   106.52077215   176.41889725
 H      4   3   2     2.071220878941   105.81218802   201.28041413
 H      5   4   3     2.060388287337   109.92829122   251.95759405
 H      5   4   3     2.053868100264   112.15490499    11.28709570
 H      6   5   4     2.058303588025   112.19349581   142.90273023
 H      6   5   4     2.062273699235   110.21629822   263.20076624
 H      7   6   5     2.062539335497   110.01366114    78.90215245
 H      7   6   5     2.058348115403   112.63293376   200.09473691
 H      8   7   6     2.059556069745   112.57600009   162.03419113
 H      8   7   6     2.055132784795   109.76572827   282.54466789

---------------------
BASIS SET INFORMATION
---------------------
There are 2 groups of distinct atoms

 Group   1 Type C   : 11s6p1d contracted to 5s3p1d pattern {62111/411/1}
 Group   2 Type H   : 4s1p contracted to 2s1p pattern {31/1}

Atom   0C    basis set group =>   1
Atom   1C    basis set group =>   1
Atom   2C    basis set group =>   1
Atom   3C    basis set group =>   1
Atom   4C    basis set group =>   1
Atom   5C    basis set group =>   1
Atom   6C    basis set group =>   1
Atom   7C    basis set group =>   1
Atom   8H    basis set group =>   2
Atom   9H    basis set group =>   2
Atom  10H    basis set group =>   2
Atom  11H    basis set group =>   2
Atom  12H    basis set group =>   2
Atom  13H    basis set group =>   2
Atom  14H    basis set group =>   2
Atom  15H    basis set group =>   2
Atom  16H    basis set group =>   2
Atom  17H    basis set group =>   2
Atom  18H    basis set group =>   2
Atom  19H    basis set group =>   2
Atom  20H    basis set group =>   2
Atom  21H    basis set group =>   2
Atom  22H    basis set group =>   2
Atom  23H    basis set group =>   2
---------------------------------
AUXILIARY/J BASIS SET INFORMATION
---------------------------------
There are 2 groups of distinct atoms

 Group   1 Type C   : 12s5p4d2f1g contracted to 6s4p3d1f1g pattern {711111/2111/211/2/1}
 Group   2 Type H   : 5s2p1d contracted to 3s1p1d pattern {311/2/1}

Atom   0C    basis set group =>   1
Atom   1C    basis set group =>   1
Atom   2C    basis set group =>   1
Atom   3C    basis set group =>   1
Atom   4C    basis set group =>   1
Atom   5C    basis set group =>   1
Atom   6C    basis set group =>   1
Atom   7C    basis set group =>   1
Atom   8H    basis set group =>   2
Atom   9H    basis set group =>   2
Atom  10H    basis set group =>   2
Atom  11H    basis set group =>   2
Atom  12H    basis set group =>   2
Atom  13H    basis set group =>   2
Atom  14H    basis set group =>   2
Atom  15H    basis set group =>   2
Atom  16H    basis set group =>   2
Atom  17H    basis set group =>   2
Atom  18H    basis set group =>   2
Atom  19H    basis set group =>   2
Atom  20H    basis set group =>   2
Atom  21H    basis set group =>   2
Atom  22H    basis set group =>   2
Atom  23H    basis set group =>   2

Checking for AutoStart:
The File: sp_solv.gbw exists
Trying to determine its content:
     ... Fine, the file contains calculation information
     ... Fine, the calculation information was read
     ... Fine, the file contains a basis set
     ... Fine, the basis set was read
     ... Fine, the file contains a geometry
     ... Fine, the geometry was read
     ... Fine, the file contains a set of orbitals
     ... Fine, the orbitals can be read
     => possible old guess file was deleted
     => GBW file was renamed to GES file
     => GES file is set as startup file
     => Guess is set to MORead
     ... now leaving AutoStart

------------------------------------------------------------------------------
                             ORCA STARTUP CALCULATIONS
                           -- RI-GTO INTEGRALS CHOSEN --
------------------------------------------------------------------------------
------------------------------------------------------------------------------
                   ___                                                        
                  /   \      - P O W E R E D   B Y -                         
                 /     \                                                     
                 |  |  |   _    _      __       _____    __    __             
                 |  |  |  | |  | |    /  \     |  _  \  |  |  /  |          
                  \  \/   | |  | |   /    \    | | | |  |  | /  /          
                 / \  \   | |__| |  /  /\  \   | |_| |  |  |/  /          
                |  |  |   |  __  | /  /__\  \  |    /   |      \           
                |  |  |   | |  | | |   __   |  |    \   |  |\   \          
                \     /   | |  | | |  |  |  |  | |\  \  |  | \   \       
                 \___/    |_|  |_| |__|  |__|  |_| \__\ |__|  \__/        
                                                                              
                      - O R C A' S   B I G   F R I E N D -                    
                                      &                                       
                       - I N T E G R A L  F E E D E R -                       
                                                                              
 v1 FN, 2020, v2 2021, v3 2022-2024                                           
------------------------------------------------------------------------------


----------------------
SHARK INTEGRAL PACKAGE
----------------------

Number of atoms                             ...     24
Number of basis functions                   ...    232
Number of shells                            ...    120
Maximum angular momentum                    ...      2
Integral batch strategy                     ... SHARK/LIBINT Hybrid
RI-J (if used) integral strategy            ... SPLIT-RIJ (Revised 2003 algorithm where possible)
Printlevel                                  ...      1
Contraction scheme used                     ... SEGMENTED contraction
Prescreening option                         ... SCHWARTZ
   Thresh                                   ... 1.000e-10
   Tcut                                     ... 1.000e-11
   Tpresel                                  ... 1.000e-11 
Coulomb Range Separation                    ... NOT USED
Exchange Range Separation                   ... NOT USED
Multipole approximations                    ... NOT USED
Finite Nucleus Model                        ... NOT USED
CABS basis                                  ... NOT available
Auxiliary Coulomb fitting basis             ... AVAILABLE
   # of basis functions in Aux-J            ...    568
   # of shells in Aux-J                     ...    200
   Maximum angular momentum in Aux-J        ...      4
Auxiliary J/K fitting basis                 ... NOT available
Auxiliary Correlation fitting basis         ... NOT available
Auxiliary 'external' fitting basis          ... NOT available

Checking pre-screening integrals            ... done (  0.0 sec) Dimension = 120
Check shell pair data                       ... done (  0.0 sec)
Shell pair information
Shell pair cut-off parameter TPreSel        ...   1.0e-11
Total number of shell pairs                 ...      7260
Shell pairs after pre-screening             ...      6641
Total number of primitive shell pairs       ...     25424
Primitive shell pairs kept                  ...     16535
          la=0 lb=0:   2395 shell pairs
          la=1 lb=0:   2625 shell pairs
          la=1 lb=1:    753 shell pairs
          la=2 lb=0:    532 shell pairs
          la=2 lb=1:    300 shell pairs
          la=2 lb=2:     36 shell pairs

Calculating one electron integrals          ... done (  0.0 sec)
Calculating RI/J V-Matrix + Cholesky decomp.... done (  0.1 sec)
Calculating Nuclear repulsion               ... done (  0.0 sec) ENN=    407.732439560960 Eh

Diagonalization of the overlap matrix:
Smallest eigenvalue                        ... 6.291e-05
Time for diagonalization                   ...    0.005 sec
Threshold for overlap eigenvalues          ... 1.000e-07
Number of eigenvalues below threshold      ... 0
Time for construction of square roots      ...    0.014 sec
Total time needed                          ...    0.028 sec

-------------------
DFT GRID GENERATION
-------------------

General Integration Accuracy     IntAcc      ... 4.388
Radial Grid Type                 RadialGrid  ... OptM3 with GC (2021)
Angular Grid (max. ang.)         AngularGrid ... 4 (Lebedev-302)
Angular grid pruning method      GridPruning ... 4 (adaptive)
Weight generation scheme         WeightScheme... mBecke (2022)
Basis function cutoff            BFCut       ... 1.0000e-10
Integration weight cutoff        WCut        ... 1.0000e-14
Partially contracted basis set               ... off
Rotationally invariant grid construction     ... off
Angular grids for H and He will be reduced by one unit

Total number of grid points                  ...    98541
Total number of batches                      ...     1554
Average number of points per batch           ...       63
Average number of grid points per atom       ...     4106
Initializing property integral containers    ... done (  0.0 sec)

SHARK setup successfully completed in   1.3 seconds

Maximum memory used throughout the entire STARTUP-calculation: 42.2 MB
-------------------------------------------------------------------------------
                                 ORCA GUESS
                   Start orbitals & Density for SCF / CASSCF
-------------------------------------------------------------------------------

------------
SCF SETTINGS
------------
Hamiltonian:
 Density Functional     Method          .... DFT(GTOs)
  Functional kind                       .... Exchange
  Functional name                       .... Re-regularized SCAN exchange by Furness et al
  Functional family                     .... MGGA
  Functional refs                              
    [ 0] J. W. Furness, A. D. Kaplan, J. Ning, J. P. Perdew, and J. Sun.,  J. Phys. Chem. Lett. 11, 8208-8215 (2020), doi: 10.1021/acs.jpclett.0c02405
    [ 1] J. W. Furness, A. D. Kaplan, J. Ning, J. P. Perdew, and J. Sun.,  J. Phys. Chem. Lett. 11, 9248-9248 (2020), doi: 10.1021/acs.jpclett.0c03077
  Functional external parameters        .... 6
    Parameter  0 _c1        =  6.670000e-01 : c1 parameter        
    Parameter  1 _c2        =  8.000000e-01 : c2 parameter        
    Parameter  2 _d         =  1.240000e+00 : d parameter         
    Parameter  3 _k1        =  6.500000e-02 : k1 parameter        
    Parameter  4 _eta       =  1.000000e-03 : eta parameter       
    Parameter  5 _dp2       =  3.610000e-01 : dp2 parameter       
  Functional kind                       .... Correlation
  Functional name                       .... Re-regularized SCAN correlation by Furness et al
  Functional family                     .... MGGA
  Functional refs                              
    [ 0] J. W. Furness, A. D. Kaplan, J. Ning, J. P. Perdew, and J. Sun.,  J. Phys. Chem. Lett. 11, 8208-8215 (2020), doi: 10.1021/acs.jpclett.0c02405
    [ 1] J. W. Furness, A. D. Kaplan, J. Ning, J. P. Perdew, and J. Sun.,  J. Phys. Chem. Lett. 11, 9248-9248 (2020), doi: 10.1021/acs.jpclett.0c03077
  Functional external parameters        .... 1
    Parameter  0 _eta       =  1.000000e-03 : Regularization parameter
 Gradients option       PostSCFGGA      .... off
 RI-approximation to the Coulomb term is turned on
   Number of AuxJ basis functions       .... 568


General Settings:
 Integral files         IntName         .... sp_solv
 Hartree-Fock type      HFTyp           .... RHF
 Total Charge           Charge          ....    0
 Multiplicity           Mult            ....    1
 Number of Electrons    NEL             ....   64
 Basis Dimension        Dim             ....  232
 Nuclear Repulsion      ENuc            ....    407.7324395610 Eh

Convergence Acceleration:
 AO-DIIS                CNVDIIS         .... on
   Start iteration      DIISMaxIt       ....    12
   Startup error        DIISStart       ....  0.200000
   # of expansion vecs  DIISMaxEq       ....     5
   Bias factor          DIISBfac        ....   1.050
   Max. coefficient     DIISMaxC        ....  10.000
 MO-DIIS                CNVKDIIS        .... off
 Trust-Rad. Augm. Hess. CNVTRAH         .... auto
   Auto Start mean grad. ratio tolernc. ....  1.125000
   Auto Start start iteration           ....     1
   Auto Start num. interpolation iter.  ....    10
   Max. Number of Micro iterations      ....    24
   Max. Number of Macro iterations      .... Maxiter - #DIIS iter
   Number of Davidson start vectors     ....     2
   Converg. threshold    (grad. norm)   ....   3.330e-04
   Grad. Scal. Fac. for Micro threshold ....   0.100
   Minimum threshold for Micro iter.    ....   1.000e-02
   NR start threshold (gradient norm)   ....   1.000e-04
   Initial trust radius                 ....   0.400
   Minimum AH scaling param. (alpha)    ....   1.000
   Maximum AH scaling param. (alpha)    .... 1000.000
   Quad. conv. algorithm                .... NR
   White noise on init. David. guess    .... on
   Maximum white noise                  ....   0.010
   Pseudo random numbers                .... off
   Inactive MOs                         .... canonical
   Orbital update algorithm             .... Taylor
   Preconditioner                       .... Diag
   Full preconditioner red. dimension   ....   250
   COSX micro iterations for RIJONX calc.... off
 SOSCF                  CNVSOSCF        .... on
   Start iteration      SOSCFMaxIt      ....   150
   Startup grad/error   SOSCFStart      ....  0.003300
   Hessian update       SOSCFHessUp     .... L-BFGS
 Level Shifting         CNVShift        .... on
   Level shift para.    LevelShift      ....    0.2500
   Turn off err/grad.   ShiftErr        ....    0.0010
 Zerner damping         CNVZerner       .... off
 Static damping         CNVDamp         .... on
   Fraction old density DampFac         ....    0.7000
   Max. Damping (<1)    DampMax         ....    0.9800
   Min. Damping (>=0)   DampMin         ....    0.0000
   Turn off err/grad.   DampErr         ....    0.1000

SCF Procedure:
 Maximum # iterations   MaxIter         ....   125
 SCF integral mode      SCFMode         .... Direct
   Integral package                     .... SHARK and LIBINT hybrid scheme
 Reset frequency        DirectResetFreq ....    20
 Integral Threshold     Thresh          ....  1.000e-10 Eh
 Primitive CutOff       TCut            ....  1.000e-11 Eh

Convergence Tolerance:
 Convergence Check Mode ConvCheckMode   .... Total+1el-Energy
 Convergence forced     ConvForced      .... 0
 Energy Change          TolE            ....  1.000e-06 Eh
 1-El. energy change                    ....  1.000e-03 Eh
 Orbital Gradient       TolG            ....  3.330e-04
 Orbital Rotation angle TolX            ....  3.330e-04
 DIIS Error             TolErr          ....  1.000e-06

---------------------
INITIAL GUESS: MOREAD
---------------------
Guess MOs are being read from file: sp_solv.ges
Input Geometry matches current geometry (good)
Atom 0: N(Shells)= 9 and 6 - projection required
Input basis set needs projection
NBasis(read)= 144
NBasis(calc)= 232
Basis set overlap was calculated
Using GuessMode=FMatrix for the initial guess
C*T matrix was formed
Effective Fockian was calculated
Effective Fockian was diagonalized
Initial density was built
                      ------------------
                      INITIAL GUESS DONE (   0.0 sec)
                      ------------------
             **** ENERGY FILE WAS UPDATED (sp_solv.en.tmp) ****
Finished Guess after   0.3 sec
Maximum memory used throughout the entire GUESS-calculation: 16.8 MB

-------------------------------------------------------------------------------------------
                                      ORCA LEAN-SCF
                              memory conserving SCF solver
-------------------------------------------------------------------------------------------

--------------------
CPCM SOLVATION MODEL
--------------------
CPCM parameters:
  Epsilon                                         ...      78.3550
  Refrac                                          ...       1.3328
  Rsolv                                           ...       1.3000
  Surface type                                    ... GAUSSIAN VDW
  Discretization scheme                           ... Constant charge density
    Threshold for H atoms                         ...       5.0000 (charges/Ang^2)
    Threshold for non-H atoms                     ...       5.0000 (charges/Ang^2)
  Epsilon function type                           ...         CPCM
Solvent:                                          ... WATER
SMD-CDS solvent descriptors:
  Soln                                            ...       1.3328
  Soln25                                          ...       1.3323
  Sola                                            ...       0.0000
  Solb                                            ...       0.0000
  Solg                                            ...       0.0000
  Solc                                            ...       0.0000
  Solh                                            ...       0.0000
Radii:
  Scheme                                          ... Element-dependent radii
  Radius for C  used is    3.4960 Bohr (=   1.8500 Ang.)
  Radius for H  used is    2.2677 Bohr (=   1.2000 Ang.)
Calculating surface                               ...        done! (  0.0s)
Cavity surface points                             ...         1725
Cavity Volume                                     ...     963.7473
Cavity Surface-area                               ...     599.1816
Calculating surface distance matrix               ...        done! (  0.0s)
Performing Cholesky decomposition & store         ...        done! (  0.1s)
Overall time for CPCM initialization              ...                 0.1s

----------------------------------------D-I-I-S--------------------------------------------
Iteration    Energy (Eh)           Delta-E    RMSDP     MaxDP     DIISErr   Damp  Time(sec)
-------------------------------------------------------------------------------------------
               ***  Starting incremental Fock matrix formation  ***
    1    -314.2175172059305623     0.00e+00  7.98e-03  3.93e-01  2.83e-01  0.700   4.0
    2    -314.2662441731737317    -4.87e-02  6.01e-03  2.79e-01  1.99e-01  0.700   3.5
                               ***Turning on AO-DIIS***
    3    -314.3007348649571213    -3.45e-02  4.33e-03  1.94e-01  1.39e-01  0.700   3.5
    4    -314.3249535034307200    -2.42e-02  3.06e-03  1.36e-01  9.74e-02  0.700   3.3
    5    -314.3419429395094085    -1.70e-02  7.19e-03  3.16e-01  6.82e-02  0.000   3.5
                              *** Initializing SOSCF ***
---------------------------------------S-O-S-C-F--------------------------------------
Iteration    Energy (Eh)           Delta-E    RMSDP     MaxDP     MaxGrad    Time(sec)
--------------------------------------------------------------------------------------
    6    -314.3817195536371401    -3.98e-02  6.44e-05  1.39e-03  2.26e-04     3.7
               *** Restarting incremental Fock matrix formation ***
    7    -314.3817205018884806    -9.48e-07  2.37e-05  4.43e-04  3.15e-05     4.2
                  *** Gradient check signals convergence ***

               *****************************************************
               *                     SUCCESS                       *
               *           SCF CONVERGED AFTER   7 CYCLES          *
               *****************************************************


SMD CDS free energy correction energy :                 2.98376     Kcal/mol
Total Energy after SMD CDS correction =              -314.376965576 Eh
             **** ENERGY FILE WAS UPDATED (sp_solv.en.tmp) ****

----------------
TOTAL SCF ENERGY
----------------

Total Energy       :       -314.37696557620961 Eh           -8554.63214 eV

Components:
Nuclear Repulsion  :        407.73243956095973 Eh           11094.96374 eV
Electronic Energy  :       -722.11176957498571 Eh          -19649.66022 eV
One Electron Energy:      -1230.46726036505197 Eh          -33482.71638 eV
Two Electron Energy:        508.35549079006626 Eh           13833.05616 eV
CPCM Dielectric    :         -0.00239048786250 Eh              -0.06505 eV
SMD CDS (Gcds)     :          0.00475492567886 Eh               0.12939 eV

Virial components:
Potential Energy   :       -627.29083932301069 Eh          -17069.45153 eV
Kinetic Energy     :        312.91387374680107 Eh            8514.81939 eV
Virial Ratio       :          2.00467570137396

DFT components:
N(Alpha)           :       31.999964862807 electrons
N(Beta)            :       31.999964862807 electrons
N(Total)           :       63.999929725614 electrons
E(X)               :      -47.377330534709 Eh       
E(C)               :       -1.994690895898 Eh       
E(XC)              :      -49.372021430607 Eh       

CPCM Solvation Model Properties:
Surface-charge          :         -0.05234758215882
Corrected charge        :          0.00000000000000
Outlying charge corr.   :          0.00020849961064 Eh               0.00567 eV
Free-energy (cav+disp)  :          0.00475492567886 Eh               0.12939 eV

---------------
SCF CONVERGENCE
---------------

  Last Energy change         ...    9.4825e-07  Tolerance :   1.0000e-06
  Last MAX-Density change    ...    4.4280e-04  Tolerance :   1.0000e-05
  Last RMS-Density change    ...    2.3682e-05  Tolerance :   1.0000e-06
  Last DIIS Error            ...    2.2551e-04  Tolerance :   1.0000e-06
  Last Orbital Gradient      ...    3.1503e-05  Tolerance :   3.3300e-04
  Last Orbital Rotation      ...    6.9301e-05  Tolerance :   3.3300e-04


----------------
ORBITAL ENERGIES
----------------

  NO   OCC          E(Eh)            E(eV) 
   0   2.0000     -10.017671      -272.5947 
   1   2.0000     -10.014408      -272.5059 
   2   2.0000     -10.012014      -272.4407 
   3   2.0000     -10.011195      -272.4185 
   4   2.0000     -10.010888      -272.4101 
   5   2.0000     -10.008335      -272.3407 
   6   2.0000     -10.007189      -272.3095 
   7   2.0000     -10.005651      -272.2676 
   8   2.0000      -0.796577       -21.6760 
   9   2.0000      -0.739995       -20.1363 
  10   2.0000      -0.679572       -18.4921 
  11   2.0000      -0.664315       -18.0769 
  12   2.0000      -0.618443       -16.8287 
  13   2.0000      -0.548263       -14.9190 
  14   2.0000      -0.526423       -14.3247 
  15   2.0000      -0.490663       -13.3516 
  16   2.0000      -0.446942       -12.1619 
  17   2.0000      -0.431451       -11.7404 
  18   2.0000      -0.402439       -10.9509 
  19   2.0000      -0.396996       -10.8028 
  20   2.0000      -0.374547       -10.1919 
  21   2.0000      -0.362794        -9.8721 
  22   2.0000      -0.353292        -9.6136 
  23   2.0000      -0.321074        -8.7369 
  24   2.0000      -0.310866        -8.4591 
  25   2.0000      -0.301018        -8.1911 
  26   2.0000      -0.293941        -7.9986 
  27   2.0000      -0.292760        -7.9664 
  28   2.0000      -0.278032        -7.5656 
  29   2.0000      -0.268815        -7.3148 
  30   2.0000      -0.264578        -7.1995 
  31   2.0000      -0.255909        -6.9636 
  32   0.0000       0.085166         2.3175 
  33   0.0000       0.097408         2.6506 
  34   0.0000       0.103010         2.8031 
  35   0.0000       0.125779         3.4226 
  36   0.0000       0.134556         3.6615 
  37   0.0000       0.139221         3.7884 
  38   0.0000       0.142198         3.8694 
  39   0.0000       0.149176         4.0593 
  40   0.0000       0.152948         4.1619 
  41   0.0000       0.162025         4.4089 
  42   0.0000       0.164682         4.4812 
*Only the first 10 virtual orbitals were printed.

                    ********************************
                    * MULLIKEN POPULATION ANALYSIS *
                    ********************************

-----------------------
MULLIKEN ATOMIC CHARGES
-----------------------
   0 C :   -0.533146
   1 C :   -0.236179
   2 C :   -0.364208
   3 C :   -0.000400
   4 C :   -0.407267
   5 C :   -0.300333
   6 C :   -0.292012
   7 C :   -0.392314
   8 H :    0.153539
   9 H :    0.157388
  10 H :    0.163097
  11 H :    0.149107
  12 H :    0.145315
  13 H :    0.155618
  14 H :    0.150685
  15 H :    0.165328
  16 H :    0.162624
  17 H :    0.163576
  18 H :    0.155617
  19 H :    0.160193
  20 H :    0.155935
  21 H :    0.157520
  22 H :    0.158976
  23 H :    0.171340
Sum of atomic charges:   -0.0000000

--------------------------------
MULLIKEN REDUCED ORBITAL CHARGES
--------------------------------
  0 C s       :     3.348944  s :     3.348944
      pz      :     1.015904  p :     3.157004
      px      :     1.107744
      py      :     1.033356
      dz2     :     0.004185  d :     0.027197
      dxz     :     0.008471
      dyz     :     0.005530
      dx2y2   :     0.007132
      dxy     :     0.001880

  1 C s       :     3.208190  s :     3.208190
      pz      :     0.929037  p :     2.990507
      px      :     1.064767
      py      :     0.996703
      dz2     :     0.007711  d :     0.037482
      dxz     :     0.009002
      dyz     :     0.008723
      dx2y2   :     0.009312
      dxy     :     0.002733

  2 C s       :     3.303549  s :     3.303549
      pz      :     1.010573  p :     3.023801
      px      :     0.919042
      py      :     1.094186
      dz2     :     0.005415  d :     0.036858
      dxz     :     0.008199
      dyz     :     0.008186
      dx2y2   :     0.009669
      dxy     :     0.005389

  3 C s       :     3.074109  s :     3.074109
      pz      :     1.034092  p :     2.881810
      px      :     0.953207
      py      :     0.894511
      dz2     :     0.007894  d :     0.044481
      dxz     :     0.009004
      dyz     :     0.008367
      dx2y2   :     0.010407
      dxy     :     0.008809

  4 C s       :     3.317131  s :     3.317131
      pz      :     0.987618  p :     3.055400
      px      :     1.055364
      py      :     1.012417
      dz2     :     0.004571  d :     0.034736
      dxz     :     0.007958
      dyz     :     0.009315
      dx2y2   :     0.003514
      dxy     :     0.009379

  5 C s       :     3.227021  s :     3.227021
      pz      :     0.996027  p :     3.036976
      px      :     1.079377
      py      :     0.961573
      dz2     :     0.006632  d :     0.036336
      dxz     :     0.008272
      dyz     :     0.007303
      dx2y2   :     0.006183
      dxy     :     0.007947

  6 C s       :     3.237518  s :     3.237518
      pz      :     1.061403  p :     3.017582
      px      :     0.957884
      py      :     0.998295
      dz2     :     0.003551  d :     0.036912
      dxz     :     0.010086
      dyz     :     0.008369
      dx2y2   :     0.009003
      dxy     :     0.005903

  7 C s       :     3.300513  s :     3.300513
      pz      :     1.069984  p :     3.055353
      px      :     0.970768
      py      :     1.014601
      dz2     :     0.003636  d :     0.036448
      dxz     :     0.008506
      dyz     :     0.009758
      dx2y2   :     0.008460
      dxy     :     0.006088

  8 H s       :     0.828154  s :     0.828154
      pz      :     0.006595  p :     0.018307
      px      :     0.007516
      py      :     0.004197

  9 H s       :     0.824361  s :     0.824361
      pz      :     0.004105  p :     0.018251
      px      :     0.003843
      py      :     0.010303

 10 H s       :     0.818363  s :     0.818363
      pz      :     0.005439  p :     0.018540
      px      :     0.009453
      py      :     0.003649

 11 H s       :     0.833054  s :     0.833054
      pz      :     0.004463  p :     0.017839
      px      :     0.009775
      py      :     0.003601

 12 H s       :     0.836454  s :     0.836454
      pz      :     0.004052  p :     0.018231
      px      :     0.004123
      py      :     0.010057

 13 H s       :     0.826465  s :     0.826465
      pz      :     0.004379  p :     0.017917
      px      :     0.004152
      py      :     0.009386

 14 H s       :     0.831452  s :     0.831452
      pz      :     0.007700  p :     0.017864
      px      :     0.003583
      py      :     0.006581

 15 H s       :     0.817090  s :     0.817090
      pz      :     0.009253  p :     0.017582
      px      :     0.004859
      py      :     0.003470

 16 H s       :     0.819185  s :     0.819185
      pz      :     0.005832  p :     0.018191
      px      :     0.005907
      py      :     0.006452

 17 H s       :     0.817632  s :     0.817632
      pz      :     0.005160  p :     0.018792
      px      :     0.007750
      py      :     0.005881

 18 H s       :     0.826145  s :     0.826145
      pz      :     0.003899  p :     0.018237
      px      :     0.008760
      py      :     0.005578

 19 H s       :     0.821850  s :     0.821850
      pz      :     0.008828  p :     0.017957
      px      :     0.005507
      py      :     0.003622

 20 H s       :     0.826189  s :     0.826189
      pz      :     0.006973  p :     0.017876
      px      :     0.007360
      py      :     0.003543

 21 H s       :     0.824267  s :     0.824267
      pz      :     0.006971  p :     0.018213
      px      :     0.004128
      py      :     0.007113

 22 H s       :     0.822878  s :     0.822878
      pz      :     0.007118  p :     0.018146
      px      :     0.003667
      py      :     0.007361

 23 H s       :     0.810230  s :     0.810230
      pz      :     0.007107  p :     0.018430
      px      :     0.007104
      py      :     0.004219


------------------------
MULLIKEN OVERLAP CHARGES
------------------------
B(  0-C ,  1-C ) :   0.3612 B(  0-C ,  2-C ) :  -0.2533 B(  0-C ,  3-C ) :   0.0754 
B(  0-C ,  8-H ) :   0.7809 B(  0-C ,  9-H ) :   0.8387 B(  0-C , 10-H ) :   0.8597 
B(  0-C , 11-H ) :  -0.0511 B(  0-C , 12-H ) :  -0.0973 B(  1-C ,  2-C ) :   0.5156 
B(  1-C ,  3-C ) :  -0.1904 B(  1-C ,  8-H ) :  -0.0643 B(  1-C ,  9-H ) :  -0.1000 
B(  1-C , 10-H ) :  -0.0954 B(  1-C , 11-H ) :   0.8196 B(  1-C , 12-H ) :   0.8888 
B(  1-C , 13-H ) :  -0.0765 B(  1-C , 14-H ) :  -0.0802 B(  2-C ,  3-C ) :   0.1434 
B(  2-C ,  4-C ) :  -0.0803 B(  2-C , 11-H ) :  -0.1076 B(  2-C , 12-H ) :  -0.0657 
B(  2-C , 13-H ) :   0.9126 B(  2-C , 14-H ) :   0.8103 B(  3-C ,  4-C ) :   0.4867 
B(  3-C ,  5-C ) :  -0.1041 B(  3-C ,  6-C ) :  -0.2390 B(  3-C ,  7-C ) :   0.4335 
B(  3-C , 12-H ) :  -0.0515 B(  3-C , 13-H ) :  -0.1783 B(  3-C , 14-H ) :  -0.0564 
B(  3-C , 15-H ) :   0.8704 B(  3-C , 16-H ) :  -0.0685 B(  3-C , 17-H ) :  -0.0945 
B(  3-C , 23-H ) :  -0.1373 B(  4-C ,  5-C ) :   0.3841 B(  4-C ,  6-C ) :  -0.1778 
B(  4-C ,  7-C ) :  -0.1473 B(  4-C , 15-H ) :  -0.1033 B(  4-C , 16-H ) :   0.8250 
B(  4-C , 17-H ) :   0.8539 B(  4-C , 19-H ) :  -0.1005 B(  5-C ,  6-C ) :   0.4127 
B(  5-C ,  7-C ) :  -0.3388 B(  5-C , 16-H ) :  -0.0524 B(  5-C , 17-H ) :  -0.0771 
B(  5-C , 18-H ) :   0.7430 B(  5-C , 19-H ) :   0.8966 B(  5-C , 20-H ) :  -0.0881 
B(  6-C ,  7-C ) :   0.3598 B(  6-C , 19-H ) :  -0.1088 B(  6-C , 20-H ) :   0.8607 
B(  6-C , 21-H ) :   0.7663 B(  6-C , 23-H ) :  -0.1127 B(  7-C , 15-H ) :  -0.0811 
B(  7-C , 20-H ) :  -0.0881 B(  7-C , 22-H ) :   0.7476 B(  7-C , 23-H ) :   0.9015 
B(  9-H , 10-H ) :  -0.0509 


                     *******************************
                     * LOEWDIN POPULATION ANALYSIS *
                     *******************************

----------------------
LOEWDIN ATOMIC CHARGES
----------------------
   0 C :   -0.437788
   1 C :   -0.319922
   2 C :   -0.302312
   3 C :   -0.223900
   4 C :   -0.303316
   5 C :   -0.308283
   6 C :   -0.307028
   7 C :   -0.304496
   8 H :    0.151188
   9 H :    0.152123
  10 H :    0.152538
  11 H :    0.154229
  12 H :    0.150975
  13 H :    0.160233
  14 H :    0.158030
  15 H :    0.163118
  16 H :    0.158644
  17 H :    0.160737
  18 H :    0.155836
  19 H :    0.155500
  20 H :    0.156984
  21 H :    0.156446
  22 H :    0.157606
  23 H :    0.162857

-------------------------------
LOEWDIN REDUCED ORBITAL CHARGES
-------------------------------
  0 C s       :     2.973776  s :     2.973776
      pz      :     1.108735  p :     3.400561
      px      :     1.158482
      py      :     1.133345
      dz2     :     0.008782  d :     0.063451
      dxz     :     0.019895
      dyz     :     0.013165
      dx2y2   :     0.017683
      dxy     :     0.003926

  1 C s       :     2.936046  s :     2.936046
      pz      :     1.074582  p :     3.303312
      px      :     1.113065
      py      :     1.115664
      dz2     :     0.015599  d :     0.080565
      dxz     :     0.019518
      dyz     :     0.019144
      dx2y2   :     0.020954
      dxy     :     0.005350

  2 C s       :     2.932805  s :     2.932805
      pz      :     1.098167  p :     3.289930
      px      :     1.058691
      py      :     1.133072
      dz2     :     0.011229  d :     0.079576
      dxz     :     0.017029
      dyz     :     0.018686
      dx2y2   :     0.021875
      dxy     :     0.010758

  3 C s       :     2.903785  s :     2.903785
      pz      :     1.106076  p :     3.228456
      px      :     1.068374
      py      :     1.054006
      dz2     :     0.016768  d :     0.091658
      dxz     :     0.017942
      dyz     :     0.018143
      dx2y2   :     0.022144
      dxy     :     0.016661

  4 C s       :     2.932326  s :     2.932326
      pz      :     1.091705  p :     3.295105
      px      :     1.106157
      py      :     1.097244
      dz2     :     0.007705  d :     0.075884
      dxz     :     0.018357
      dyz     :     0.021970
      dx2y2   :     0.006084
      dxy     :     0.021769

  5 C s       :     2.937235  s :     2.937235
      pz      :     1.103088  p :     3.291953
      px      :     1.119095
      py      :     1.069771
      dz2     :     0.014439  d :     0.079094
      dxz     :     0.018604
      dyz     :     0.015630
      dx2y2   :     0.013267
      dxy     :     0.017154

  6 C s       :     2.936677  s :     2.936677
      pz      :     1.116884  p :     3.289718
      px      :     1.091215
      py      :     1.081619
      dz2     :     0.006448  d :     0.080632
      dxz     :     0.023435
      dyz     :     0.018945
      dx2y2   :     0.020596
      dxy     :     0.011208

  7 C s       :     2.934840  s :     2.934840
      pz      :     1.120369  p :     3.290028
      px      :     1.081515
      py      :     1.088144
      dz2     :     0.006656  d :     0.079628
      dxz     :     0.019459
      dyz     :     0.022341
      dx2y2   :     0.018511
      dxy     :     0.012660

  8 H s       :     0.805143  s :     0.805143
      pz      :     0.015769  p :     0.043669
      px      :     0.018226
      py      :     0.009674

  9 H s       :     0.804225  s :     0.804225
      pz      :     0.009512  p :     0.043652
      px      :     0.008668
      py      :     0.025473

 10 H s       :     0.802847  s :     0.802847
      pz      :     0.013106  p :     0.044615
      px      :     0.023290
      py      :     0.008219

 11 H s       :     0.802600  s :     0.802600
      pz      :     0.010806  p :     0.043171
      px      :     0.024099
      py      :     0.008267

 12 H s       :     0.804946  s :     0.804946
      pz      :     0.009743  p :     0.044079
      px      :     0.009712
      py      :     0.024625

 13 H s       :     0.796205  s :     0.796205
      pz      :     0.010363  p :     0.043562
      px      :     0.009871
      py      :     0.023328

 14 H s       :     0.798605  s :     0.798605
      pz      :     0.018652  p :     0.043364
      px      :     0.008585
      py      :     0.016127

 15 H s       :     0.793022  s :     0.793022
      pz      :     0.023133  p :     0.043860
      px      :     0.012255
      py      :     0.008472

 16 H s       :     0.796933  s :     0.796933
      pz      :     0.014213  p :     0.044423
      px      :     0.014334
      py      :     0.015875

 17 H s       :     0.793550  s :     0.793550
      pz      :     0.012541  p :     0.045713
      px      :     0.018746
      py      :     0.014427

 18 H s       :     0.799994  s :     0.799994
      pz      :     0.009171  p :     0.044170
      px      :     0.021551
      py      :     0.013448

 19 H s       :     0.800551  s :     0.800551
      pz      :     0.021968  p :     0.043949
      px      :     0.013343
      py      :     0.008638

 20 H s       :     0.799343  s :     0.799343
      pz      :     0.017103  p :     0.043673
      px      :     0.018150
      py      :     0.008420

 21 H s       :     0.799412  s :     0.799412
      pz      :     0.016958  p :     0.044142
      px      :     0.009797
      py      :     0.017387

 22 H s       :     0.798233  s :     0.798233
      pz      :     0.017352  p :     0.044161
      px      :     0.008681
      py      :     0.018128

 23 H s       :     0.791724  s :     0.791724
      pz      :     0.017650  p :     0.045419
      px      :     0.017197
      py      :     0.010573


---------------------------------
LOEWDIN BOND ORDERS (THRESH 0.050000)
---------------------------------
B(  0-C ,  1-C ) :   1.1428 B(  0-C ,  2-C ) :   0.0607 B(  0-C ,  8-H ) :   0.9276 
B(  0-C ,  9-H ) :   0.9280 B(  0-C , 10-H ) :   0.9240 B(  1-C ,  2-C ) :   1.1108 
B(  1-C ,  3-C ) :   0.0520 B(  1-C , 11-H ) :   0.8923 B(  1-C , 12-H ) :   0.8931 
B(  2-C ,  3-C ) :   1.0810 B(  2-C ,  4-C ) :   0.0557 B(  2-C ,  7-C ) :   0.0659 
B(  2-C , 13-H ) :   0.8821 B(  2-C , 14-H ) :   0.8853 B(  3-C ,  4-C ) :   1.0498 
B(  3-C ,  5-C ) :   0.0656 B(  3-C ,  6-C ) :   0.0766 B(  3-C ,  7-C ) :   1.0575 
B(  3-C , 15-H ) :   0.8604 B(  4-C ,  5-C ) :   1.0894 B(  4-C ,  6-C ) :   0.0676 
B(  4-C ,  7-C ) :   0.0632 B(  4-C , 16-H ) :   0.8978 B(  4-C , 17-H ) :   0.8878 
B(  5-C ,  6-C ) :   1.0990 B(  5-C ,  7-C ) :   0.0753 B(  5-C , 18-H ) :   0.9011 
B(  5-C , 19-H ) :   0.8955 B(  6-C ,  7-C ) :   1.0986 B(  6-C , 20-H ) :   0.8904 
B(  6-C , 21-H ) :   0.8988 B(  7-C , 22-H ) :   0.8957 B(  7-C , 23-H ) :   0.8802 


------------------------------------------
LOEWDIN REDUCED ORBITAL POPULATIONS PER MO
-------------------------------------------
THRESHOLD FOR PRINTING IS 0.1%%
                      0         1         2         3         4         5   
                 -10.01767 -10.01441 -10.01201 -10.01119 -10.01089 -10.00834
                   2.00000   2.00000   2.00000   2.00000   2.00000   2.00000
                  --------  --------  --------  --------  --------  --------
 1 C  s               0.0      99.6       0.1       0.0       0.0       0.0
 2 C  s               0.0       0.1      99.6       0.0       0.0       0.0
 3 C  s              99.6       0.0       0.0       0.0       0.0       0.0
 4 C  s               0.0       0.0       0.0       0.1       0.0      99.6
 5 C  s               0.0       0.0       0.0      94.8       4.9       0.1
 6 C  s               0.0       0.0       0.0       4.8      94.8       0.0

                      6         7         8         9        10        11   
                 -10.00719 -10.00565  -0.79658  -0.74000  -0.67957  -0.66432
                   2.00000   2.00000   2.00000   2.00000   2.00000   2.00000
                  --------  --------  --------  --------  --------  --------
 0 C  s               0.0      99.7       0.7      13.0      14.7       0.2
 0 C  pz              0.0       0.0       0.2       1.8       0.1       0.0
 0 C  py              0.0       0.0       0.1       0.8       0.1       0.0
 1 C  s               0.0       0.0       2.0      23.3       4.5       0.0
 1 C  pz              0.0       0.1       0.1       0.0       4.3       0.0
 1 C  px              0.0       0.0       0.4       0.3       0.9       0.0
 1 C  py              0.0       0.0       0.1       0.8       0.3       0.1
 2 C  s               0.0       0.0       5.3      14.7       5.5       0.0
 2 C  pz              0.0       0.0       0.3       1.4       0.9       0.0
 2 C  px              0.0       0.0       1.2       1.0       4.1       0.0
 2 C  py              0.0       0.0       0.0       0.1       0.1       0.4
 3 C  s               0.0       0.0      15.5       1.0      12.5       0.0
 3 C  pz              0.0       0.0       1.4       0.5       0.7       0.2
 3 C  px              0.0       0.0       0.2       4.5       0.8       0.0
 3 C  py              0.1       0.0       0.0       0.1       0.0       9.6
 3 C  dyz             0.0       0.0       0.0       0.0       0.0       0.2
 4 C  s               0.0       0.0      11.7       0.6       0.2      19.3
 4 C  pz              0.0       0.0       0.0       0.6       3.1       0.5
 4 C  px              0.0       0.0       0.0       1.1       1.7       0.2
 4 C  py              0.0       0.0       2.8       0.1       0.1       0.5
 5 C  s               0.0       0.0      10.8       4.4       7.7       6.6
 5 C  pz              0.0       0.0       1.9       0.2       0.1       0.1
 5 C  px              0.0       0.0       0.5       0.0       0.3       0.8
 5 C  py              0.0       0.0       0.4       0.3       0.7       5.6
 5 C  dyz             0.0       0.0       0.0       0.0       0.0       0.1
 6 C  s               0.0       0.0      11.3       4.7       6.3       6.8
 6 C  pz              0.0       0.0       0.1       0.0       0.8       1.2
 6 C  px              0.1       0.0       1.9       0.1       0.3       0.9
 6 C  py              0.0       0.0       0.9       0.3       0.6       3.9
 6 C  dx2y2           0.0       0.0       0.0       0.0       0.0       0.1
 7 C  s              99.6       0.0      12.5       0.8       0.6      17.2
 7 C  pz              0.0       0.0       0.0       0.4       2.1       0.1
 7 C  px              0.0       0.0       0.3       1.4       2.1       0.4
 7 C  py              0.0       0.0       2.7       0.0       0.5       0.8
 8 H  s               0.0       0.0       0.1       1.9       3.0       0.0
 8 H  pz              0.0       0.0       0.0       0.1       0.1       0.0
 8 H  px              0.0       0.0       0.0       0.1       0.1       0.0
 9 H  s               0.0       0.0       0.1       1.8       2.7       0.0
 9 H  py              0.0       0.0       0.0       0.1       0.2       0.0
10 H  s               0.0       0.0       0.1       1.8       2.7       0.0
10 H  px              0.0       0.0       0.0       0.1       0.2       0.0
11 H  s               0.0       0.0       0.2       3.5       0.9       0.0
11 H  px              0.0       0.0       0.0       0.3       0.1       0.0
12 H  s               0.0       0.0       0.3       3.2       0.8       0.0
12 H  py              0.0       0.0       0.0       0.3       0.1       0.0
13 H  s               0.0       0.0       0.6       2.1       1.0       0.0
13 H  py              0.0       0.0       0.0       0.2       0.1       0.0
14 H  s               0.0       0.0       0.6       2.1       1.1       0.0
14 H  pz              0.0       0.0       0.0       0.1       0.0       0.0
15 H  s               0.0       0.0       1.7       0.1       2.7       0.0
15 H  pz              0.0       0.0       0.1       0.0       0.2       0.0
16 H  s               0.0       0.0       1.2       0.1       0.1       4.2
16 H  pz              0.0       0.0       0.0       0.0       0.0       0.1
16 H  px              0.0       0.0       0.0       0.0       0.0       0.1
16 H  py              0.0       0.0       0.0       0.0       0.0       0.1
17 H  s               0.0       0.0       1.2       0.0       0.0       4.3
17 H  px              0.0       0.0       0.1       0.0       0.0       0.2
17 H  py              0.0       0.0       0.0       0.0       0.0       0.1
18 H  s               0.0       0.0       1.1       0.6       1.5       1.5
18 H  px              0.0       0.0       0.1       0.0       0.1       0.1
19 H  s               0.0       0.0       1.1       0.6       1.5       1.3
20 H  s               0.0       0.0       1.2       0.6       1.1       1.3
21 H  s               0.0       0.0       1.1       0.6       1.3       1.5
22 H  s               0.0       0.0       1.3       0.1       0.2       3.9
22 H  pz              0.0       0.0       0.0       0.0       0.0       0.2
22 H  py              0.0       0.0       0.1       0.0       0.0       0.2
23 H  s               0.0       0.0       1.4       0.1       0.1       3.6
23 H  pz              0.0       0.0       0.1       0.0       0.0       0.1
23 H  px              0.0       0.0       0.1       0.0       0.0       0.2

                     12        13        14        15        16        17   
                  -0.61844  -0.54826  -0.52642  -0.49066  -0.44694  -0.43145
                   2.00000   2.00000   2.00000   2.00000   2.00000   2.00000
                  --------  --------  --------  --------  --------  --------
 0 C  s              12.2       6.1       0.3       0.4       0.1       0.0
 0 C  pz              1.3       3.2       0.2       0.6       0.1       1.3
 0 C  px              0.0       0.0       0.1       0.4       3.3       0.4
 0 C  py              0.4       3.4       0.0       2.3       0.2       2.8
 0 C  dyz             0.0       0.1       0.0       0.1       0.0       0.0
 1 C  s               2.0      10.9       0.1       2.7       0.0       0.0
 1 C  pz              8.3       0.2       0.1       1.3       0.6       3.2
 1 C  px              0.4       1.0       0.0       1.8       5.2       0.9
 1 C  py              0.6       4.6       0.0       1.8       0.6       6.3
 1 C  dyz             0.1       0.0       0.0       0.0       0.0       0.0
 2 C  s              11.1       3.8       0.0       3.4       0.0       0.3
 2 C  pz              0.4       3.3       0.1       1.0       3.6       0.0
 2 C  px              2.7       3.3       0.5       1.8       2.0       6.4
 2 C  py              0.2       1.8       0.8       0.3       0.9       2.5
 2 C  dx2y2           0.0       0.0       0.0       0.1       0.0       0.0
 3 C  s               2.9       1.3       0.9       7.6       0.4       0.5
 3 C  pz              0.7       2.9       0.9       1.9       6.9       6.1
 3 C  px              3.8       2.8       0.6       2.7       3.0       2.1
 3 C  py              0.0       0.1       6.0       0.5       1.1       0.3
 3 C  dx2y2           0.1       0.1       0.0       0.0       0.0       0.0
 4 C  s               3.2       3.3       0.9       5.4       0.2       0.2
 4 C  pz              1.1       0.1       6.0       0.9       0.8       0.0
 4 C  px              0.5       0.2       0.6       0.2      10.5       1.8
 4 C  py              0.0       1.0       0.2       8.8       2.8       6.4
 5 C  s               4.0       2.9       6.9       1.5       0.2       0.4
 5 C  pz              0.6       1.5       4.4       0.5       1.1       9.4
 5 C  px              1.4       1.0       0.5       1.1       5.6       2.2
 5 C  py              1.2       0.3       2.6       0.7       5.7       1.1
 6 C  s               4.7       0.0      10.5       0.5       0.2       0.3
 6 C  pz              1.2       1.2       0.5       0.0       5.0       2.2
 6 C  px              1.2       0.8       6.5       0.0       1.6       3.1
 6 C  py              0.3       1.1       1.2       4.5       0.2       5.1
 6 C  dyz             0.0       0.0       0.1       0.0       0.0       0.0
 7 C  s               2.4       2.4       6.4       1.2       0.6       0.3
 7 C  pz              0.6       0.1       0.0       2.5       9.1       1.3
 7 C  px              1.1       0.3       6.7       0.1       0.7       0.4
 7 C  py              0.2       0.6       1.3       7.2       2.6       7.7
 7 C  dx2y2           0.1       0.0       0.0       0.1       0.0       0.0
 8 H  s               3.6       2.4       0.2       0.0       0.4       0.2
 8 H  px              0.2       0.1       0.0       0.0       0.0       0.0
 9 H  s               3.2       3.3       0.1       0.8       0.3       1.2
 9 H  py              0.2       0.2       0.0       0.0       0.0       0.0
10 H  s               3.5       2.9       0.0       0.6       0.8       0.4
10 H  px              0.2       0.2       0.0       0.0       0.0       0.0
11 H  s               0.7       5.0       0.0       1.7       1.7       0.4
11 H  px              0.1       0.3       0.0       0.1       0.1       0.0
12 H  s               0.4       5.9       0.0       2.0       0.5       3.5
12 H  py              0.0       0.3       0.0       0.1       0.0       0.1
13 H  s               2.8       2.2       0.2       2.9       1.2       2.1
13 H  py              0.2       0.1       0.0       0.1       0.0       0.1
14 H  s               3.5       1.3       0.1       1.9       0.4       0.0
14 H  pz              0.2       0.0       0.0       0.0       0.0       0.0
14 H  py              0.1       0.1       0.0       0.1       0.0       0.0
15 H  s               0.8       0.8       1.1       5.9       1.7       1.9
15 H  pz              0.1       0.0       0.1       0.3       0.0       0.0
16 H  s               0.9       1.4       1.0       3.4       4.0       0.2
16 H  pz              0.0       0.0       0.0       0.1       0.1       0.0
17 H  s               0.7       1.9       0.2       5.8       0.5       2.0
17 H  px              0.0       0.0       0.0       0.2       0.0       0.0
18 H  s               1.3       1.5       3.2       0.9       3.4       2.8
18 H  px              0.1       0.1       0.2       0.0       0.1       0.1
19 H  s               1.1       1.3       5.0       0.6       0.9       1.8
19 H  pz              0.1       0.0       0.2       0.0       0.0       0.0
20 H  s               1.2       0.0       7.3       0.1       1.2       0.1
20 H  pz              0.1       0.0       0.3       0.0       0.0       0.0
20 H  px              0.0       0.0       0.2       0.0       0.0       0.0
21 H  s               1.5       0.0       5.1       1.0       1.0       3.3
21 H  pz              0.0       0.0       0.2       0.0       0.0       0.1
21 H  py              0.1       0.0       0.1       0.0       0.0       0.0
22 H  s               0.6       0.9       2.9       1.1       4.9       3.2
22 H  py              0.0       0.0       0.1       0.0       0.1       0.0
23 H  s               0.7       0.6       4.9       2.6       0.4       0.3
23 H  pz              0.0       0.0       0.2       0.0       0.0       0.0

                     18        19        20        21        22        23   
                  -0.40244  -0.39700  -0.37455  -0.36279  -0.35329  -0.32107
                   2.00000   2.00000   2.00000   2.00000   2.00000   2.00000
                  --------  --------  --------  --------  --------  --------
 0 C  s               0.2       0.1       0.0       0.0       0.0       0.4
 0 C  pz              6.5       8.7       0.1       3.2       0.2      10.5
 0 C  px              7.3       5.7       3.2       5.1      14.0       8.2
 0 C  py              0.1       2.3       1.8      15.2       6.9       4.0
 0 C  dxz             0.0       0.0       0.0       0.1       0.1       0.2
 1 C  s               0.3       0.1       0.1       0.1       0.2       0.3
 1 C  pz              1.0       0.2       0.7       4.9       2.5       8.8
 1 C  px              6.8       9.2       0.8       2.1       0.7       6.0
 1 C  py              4.0       7.2       0.1       1.2       0.8       5.8
 1 C  dxz             0.0       0.0       0.0       0.0       0.1       0.3
 1 C  dyz             0.0       0.0       0.0       0.0       0.0       0.1
 2 C  s               0.1       0.6       0.0       0.1       0.0       0.7
 2 C  pz             14.1       0.6       0.2       1.3       1.2       0.5
 2 C  px              0.6       0.1       0.1       1.9       2.4       2.6
 2 C  py              7.5       5.6       4.5       8.7       7.6       1.5
 2 C  dxz             0.0       0.0       0.0       0.1       0.0       0.0
 3 C  s               0.1       1.1       0.0       0.0       0.4       0.3
 3 C  pz              1.6       0.5       0.1       0.9       5.7       0.2
 3 C  px              1.8       0.0       0.4       3.3       4.4       1.6
 3 C  py              1.5       0.2       2.8       1.3       0.3       3.3
 3 C  dx2y2           0.0       0.0       0.0       0.0       0.0       0.1
 4 C  s               0.0       0.2       0.1       0.1       0.0       0.0
 4 C  pz              0.0       0.8      14.5       0.0       0.4       0.4
 4 C  px              0.1       1.0       7.5       1.4       3.8       0.7
 4 C  py              0.3       0.9       0.0       0.3       0.6       0.1
 4 C  dxy             0.0       0.0       0.1       0.0       0.0       0.0
 5 C  s               0.0       0.1       0.0       0.1       0.0       0.3
 5 C  pz              0.6       4.5       1.1       4.3       0.4       0.3
 5 C  px              5.4       0.2       8.5       1.7       5.1       0.1
 5 C  py              1.4       0.7       0.3       0.0       0.8       0.0
 6 C  s               0.1       0.1       0.1       0.1       0.0       0.1
 6 C  pz              1.1      10.6       5.0       1.5       1.3       0.3
 6 C  px              7.6       0.1       1.0       0.1       3.3       6.5
 6 C  py              0.3       4.2       0.3       0.6       0.9       0.0
 7 C  s               0.1       0.2       0.1       0.0       0.2       0.1
 7 C  pz              1.6       0.8       9.2       3.1       0.0       0.2
 7 C  px              1.7       1.5       3.5       5.3       2.4       6.6
 7 C  py              0.1       0.1       0.6       0.6       0.0       2.7
 7 C  dyz             0.0       0.0       0.0       0.0       0.0       0.1
 8 H  s               5.7       0.3       1.3       6.6       2.4       0.5
 8 H  pz              0.1       0.0       0.0       0.1       0.0       0.2
 8 H  py              0.0       0.0       0.0       0.0       0.1       0.0
 9 H  s               0.0       2.0       0.4       7.0       4.4       0.1
 9 H  py              0.0       0.1       0.0       0.1       0.1       0.0
10 H  s               0.1       5.4       0.8       0.6       4.8       9.1
10 H  px              0.0       0.2       0.0       0.0       0.0       0.1
11 H  s               2.0       4.0       0.0       0.0       0.5       7.3
11 H  px              0.0       0.1       0.0       0.0       0.0       0.1
12 H  s               0.1       3.0       0.0       0.5       0.0       0.4
13 H  s               0.2       0.4       2.0       4.0       4.7       0.8
13 H  pz              0.1       0.0       0.0       0.0       0.0       0.0
14 H  s               8.9       3.3       0.5       0.4       0.4       0.3
14 H  pz              0.1       0.1       0.0       0.1       0.1       0.0
14 H  py              0.1       0.0       0.0       0.0       0.0       0.0
15 H  s               0.8       1.0       0.2       1.7       3.3       0.2
16 H  s               0.1       0.4       5.2       0.9       2.4       0.1
16 H  py              0.0       0.0       0.1       0.0       0.0       0.0
17 H  s               0.0       0.3       6.4       0.0       0.4       0.9
17 H  py              0.0       0.0       0.1       0.0       0.0       0.0
18 H  s               1.9       0.1       1.9       0.1       2.7       0.0
19 H  s               1.4       1.3       2.0       3.2       1.6       0.0
20 H  s               3.2       1.3       2.6       0.1       2.0       1.4
21 H  s               0.0       6.1       0.1       0.2       0.6       0.8
22 H  s               0.0       0.4       0.9       2.1       0.0       1.1
23 H  s               0.0       0.4       6.9       1.8       0.9       0.8

                     24        25        26        27        28        29   
                  -0.31087  -0.30102  -0.29394  -0.29276  -0.27803  -0.26881
                   2.00000   2.00000   2.00000   2.00000   2.00000   2.00000
                  --------  --------  --------  --------  --------  --------
 0 C  s               0.0       0.1       0.0       0.0       0.2       0.0
 0 C  pz             10.0       1.4       0.0       0.0       0.7       0.6
 0 C  px              0.8       4.1       0.0       0.2       1.4       0.3
 0 C  py              4.6       7.4       0.1       1.3       0.4       0.7
 0 C  dxz             0.1       0.1       0.0       0.0       0.0       0.0
 0 C  dx2y2           0.3       0.1       0.0       0.0       0.0       0.1
 1 C  s               0.1       0.0       0.0       0.0       0.0       0.2
 1 C  pz              7.5       0.9       0.0       0.0       0.4       3.8
 1 C  px              1.1       7.1       0.0       0.7       0.4       0.6
 1 C  py              3.2       8.3       0.3       1.8       1.2       4.5
 1 C  dz2             0.1       0.1       0.0       0.0       0.0       0.0
 1 C  dxz             0.1       0.1       0.0       0.0       0.0       0.0
 1 C  dyz             0.0       0.2       0.0       0.0       0.0       0.1
 1 C  dx2y2           0.2       0.2       0.0       0.0       0.0       0.4
 2 C  s               0.4       0.1       0.0       0.1       0.2       0.3
 2 C  pz              8.5       2.8       0.0       0.2       2.7       4.6
 2 C  px              4.8       0.5       0.0       0.3       0.8       3.4
 2 C  py              0.1       1.5       0.1       0.0       0.4       6.7
 2 C  dyz             0.0       0.2       0.0       0.0       0.0       0.1
 2 C  dx2y2           0.0       0.0       0.0       0.0       0.0       0.4
 2 C  dxy             0.0       0.0       0.0       0.0       0.0       0.2
 3 C  s               0.3       0.1       0.1       0.3       0.0       0.0
 3 C  pz              6.7       0.0       0.0       0.0       0.5       2.8
 3 C  px              1.1       0.1       0.1       0.0       1.4       6.2
 3 C  py              1.0       5.2       1.6       1.3       0.3       8.2
 3 C  dyz             0.0       0.0       0.2       0.0       0.0       0.2
 3 C  dxy             0.0       0.0       0.1       0.0       0.1       0.2
 4 C  s               0.1       0.1       0.8       0.2       0.1       0.2
 4 C  pz              5.5       0.7       0.1       6.5       2.3       4.4
 4 C  px              0.2       0.3       0.7       9.9       7.3       4.3
 4 C  py              2.0       6.3       7.1       5.9       0.1       8.2
 4 C  dxz             0.0       0.2       0.0       0.2       0.0       0.0
 4 C  dyz             0.0       0.0       0.1       0.0       0.2       0.2
 4 C  dxy             0.2       0.0       0.0       0.0       0.2       0.0
 5 C  s               0.0       0.0       0.7       0.0       0.0       0.1
 5 C  pz              3.4       0.1       7.4       3.3       4.1       2.2
 5 C  px              0.7       0.4       3.7       2.9      12.1       1.3
 5 C  py              0.3       4.4       6.4      19.6       0.1       0.7
 5 C  dz2             0.0       0.0       0.0       0.0       0.4       0.0
 5 C  dxz             0.0       0.0       0.0       0.3       0.3       0.0
 5 C  dyz             0.0       0.0       0.1       0.3       0.1       0.0
 5 C  dx2y2           0.0       0.1       0.0       0.0       0.0       0.2
 5 C  dxy             0.1       0.0       0.4       0.0       0.0       0.1
 6 C  s               0.2       0.2       0.1       0.1       0.1       0.3
 6 C  pz              0.5       3.2       7.9       0.8       9.6       0.8
 6 C  px              0.1       2.9       5.9       0.0       2.4       0.3
 6 C  py              2.9       1.1       3.9      20.2       0.0       0.9
 6 C  dxz             0.1       0.1       0.1       0.1       0.5       0.0
 6 C  dyz             0.0       0.0       0.0       0.5       0.0       0.0
 6 C  dx2y2           0.0       0.0       0.5       0.0       0.2       0.0
 6 C  dxy             0.0       0.0       0.1       0.0       0.0       0.0
 7 C  s               0.0       0.1       0.8       0.1       0.2       0.1
 7 C  pz              2.5       3.3       8.9       0.1       2.7       0.9
 7 C  px              0.8       0.8       5.2       0.3       1.1       0.1
 7 C  py              0.1       2.7      13.6       0.5       0.5       1.6
 7 C  dxz             0.0       0.2       0.1       0.1       0.1       0.1
[...]
 6 C  px              0.1       0.0       0.0       0.0       0.0       0.0
 6 C  py              0.9       0.2       0.0       0.0       0.0       0.0
 6 C  dz2             0.2       0.1       0.0       0.0       0.0       0.0
 6 C  dxz             1.9       0.0       0.0       0.0       0.0       0.0
 6 C  dyz             2.7       0.1       0.0       0.0       0.0       0.0
 6 C  dx2y2           1.3       0.4       0.0       0.0       0.0       0.0
 6 C  dxy             0.3       0.1       0.0       0.0       0.0       0.0
 7 C  s               0.5       0.2      12.5       0.0      11.9      15.1
 7 C  pz              1.7       0.5       0.0       0.0       0.0       0.0
 7 C  px              0.8       0.1       0.0       0.0       0.0       0.0
 7 C  py              1.7       1.2       0.0       0.0       0.0       0.0
 7 C  dz2             0.5       0.3       0.0       0.0       0.0       0.0
 7 C  dxz             0.1       0.1       0.0       0.0       0.0       0.0
 7 C  dyz             6.3       0.9       0.0       0.0       0.0       0.0
 7 C  dx2y2           0.1       0.1       0.0       0.0       0.0       0.0
 9 H  py              0.2       0.0       0.0       0.0       0.0       0.0
10 H  s               0.4       0.2       0.0       0.0       0.0       0.0
10 H  pz              0.3       0.1       0.0       0.0       0.0       0.0
10 H  px              0.7       0.2       0.0       0.0       0.0       0.0
11 H  s               1.6       0.0       0.0       0.0       0.0       0.0
11 H  pz              0.5       0.0       0.0       0.0       0.0       0.0
11 H  px              3.2       0.1       0.0       0.0       0.0       0.0
12 H  s               0.9       0.0       0.0       0.0       0.0       0.0
12 H  py              2.4       0.0       0.0       0.0       0.0       0.0
13 H  s               0.2       0.2       0.0       0.0       0.0       0.0
13 H  pz              0.0       0.2       0.0       0.0       0.0       0.0
13 H  px              0.1       0.1       0.0       0.0       0.0       0.0
13 H  py              0.3       0.1       0.0       0.0       0.0       0.0
14 H  s               0.0       0.5       0.0       0.0       0.0       0.0
14 H  pz              0.1       0.5       0.0       0.0       0.0       0.0
14 H  py              0.0       0.4       0.0       0.0       0.0       0.0
15 H  s               1.5       3.9       0.0       0.0       0.0       0.0
15 H  pz              2.1       6.6       0.0       0.0       0.0       0.0
15 H  px              1.8       1.4       0.0       0.0       0.0       0.0
16 H  s               0.0       4.1       0.0       0.0       0.0       0.0
16 H  pz              0.0       2.3       0.0       0.0       0.0       0.0
16 H  px              0.0       1.8       0.0       0.0       0.0       0.0
16 H  py              0.0       3.1       0.0       0.0       0.0       0.0
17 H  s               0.5       2.8       0.0       0.0       0.0       0.0
17 H  pz              0.3       0.6       0.0       0.0       0.0       0.0
17 H  px              0.3       2.0       0.0       0.0       0.0       0.0
17 H  py              0.3       3.1       0.0       0.0       0.0       0.0
18 H  s               1.7       2.1       0.0       0.0       0.0       0.0
18 H  pz              0.9       0.7       0.0       0.0       0.0       0.0
18 H  px              2.5       2.3       0.0       0.0       0.0       0.0
18 H  py              0.7       1.6       0.0       0.0       0.0       0.0
19 H  s               1.3       1.3       0.0       0.0       0.0       0.0
19 H  pz              1.6       1.7       0.0       0.0       0.0       0.0
19 H  px              1.0       0.3       0.0       0.0       0.0       0.0
20 H  s               1.2       0.0       0.0       0.0       0.0       0.0
20 H  pz              0.9       0.0       0.0       0.0       0.0       0.0
20 H  px              1.1       0.0       0.0       0.0       0.0       0.0
21 H  s               2.6       0.2       0.0       0.0       0.0       0.0
21 H  pz              1.8       0.4       0.0       0.0       0.0       0.0
21 H  px              1.4       0.2       0.0       0.0       0.0       0.0
21 H  py              3.3       0.0       0.0       0.0       0.0       0.0
22 H  s               2.8       0.9       0.0       0.0       0.0       0.0
22 H  pz              2.1       1.2       0.0       0.0       0.0       0.0
22 H  py              3.7       0.9       0.0       0.0       0.0       0.0
23 H  s               0.9       0.1       0.0       0.0       0.0       0.0
23 H  pz              0.5       0.0       0.0       0.0       0.0       0.0
23 H  px              0.7       0.1       0.0       0.0       0.0       0.0
23 H  py              0.2       0.1       0.0       0.0       0.0       0.0

                    228       229       230       231   
                  22.10248  22.16697  22.18785  22.20331
                   0.00000   0.00000   0.00000   0.00000
                  --------  --------  --------  --------
 0 C  s               0.4       1.5       0.4       9.0
 1 C  s               2.6      12.3       2.9       0.0
 2 C  s              80.0       7.7       2.2       2.0
 3 C  s               2.2       0.2       8.1      71.3
 4 C  s              11.6      55.3       0.4       0.0
 5 C  s               0.7       0.0      29.1      10.4
 6 C  s               0.9      22.5       0.2       4.7
 7 C  s               1.3       0.3      56.5       2.2


                      *****************************
                      * MAYER POPULATION ANALYSIS *
                      *****************************

  NA   - Mulliken gross atomic population
  ZA   - Total nuclear charge
  QA   - Mulliken gross atomic charge
  VA   - Mayer's total valence
  BVA  - Mayer's bonded valence
  FA   - Mayer's free valence

  ATOM       NA         ZA         QA         VA         BVA        FA
  0 C      6.5331     6.0000    -0.5331     3.7568     3.7568     0.0000
  1 C      6.2362     6.0000    -0.2362     3.6144     3.6144     0.0000
  2 C      6.3642     6.0000    -0.3642     3.6677     3.6677    -0.0000
  3 C      6.0004     6.0000    -0.0004     3.4229     3.4229    -0.0000
  4 C      6.4073     6.0000    -0.4073     3.7052     3.7052     0.0000
  5 C      6.3003     6.0000    -0.3003     3.6492     3.6492    -0.0000
  6 C      6.2920     6.0000    -0.2920     3.5807     3.5807    -0.0000
  7 C      6.3923     6.0000    -0.3923     3.6796     3.6796    -0.0000
  8 H      0.8465     1.0000     0.1535     0.9592     0.9592    -0.0000
  9 H      0.8426     1.0000     0.1574     0.9579     0.9579     0.0000
 10 H      0.8369     1.0000     0.1631     0.9559     0.9559     0.0000
 11 H      0.8509     1.0000     0.1491     0.9568     0.9568     0.0000
 12 H      0.8547     1.0000     0.1453     0.9629     0.9629     0.0000
 13 H      0.8444     1.0000     0.1556     0.9579     0.9579    -0.0000
 14 H      0.8493     1.0000     0.1507     0.9568     0.9568     0.0000
 15 H      0.8347     1.0000     0.1653     0.9577     0.9577    -0.0000
 16 H      0.8374     1.0000     0.1626     0.9599     0.9599     0.0000
 17 H      0.8364     1.0000     0.1636     0.9615     0.9615     0.0000
 18 H      0.8444     1.0000     0.1556     0.9617     0.9617    -0.0000
 19 H      0.8398     1.0000     0.1602     0.9624     0.9624    -0.0000
 20 H      0.8441     1.0000     0.1559     0.9614     0.9614    -0.0000
 21 H      0.8425     1.0000     0.1575     0.9600     0.9600    -0.0000
 22 H      0.8410     1.0000     0.1590     0.9603     0.9603    -0.0000
 23 H      0.8287     1.0000     0.1713     0.9569     0.9569    -0.0000

  Mayer bond orders larger than 0.100000
B(  0-C ,  1-C ) :   0.8658 B(  0-C ,  8-H ) :   0.9661 B(  0-C ,  9-H ) :   0.9775 
B(  0-C , 10-H ) :   0.9789 B(  1-C ,  2-C ) :   0.9203 B(  1-C , 11-H ) :   0.9631 
B(  1-C , 12-H ) :   0.9838 B(  2-C ,  3-C ) :   0.8405 B(  2-C , 13-H ) :   0.9988 
B(  2-C , 14-H ) :   0.9713 B(  3-C ,  4-C ) :   0.9233 B(  3-C ,  7-C ) :   0.9283 
B(  3-C , 15-H ) :   0.9703 B(  4-C ,  5-C ) :   0.9110 B(  4-C , 16-H ) :   0.9741 
B(  4-C , 17-H ) :   0.9821 B(  5-C ,  6-C ) :   0.9014 B(  5-C , 18-H ) :   0.9506 
B(  5-C , 19-H ) :   0.9936 B(  6-C ,  7-C ) :   0.8766 B(  6-C , 20-H ) :   0.9870 
B(  6-C , 21-H ) :   0.9572 B(  7-C , 22-H ) :   0.9520 B(  7-C , 23-H ) :   0.9919 


-------
TIMINGS
-------

Total SCF time: 0 days 0 hours 0 min 26 sec 

Total time                  ....      26.250 sec
Sum of individual times     ....      25.869 sec  ( 98.5%)

SCF preparation             ....       0.320 sec  (  1.2%)
Fock matrix formation       ....      24.724 sec  ( 94.2%)
  Startup                   ....       0.044 sec  (  0.2% of F)
  Split-RI-J                ....       4.041 sec  ( 16.3% of F)
  XC integration            ....      15.259 sec  ( 61.7% of F)
    XC Preparation          ....       0.000 sec  (  0.0% of XC)
    Basis function eval.    ....       2.734 sec  ( 17.9% of XC)
    Density eval.           ....       4.862 sec  ( 31.9% of XC)
    XC-Functional eval.     ....       1.704 sec  ( 11.2% of XC)
    XC-Potential eval.      ....       5.238 sec  ( 34.3% of XC)
  CPCM terms                ....       4.935 sec  ( 20.0% of F)
Diagonalization             ....       0.000 sec  (  0.0%)
Density matrix formation    ....       0.190 sec  (  0.7%)
Total Energy calculation    ....       0.043 sec  (  0.2%)
Population analysis         ....       0.144 sec  (  0.5%)
Orbital Transformation      ....       0.063 sec  (  0.2%)
Orbital Orthonormalization  ....       0.000 sec  (  0.0%)
DIIS solution               ....       0.323 sec  (  1.2%)
  MO trafo                  ....       0.000 sec  (  0.0 % of DIIS)
  Orb grad                  ....       0.000 sec  (  0.0 % of DIIS)
  Energy W gradient         ....       0.000 sec  (  0.0 % of DIIS)
  DIIS error                ....       0.008 sec  (  2.6 % of DIIS)
  DIIS work                 ....       0.267 sec  ( 82.7 % of DIIS)
  Form Q                    ....       0.000 sec  (  0.0 % of DIIS)
  Form QpQm                 ....       0.000 sec  (  0.0 % of DIIS)
  Exp/Cayley                ....       0.000 sec  (  0.0 % of DIIS)
  Orb update                ....       0.000 sec  (  0.0 % of DIIS)
  Wake-sleep                ....       0.017 sec  (  5.4 % of DIIS)
SOSCF solution              ....       0.061 sec  (  0.2%)
  MO trafo                  ....       0.048 sec  ( 78.8 % of SOSCF)
  Orb grad                  ....       0.001 sec  (  1.1 % of SOSCF)
  Rot update                ....       0.000 sec  (  0.1 % of SOSCF)
  Step                      ....       0.012 sec  ( 19.8 % of SOSCF)
Finished LeanSCF after  26.5 sec

Maximum memory used throughout the entire LEANSCF-calculation: 37.5 MB


-------------------------------------------------------------------------------
                          DFT DISPERSION CORRECTION                            
                                                                               
                                DFTD4 V3.4.0                                   
-------------------------------------------------------------------------------
The R2SCAN3C composite method is recognized
Using three-body term ABC
Active option DFTDOPT                   ...         5   

-------------------------   ----------------
Dispersion correction           -0.007416807
-------------------------   ----------------

------------------   -----------------
gCP correction             0.010519641
------------------   -----------------

-------------------------   --------------------
FINAL SINGLE POINT ENERGY      -314.373862741623
-------------------------   --------------------


------------------------------------------------------------------------------
                              ORCA PROPERTY CALCULATIONS
------------------------------------------------------------------------------

GBWName                                 ... sp_solv.gbw
Number of atoms                         ...     24
Number of basis functions               ...    232
Max core memory                         ...   1024 MB

Electric properties:
Dipole moment                           ... YES
Quadrupole moment                       ...  NO
Static polarizability (Dipole/Dipole)   ...  NO
Static polarizability (Dipole/Quad.)    ...  NO
Static polarizability (Quad./Quad.)     ...  NO
Static polarizability (Velocity)        ...  NO

Atomic electric properties:
Dipole moment                           ...  NO
Quadrupole moment                       ...  NO
Static polarizability                   ...  NO

Choice of electric origin               ... Center of mass
Position of electric origin             ...    -0.000004     0.000000    -0.000003

General magnetic properties:
Magnetizability                         ...  NO

EPR properties:
g-Tensor (aka g-matrix)                 ...  NO
Zero-Field splitting spin-orbit         ...  NO
Zero-field splitting spin-spin          ...  NO
Hyperfine couplings                     ...  NO (   0 nuclei)
Quadrupole couplings                    ...  NO (   0 nuclei)
Contact density                         ...  NO (   0 nuclei)

NMR properties:
Chemical shifts                         ...  NO (   0 nuclei)
Spin-rotation constants                 ...  NO (   0 nuclei)
Spin-spin couplings                     ...  NO (   0 nuclei,    0 pairs)

Choice of magnetic origin               ... GIAO
Position of magnetic origin             ...     0.000000     0.000000     0.000000

Properties with geometric perturbations:
SCF Hessian                             ...  NO
IR spectrum                             ...  NO
VCD spectrum                            ...  NO
X-ray spectroscopy properties:
SCF XES/XAS/RIXS spectra                ...  NO


-------------
DIPOLE MOMENT
-------------

Method             : SCF
Type of density    : Electron Density
Multiplicity       :   1
Irrep              :   0
Energy             :  -314.3769655762096136 Eh
Relativity type    : 
Basis              : AO
                                X                 Y                 Z
Electronic contribution:      2.037417610      -0.267257469       1.466657795
Nuclear contribution   :     -2.070746977       0.240365211      -1.419622059
                        -----------------------------------------
Total Dipole Moment    :     -0.033329367      -0.026892258       0.047035736
                        -----------------------------------------
Magnitude (a.u.)       :      0.063611325
Magnitude (Debye)      :      0.161687140



--------------------
Rotational spectrum 
--------------------
 
Rotational constants in cm-1:             0.105833             0.044879             0.043801 
Rotational constants in MHz :          3172.793372          1345.440051          1313.125058 

Dipole components along the rotational axes: 
x,y,z [a.u.] :    -0.039171     0.048508    -0.012610 
x,y,z [Debye]:    -0.099565     0.123297    -0.032052 

 

Dipole moment calculation done in   0.0 sec 

Maximum memory used throughout the entire PROP-calculation: 15.4 MB

--------------------------------
SUGGESTED CITATIONS FOR THIS RUN
--------------------------------

Below you find a list of papers that are relevant to this ORCA run
We neither can nor want to force you to cite these papers, but we appreciate if you do
You receive ORCA, which is the product of decades of hard work by many enthusiastic individuals, for free
The only thing we kindly ask in return is that you cite our papers,
We deeply appreciate it, if you show your appreciation for ORCA by not just citing the generic ORCA reference.

Please note that relegating all ORCA citations to the supporting information does *not* help us.
SI sections are not indexed - citations you put there will not count into any citation statistics
But we need these citations in order to attract the funding resources that allow us to do what we are doing

Therefore, if you are a happy ORCA user, please consider citing a few of the papers listed below in the main body of your paper

In addition to the list printed below, the program has created the file sp_solv.bibtex that contains the list in bibtex format
You can import this file easily into all common literature databanks and citation aid programs


List of essential papers. We consider these as the minimum necessary citations

  1. Neese,F.
     Software update: the ORCA program system, version 5.0
     WIRES Comput. Molec. Sci., 2022 12(1)e1606
     doi.org/10.1002/wcms.1606
  2. Grimme,S.; Hansen,A.; Ehlert,S.; Mewes,J.
     r2SCAN-3c: A 'Swiss army knife' composite electronic-structure method
     J. Chem. Phys., 2021 154 064103
     doi.org/10.1063/5.0040021

List of papers to cite with high priority. The work reported in these papers was absolutely
necessary for this run to complete.
Our perspective: the developers of density functionals and basis sets usually get cited in chemistry papers
Good! But without the algorithms to do something with them, the functionals or basis sets would not do anything.
Hence, in our opinion, the algorithm design and method developments papers are equally worthy of getting cited

  1. Neese,F.
     An improvement of the resolution of the identity approximation for the formation of the Coulomb matrix
     J. Comp. Chem., 2003 24(14)1740-1747
     doi.org/10.1002/jcc.10318
  2. Garcia-Rates,M.; Neese,F.
     Effect of the Solute Cavity on the Solvation Energy and its Derivatives within the Framework of the Gaussian Charge Scheme
     J. Comput. Chem., 2020 41 922-939
     doi.org/10.1002/jcc.26139
  3. Neese,F.
     The SHARK Integral Generation and Digestion System
     J. Comp. Chem., 2022  1-16
     doi.org/10.1002/jcc.26942
  4. Lehtola,S.; Steigemann,C.; Oliveira,M.; Marques,M.
     Recent developments in Libxc - A comprehensive library of functionals for density functional theory
     Software X, 2018 7 
     doi.org/10.1016/j.softx.2017.11.002
  5. Caldeweyher,E.; Bannwarth,C.; Grimme,S.
     Extension of the D3 dispersion coefficient model
     J. Chem. Phys., 2017 147 034112-XXXX
     doi.org/10.1063/1.4993215
  6. Caldeweyher,E.; Ehlert,S.; Hansen,A.; Neugebauer,H.; Spicher,S.; Bannwarth,C.; Grimme,S.
     A generally applicable atomic-charge dependent London dispersion correction
     J. Chem. Phys., 2019 150 154122-XXXX
     doi.org/10.1063/1.5090222
  7. Caldeweyher,E.; Mewes,J.; Ehlert,S.; Grimme,S.
     Extension and evaluation of the D4 London-dispersion model for periodic systems
     Phys. Chem. Chem. Phys., 2020 22(16)8499-8512
     doi.org/10.1039/D0CP00502A

List of suggested additional citations. These are papers that are important in the 'surrounding' of 
of this run, or papers that preceded the highly important papers. If you like your results we are grateful for a citation.

  1. Neese,F.
     The ORCA program system
     WIRES Comput. Molec. Sci., 2012 2(1)73-78
     doi.org/10.1002/wcms.81
  2. Neese,F.
     Software update: the ORCA program system, version 4.0
     WIRES Comput. Molec. Sci., 2018 8(1)1-6
     doi.org/10.1002/wcms.1327
  3. Neese,F.; Wennmohs,F.; Becker,U.; Riplinger,C.
     The ORCA quantum chemistry program package
     J. Chem. Phys., 2020 152 Art. No. L224108
     doi.org/10.1063/5.0004608

List of optional additional citations

  1. Neese,F.
     Approximate second-order SCF convergence for spin unrestricted wavefunctions
     Chem. Phys. Lett., 2000 325(1-3)93-98
     doi.org/10.1016/s0009-2614(00)00662-x

Timings for individual modules:

Sum of individual times          ...       28.317 sec (=   0.472 min)
Startup calculation              ...        1.364 sec (=   0.023 min)   4.8 %
SCF iterations                   ...       26.838 sec (=   0.447 min)  94.8 %
Property calculations            ...        0.114 sec (=   0.002 min)   0.4 %
                             ****ORCA TERMINATED NORMALLY****
TOTAL RUN TIME: 0 days 0 hours 0 minutes 29 seconds 442 msec
