      -----------------------------------------------------------      
     |                   =====================                   |     
     |                           x T B                           |     
     |                   =====================                   |     
     |                         S. Grimme                         |     
     |          Mulliken Center for Theoretical Chemistry        |     
     |                    University of Bonn                     |     
      -----------------------------------------------------------      

   * xtb version 6.7.1 (edcfbbe) compiled by 'albert@albert-system' on 2024-07-22

   xtb is free software: you can redistribute it and/or modify it under
   the terms of the GNU Lesser General Public License as published by
   the Free Software Foundation, either version 3 of the License, or
   (at your option) any later version.
   
   xtb is distributed in the hope that it will be useful,
   but WITHOUT ANY WARRANTY; without even the implied warranty of
   MERCHANTABILITY or FITNESS FOR A PARTICULAR PURPOSE.  See the
   GNU Lesser General Public License for more details.
   
   Cite this work as:
   * C. Bannwarth, E. Caldeweyher, S. Ehlert, A. Hansen, P. Pracht,
     J. Seibert, S. Spicher, S. Grimme, WIREs Comput. Mol. Sci., 2020, 11,
     e01493. DOI: 10.1002/wcms.1493
   
   for GFN2-xTB:
   * C. Bannwarth, S. Ehlert and S. Grimme., J. Chem. Theory Comput., 2019,
     15, 1652-1671. DOI: 10.1021/acs.jctc.8b01176
   for GFN1-xTB:
   * S. Grimme, C. Bannwarth, P. Shushkov, J. Chem. Theory Comput., 2017,
     13, 1989-2009. DOI: 10.1021/acs.jctc.7b00118
   for GFN0-xTB:
   * P. Pracht, E. Caldeweyher, S. Ehlert, S. Grimme, ChemRxiv, 2019, preprint.
     DOI: 10.26434/chemrxiv.8326202.v1
   for GFN-FF:
   * S. Spicher and S. Grimme, Angew. Chem. Int. Ed., 2020, 59, 15665-15673.
     DOI: 10.1002/anie.202004239
   
   for ALPB and GBSA implicit solvation:
   * S. Ehlert, M. Stahn, S. Spicher, S. Grimme, J. Chem. Theory Comput.,
     2021, 17, 4250-4261. DOI: 10.1021/acs.jctc.1c00471
   
   for ddCOSMO and CPCM-X implicit solvation:
   * M. Stahn, S. Ehlert, S. Grimme, J. Phys. Chem. A,
     2023, XX, XXXX-XXXX. DOI: 10.1021/acs.jpca.3c04382
   
   for DFT-D4:
   * E. Caldeweyher, C. Bannwarth and S. Grimme, J. Chem. Phys., 2017,
     147, 034112. DOI: 10.1063/1.4993215
   * E. Caldeweyher, S. Ehlert, A. Hansen, H. Neugebauer, S. Spicher,
     C. Bannwarth and S. Grimme, J. Chem. Phys., 2019, 150, 154122.
     DOI: 10.1063/1.5090222
   * E. Caldeweyher, J.-M. Mewes, S. Ehlert and S. Grimme, Phys. Chem. Chem. Phys.
     2020, 22, 8499-8512. DOI: 10.1039/D0CP00502A
   
   for sTDA-xTB:
   * S. Grimme and C. Bannwarth, J. Chem. Phys., 2016, 145, 054103.
     DOI: 10.1063/1.4959605
   
   in the mass-spec context:
   * V. Asgeirsson, C. Bauer and S. Grimme, Chem. Sci., 2017, 8, 4879.
     DOI: 10.1039/c7sc00601b
   * J. Koopman and S. Grimme, ACS Omega 2019, 4, 12, 15120-15133.
     DOI: 10.1021/acsomega.9b02011
   
   for metadynamics refer to:
   * S. Grimme, J. Chem. Theory Comput., 2019, 155, 2847-2862
     DOI: 10.1021/acs.jctc.9b00143
   
   for SPH calculations refer to:
   * S. Spicher and S. Grimme, J. Chem. Theory Comput., 2021, 17, 1701-1714
     DOI: 10.1021/acs.jctc.0c01306
   
   for ONIOM refer to:
   * C. Plett, A. Katbashev, S. Ehlert, S. Grimme, M. Bursch,
     Phys. Chem. Chem. Phys., 2023, 25, 17860-17868. DOI: 10.1039/D3CP02178E
   
   for DIPRO refer to:
   * J. Kohn, N. Gildemeister, S. Grimme, D. Fazzi, A. Hansen,
     J. Chem. Phys., 2023, just accepted.
   
   for PTB refer to:
   * S. Grimme, M. Mueller, A. Hansen, J. Chem. Phys., 2023, 158, 124111.
     DOI: 10.1063/5.0137838
   
   with help from (in alphabetical order)
   P. Atkinson, C. Bannwarth, F. Bohle, G. Brandenburg, E. Caldeweyher
   M. Checinski, S. Dohm, S. Ehlert, S. Ehrlich, I. Gerasimov, C. Hölzer
   A. Katbashev, J. Kohn, J. Koopman, C. Lavigne, S. Lehtola, F. März, M. Müller,
   F. Musil, H. Neugebauer, J. Pisarek, C. Plett, P. Pracht, F. Pultar,
   J. Seibert, P. Shushkov, S. Spicher, M. Stahn, M. Steiner, T. Strunk,
   J. Stückrath, T. Rose, and J. Unsleber
   
 * started run on 2025/04/11 at 12:01:01.096     
   ID    Z sym.   atoms
    1    6 C      1-3, 6-11
    2    8 O      4
    3    7 N      5
    4   17 Cl     12, 13
    5    1 H      14-22

           -------------------------------------------------
          |                Calculation Setup                |
           -------------------------------------------------

          program call               : /srv/scratch/z5358697/.xtb/bin/xtb solv.coord --gfn2 --sp --chrg 0 --norestart --parallel 1 --alpb water reference -I xtb_sp-xcontrol-inp
          hostname                   : k133
          coordinate file            : solv.coord
          omp threads                :                     1


           -------------------------------------------------
          |                 G F N 2 - x T B                 |
           -------------------------------------------------

        Reference                      10.1021/acs.jctc.8b01176
      * Hamiltonian:
        H0-scaling (s, p, d)           1.850000    2.230000    2.230000
        zeta-weighting                 0.500000
      * Dispersion:
        s8                             2.700000
        a1                             0.520000
        a2                             5.000000
        s9                             5.000000
      * Repulsion:
        kExp                           1.500000    1.000000
        rExp                           1.000000
      * Coulomb:
        alpha                          2.000000
        third order                    shell-resolved
        anisotropic                    true
        a3                             3.000000
        a5                             4.000000
        cn-shift                       1.200000
        cn-exp                         4.000000
        max-rad                        5.000000

      * Solvation model:               ALPB
        Solvent                        water
        Parameter file                 internal GFN2-xTB/ALPB
        Dielectric constant                8.0200E+01
        Reference state                gsolv=reference [X=1]
        Free energy shift                  2.8945E-03 Eh       1.8164E+00 kcal/mol
        Temperature                        2.9815E+02 K
        Density                            1.0000E+00 kg/L
        Solvent mass                       1.8000E+01 g/mol
        Interaction kernel             P16
        Born radius scaling (c1)           1.4744E+00
        Born radii integrator          GBOBC
        Born offset                        0.0000E+00 a0       0.0000E+00 AA
        H-bond correction              true
        Ion screening                  false
        Surface tension                    1.0000E-05 Eh       1.5569E+01 dyn/cm
        Grid points                               974 per atom

          ...................................................
          :                      SETUP                      :
          :.................................................:
          :  # basis functions                  73          :
          :  # atomic orbitals                  71          :
          :  # shells                           37          :
          :  # electrons                        70          :
          :  max. iterations                   250          :
          :  Hamiltonian                  GFN2-xTB          :
          :  restarted?                      false          :
          :  GBSA solvation                   true          :
          :  PC potential                    false          :
          :  electronic temp.          300.0000000     K    :
          :  accuracy                    1.0000000          :
          :  -> integral cutoff          0.2500000E+02      :
          :  -> integral neglect         0.1000000E-07      :
          :  -> SCF convergence          0.1000000E-05 Eh   :
          :  -> wf. convergence          0.1000000E-03 e    :
          :  Broyden damping             0.4000000          :
          :  net charge                          0          :
          :  unpaired electrons                  0          :
          ...................................................

 iter      E             dE          RMSdq      gap      omega  full diag
   1    -40.3877027 -0.403877E+02  0.462E+00    3.78       0.0  T
   2    -40.4501302 -0.624275E-01  0.255E+00    3.77       1.0  T
   3    -40.4494044  0.725758E-03  0.104E+00    3.73       1.0  T
   4    -40.4515991 -0.219465E-02  0.405E-01    3.71       1.0  T
   5    -40.4535406 -0.194152E-02  0.114E-01    3.74       1.0  T
   6    -40.4535742 -0.335577E-04  0.814E-02    3.75       1.0  T
   7    -40.4536107 -0.365452E-04  0.506E-02    3.75       1.0  T
   8    -40.4536265 -0.158318E-04  0.363E-02    3.75       1.0  T
   9    -40.4536357 -0.918844E-05  0.178E-02    3.75       1.2  T
  10    -40.4536393 -0.362210E-05  0.499E-03    3.75       4.3  T
  11    -40.4536395 -0.115817E-06  0.272E-03    3.75       7.8  T
  12    -40.4536395 -0.178604E-07  0.826E-04    3.75      25.8  T
  13    -40.4536395 -0.295080E-08  0.414E-04    3.75      51.5  T

   *** convergence criteria satisfied after 13 iterations ***

         #    Occupation            Energy/Eh            Energy/eV
      -------------------------------------------------------------
         1        2.0000           -1.0719549             -29.1694
       ...           ...                  ...                  ...
        29        2.0000           -0.4405291             -11.9874
        30        2.0000           -0.4337071             -11.8018
        31        2.0000           -0.4319881             -11.7550
        32        2.0000           -0.4301505             -11.7050
        33        2.0000           -0.4166620             -11.3380
        34        2.0000           -0.4061705             -11.0525
        35        2.0000           -0.3956396             -10.7659 (HOMO)
        36                         -0.2577665              -7.0142 (LUMO)
        37                         -0.2531840              -6.8895
        38                         -0.2160836              -5.8799
        39                         -0.1614370              -4.3929
        40                         -0.1423524              -3.8736
       ...                                ...                  ...
        71                          0.6266689              17.0525
      -------------------------------------------------------------
                  HL-Gap            0.1378731 Eh            3.7517 eV
             Fermi-level           -0.3267030 Eh           -8.8900 eV

 SCC (total)                   0 d,  0 h,  0 min,  0.035 sec
 SCC setup                      ...        0 min,  0.001 sec (  3.929%)
 Dispersion                     ...        0 min,  0.000 sec (  0.437%)
 classical contributions        ...        0 min,  0.000 sec (  0.075%)
 integral evaluation            ...        0 min,  0.011 sec ( 32.103%)
 iterations                     ...        0 min,  0.013 sec ( 37.591%)
 molecular gradient             ...        0 min,  0.009 sec ( 25.389%)
 printout                       ...        0 min,  0.000 sec (  0.428%)

         :::::::::::::::::::::::::::::::::::::::::::::::::::::
         ::                     SUMMARY                     ::
         :::::::::::::::::::::::::::::::::::::::::::::::::::::
         :: total energy             -39.978991858862 Eh    ::
         :: total w/o Gsasa/hb       -39.978296771539 Eh    ::
         :: gradient norm              0.000154411174 Eh/a0 ::
         :: HOMO-LUMO gap              3.751719106938 eV    ::
         ::.................................................::
         :: SCC energy               -40.453446747051 Eh    ::
         :: -> isotropic ES            0.066900632141 Eh    ::
         :: -> anisotropic ES         -0.004555896444 Eh    ::
         :: -> anisotropic XC          0.012912221356 Eh    ::
         :: -> dispersion             -0.022823534224 Eh    ::
         :: -> Gsolv                  -0.015964572725 Eh    ::
         ::    -> Gelec               -0.015269485402 Eh    ::
         ::    -> Gsasa                0.000539437648 Eh    ::
         ::    -> Ghb                 -0.004129074131 Eh    ::
         ::    -> Gshift               0.002894549160 Eh    ::
         :: repulsion energy           0.474454888189 Eh    ::
         :: add. restraining           0.000000000000 Eh    ::
         :: total charge              -0.000000000000 e     ::
         :::::::::::::::::::::::::::::::::::::::::::::::::::::

           -------------------------------------------------
          |                Property Printout                |
           -------------------------------------------------

    * Orbital Energies and Occupations

         #    Occupation            Energy/Eh            Energy/eV
      -------------------------------------------------------------
         1        2.0000           -1.0719549             -29.1694
       ...           ...                  ...                  ...
        23        2.0000           -0.4785026             -13.0207
        24        2.0000           -0.4750415             -12.9265
        25        2.0000           -0.4674960             -12.7212
        26        2.0000           -0.4662395             -12.6870
        27        2.0000           -0.4611887             -12.5496
        28        2.0000           -0.4560754             -12.4104
        29        2.0000           -0.4405291             -11.9874
        30        2.0000           -0.4337071             -11.8018
        31        2.0000           -0.4319881             -11.7550
        32        2.0000           -0.4301505             -11.7050
        33        2.0000           -0.4166620             -11.3380
        34        2.0000           -0.4061705             -11.0525
        35        2.0000           -0.3956396             -10.7659 (HOMO)
        36                         -0.2577665              -7.0142 (LUMO)
        37                         -0.2531840              -6.8895
        38                         -0.2160836              -5.8799
        39                         -0.1614370              -4.3929
        40                         -0.1423524              -3.8736
        41                         -0.1267364              -3.4487
        42                         -0.0054130              -0.1473
        43                          0.0022068               0.0601
        44                          0.0047870               0.1303
        45                          0.0047960               0.1305
        46                          0.0061005               0.1660
       ...                                ...                  ...
        71                          0.6266689              17.0525
      -------------------------------------------------------------
                  HL-Gap            0.1378731 Eh            3.7517 eV
             Fermi-level           -0.3267030 Eh           -8.8900 eV

     #   Z          covCN         q      C6AA      α(0)
     1   6 C        3.754    -0.114    22.734     6.799
     2   6 C        3.803    -0.093    22.263     6.717
     3   6 C        2.750     0.285    22.176     7.711
     4   8 O        0.860    -0.514    24.094     6.581
     5   7 N        2.694    -0.159    24.441     7.342
     6   6 C        2.904     0.085    26.109     8.378
     7   6 C        2.924    -0.051    29.267     8.872
     8   6 C        2.952    -0.039    28.973     8.828
     9   6 C        2.915     0.090    26.000     8.361
    10   6 C        2.915     0.096    25.865     8.340
    11   6 C        2.959    -0.054    29.328     8.883
    12  17 Cl       0.983    -0.179   104.794    15.661
    13  17 Cl       0.979    -0.183   104.899    15.669
    14   1 H        0.925     0.047     2.353     2.399
    15   1 H        0.925     0.050     2.324     2.384
    16   1 H        0.925     0.061     2.188     2.313
    17   1 H        0.924     0.067     2.124     2.279
    18   1 H        0.925     0.071     2.073     2.252
    19   1 H        0.860     0.238     0.930     1.511
    20   1 H        0.926     0.099     1.791     2.093
    21   1 H        0.926     0.103     1.761     2.075
    22   1 H        0.926     0.093     1.845     2.124

 Mol. C6AA /au·bohr⁶  :       7800.738265
 Mol. C8AA /au·bohr⁸  :     217047.163067
 Mol. α(0) /au        :        137.574028


Wiberg/Mayer (AO) data.
largest (>0.10) Wiberg bond orders for each atom

 ---------------------------------------------------------------------------
     #   Z sym  total        # sym  WBO       # sym  WBO       # sym  WBO
 ---------------------------------------------------------------------------
     1   6 C    3.991 --     2 C    0.997    14 H    0.988    15 H    0.984
                            16 H    0.983
     2   6 C    3.993 --     1 C    0.997     3 C    0.981    17 H    0.974
                            18 H    0.957
     3   6 C    3.932 --     4 O    1.643     5 N    1.242     2 C    0.981
     4   8 O    1.934 --     3 C    1.643     5 N    0.171
     5   7 N    3.483 --     3 C    1.242     6 C    1.057    19 H    0.902
                             4 O    0.171
     6   6 C    3.970 --    11 C    1.379     7 C    1.369     5 N    1.057
     7   6 C    3.984 --     8 C    1.454     6 C    1.369    20 H    0.960
     8   6 C    3.979 --     7 C    1.454     9 C    1.392    21 H    0.959
                            11 C    0.102
     9   6 C    3.906 --     8 C    1.392    10 C    1.367    13 Cl   0.970
    10   6 C    3.914 --    11 C    1.410     9 C    1.367    12 Cl   0.971
    11   6 C    3.981 --    10 C    1.410     6 C    1.379    22 H    0.956
                             8 C    0.102
    12  17 Cl   1.108 --    10 C    0.971
    13  17 Cl   1.103 --     9 C    0.970
    14   1 H    0.998 --     1 C    0.988
    15   1 H    0.998 --     1 C    0.984
    16   1 H    0.996 --     1 C    0.983
    17   1 H    0.995 --     2 C    0.974
    18   1 H    0.995 --     2 C    0.957
    19   1 H    0.942 --     5 N    0.902
    20   1 H    0.990 --     7 C    0.960
    21   1 H    0.989 --     8 C    0.959
    22   1 H    0.991 --    11 C    0.956
 ---------------------------------------------------------------------------

Topologies differ in total number of bonds
Writing topology from bond orders to xtbtopo.mol

molecular dipole:
                 x           y           z       tot (Debye)
 q only:       -0.016       1.222       0.067
   full:       -0.635       0.970      -0.132       2.965
molecular quadrupole (traceless):
                xx          xy          yy          xz          yz          zz
 q only:      -27.890       1.003      15.728     -13.769       4.022      12.162
  q+dip:      -25.563       2.523      16.657     -12.097       5.615       8.906
   full:      -25.936       3.219      15.613     -12.704       4.800      10.322


           -------------------------------------------------
          | TOTAL ENERGY              -39.978991858862 Eh   |
          | GRADIENT NORM               0.000154411174 Eh/α |
          | HOMO-LUMO GAP               3.751719106938 eV   |
           -------------------------------------------------

------------------------------------------------------------------------
 * finished run on 2025/04/11 at 12:01:01.169     
------------------------------------------------------------------------
 total:
 * wall-time:     0 d,  0 h,  0 min,  0.073 sec
 *  cpu-time:     0 d,  0 h,  0 min,  0.037 sec
 * ratio c/w:     0.510 speedup
 SCF:
 * wall-time:     0 d,  0 h,  0 min,  0.035 sec
 *  cpu-time:     0 d,  0 h,  0 min,  0.028 sec
 * ratio c/w:     0.805 speedup

