
                                 *****************
                                 * O   R   C   A *
                                 *****************

                                            #,                                       
                                            ###                                      
                                            ####                                     
                                            #####                                    
                                            ######                                   
                                           ########,                                 
                                     ,,################,,,,,                         
                               ,,#################################,,                 
                          ,,##########################################,,             
                       ,#########################################, ''#####,          
                    ,#############################################,,   '####,        
                  ,##################################################,,,,####,       
                ,###########''''           ''''###############################       
              ,#####''   ,,,,##########,,,,          '''####'''          '####       
            ,##' ,,,,###########################,,,                        '##       
           ' ,,###''''                  '''############,,,                           
         ,,##''                                '''############,,,,        ,,,,,,###''
      ,#''                                            '''#######################'''  
     '                                                          ''''####''''         
             ,#######,   #######,   ,#######,      ##                                
            ,#'     '#,  ##    ##  ,#'     '#,    #''#        ,####,   ,####,        
            ##       ##  ##   ,#'  ##            #'  '#       #'       #'  '#        
            ##       ##  #######   ##           ,######,      #####,   #    #        
            '#,     ,#'  ##    ##  '#,     ,#' ,#      #,     #,   #   #,  ,#        
             '#######'   ##     ##  '#######'  #'      '#     '####' # '####'        



                #########################################################
                #                        -***-                          #
                #          Department of theory and spectroscopy        #
                #                                                       #
                #                      Frank Neese                      #
                #                                                       #
                #     Directorship, Architecture, Infrastructure        #
                #                    SHARK, DRIVERS                     #
                #        Core code/Algorithms in most modules           #
                #                                                       #
                #        Max Planck Institute fuer Kohlenforschung      #
                #                Kaiser Wilhelm Platz 1                 #
                #                 D-45470 Muelheim/Ruhr                 #
                #                      Germany                          #
                #                                                       #
                #                  All rights reserved                  #
                #                        -***-                          #
                #########################################################


                         Program Version 6.0.0  -   RELEASE  -


 With contributions from (in alphabetic order):
   Daniel Aravena         : Magnetic Suceptibility
   Michael Atanasov       : Ab Initio Ligand Field Theory (pilot matlab implementation)
   Alexander A. Auer      : GIAO ZORA, VPT2 properties, NMR spectrum
   Ute Becker             : All parallelization in ORCA, NUMFREQ, NUMCALC
   Giovanni Bistoni       : ED, misc. LED, open-shell LED, HFLD
   Martin Brehm           : Molecular dynamics
   Dmytro Bykov           : pre 5.0 version of the SCF Hessian
   Marcos Casanova-Páez   : Triplet and SCS-CIS(D). UHF-(DLPNO)-IP/EA/STEOM-CCSD. UHF-CVS-IP/STEOM-CCSD
   Vijay G. Chilkuri      : MRCI spin determinant printing, contributions to CSF-ICE
   Pauline Colinet        : FMM embedding
   Dipayan Datta          : RHF DLPNO-CCSD density
   Achintya Kumar Dutta   : EOM-CC, STEOM-CC
   Nicolas Foglia         : Exact transition moments, OPA infrastructure, MCD improvements
   Dmitry Ganyushin       : Spin-Orbit,Spin-Spin,Magnetic field MRCI
   Miquel Garcia          : C-PCM and meta-GGA Hessian, CCSD/C-PCM, Gaussian charge scheme
   Tiago L. C. Gouveia    : GS-ROHF, GS-ROCIS
   Yang Guo               : DLPNO-NEVPT2, F12-NEVPT2, CIM, IAO-localization
   Andreas Hansen         : Spin unrestricted coupled pair/coupled cluster methods
   Ingolf Harden          : AUTO-CI MPn and infrastructure 
   Benjamin Helmich-Paris : MC-RPA, TRAH-(SCF,CASSCF), AVAS, COSX integrals, SCF dyn. polar.
   Lee Huntington         : MR-EOM, pCC
   Robert Izsak           : Overlap fitted RIJCOSX, COSX-SCS-MP3, EOM
   Riya Kayal             : Wick's Theorem for AUTO-CI, AUTO-CI UHF-CCSDT
   Emily Kempfer          : AUTO-CI, RHF CISDT and CCSDT
   Christian Kollmar      : KDIIS, OOCD, Brueckner-CCSD(T), CCSD density, CASPT2, CASPT2-K, improved NEVPT2
   Axel Koslowski         : Symmetry handling
   Simone Kossmann        : Meta GGA functionals, TD-DFT gradient, OOMP2, (MP2 Hessian; deprecated post 5.0)
   Lucas Lang             : DCDCAS
   Marvin Lechner         : AUTO-CI (C++ implementation), FIC-MRCC
   Spencer Leger          : CASSCF response
   Dagmar Lenk            : GEPOL surface, SMD, ORCA-2-JSON
   Dimitrios Liakos       : Extrapolation schemes; Compound Job, initial MDCI parallelization
   Dimitrios Manganas     : Further ROCIS development; embedding schemes. LFT, Crystal Embedding
   Dimitrios Pantazis     : SARC Basis sets
   Anastasios Papadopoulos: AUTO-CI, single reference methods and gradients
   Taras Petrenko         : pre 6.0 DFT Hessian and TD-DFT gradient, (ASA, deprecated), ECA, 1-Electron XAS/XES, NRVS
   Peter Pinski           : DLPNO-MP2, DLPNO-MP2 Gradient
   Christoph Reimann      : Effective Core Potentials
   Marius Retegan         : Local ZFS, SOC
   Christoph Riplinger    : Optimizer, TS searches, QM/MM, DLPNO-CCSD(T), (RO)-DLPNO pert. Triples
   Michael Roemelt        : Original ROCIS implementation
   Masaaki Saitow         : Open-shell DLPNO-CCSD energy and density
   Barbara Sandhoefer     : DKH picture change effects
   Kantharuban Sivalingam : CASSCF convergence/infrastructure, NEVPT2 and variants, FIC-MRCI
   Bernardo de Souza      : ESD, SOC TD-DFT
   Georgi Stoychev        : AutoAux, RI-MP2 NMR, DLPNO-MP2 response, X2C
   Van Anh Tran           : RI-MP2 g-tensors
   Willem Van den Heuvel  : Paramagnetic NMR
   Zikuan Wang            : NOTCH, Electric field optimization 
   Frank Wennmohs         : Technical directorship and infrastructure
   Hang Xu                : AUTO-CI-Response properties 


 We gratefully acknowledge several colleagues who have allowed us to
 interface, adapt or use parts of their codes:
   Stefan Grimme, W. Hujo, H. Kruse, P. Pracht,  : VdW corrections, initial TS optimization,
                  C. Bannwarth, S. Ehlert,         DFT functionals, gCP, sTDA/sTD-DF
                  L. Wittmann, M. Mueller
   Ed Valeev, F. Pavosevic, A. Kumar             : LibInt (2-el integral package), F12 methods
   Garnet Chan, S. Sharma, J. Yang, R. Olivares  : DMRG
   Ulf Ekstrom                                   : XCFun DFT Library
   Mihaly Kallay                                 : mrcc  (arbitrary order and MRCC methods)
   Frank Weinhold                                : gennbo (NPA and NBO analysis)
   Simon Mueller                                 : openCOSMO-RS
   Christopher J. Cramer and Donald G. Truhlar   : smd solvation model
   Lars Goerigk                                  : TD-DFT with DH, B97 family of functionals
   V. Asgeirsson, H. Jonsson                     : NEB implementation
   FAccTs GmbH                                   : IRC, NEB, NEB-TS, DLPNO-Multilevel, CI-OPT
                                                   MM, QMMM, 2- and 3-layer-ONIOM, Crystal-QMMM,
                                                   LR-CPCM, SF, NACMEs, symmetry and pop. for TD-DFT,
                                                   nearIR, NL-DFT gradient (VV10), updates on ESD,
                                                   ML-optimized integration grids, MBIS, APM,
                                                   GOAT, DOCKER, SOLVATOR, interface openCOSMO-RS
   S Lehtola, MJT Oliveira, MAL Marques          : LibXC Library
   Liviu Ungur et al                             : ANISO software


 Your calculation uses the libint2 library for the computation of 2-el integrals
 For citations please refer to: http://libint.valeyev.net

 Your ORCA version has been built with support for libXC version: 6.2.2
 For citations please refer to: https://libxc.gitlab.io

 This ORCA versions uses:
   CBLAS   interface :  Fast vector & matrix operations
   LAPACKE interface :  Fast linear algebra routines
   SCALAPACK package :  Parallel linear algebra routines
   Shared memory     :  Shared parallel matrices
   BLAS/LAPACK       :  OpenBLAS 0.3.27  USE64BITINT DYNAMIC_ARCH NO_AFFINITY SkylakeX SINGLE_THREADED
        Core in use  :  SkylakeX
   Copyright (c) 2011-2014, The OpenBLAS Project


Your calculation utilizes the geometrical counterpoise correction gCP
Please cite in your paper:
H.Kruse, S. Grimme J.Chem.Phys., 136, (2012), 154101 
   

Your calculation utilizes the atom-pairwise dispersion correction
based on EEQ partial charges (D4)


================================================================================

----- Orbital basis set information -----
Your calculation utilizes the basis: def2-mTZVPP
   Stefan Grimme, Andreas Hansen, Sebastian Ehlert, and Jan-Michael Mewes 
   J. Chem. Phys. 154, 064103 (2021). DOI: 10.1063/5.0040021

----- AuxJ basis set information -----
Your calculation utilizes the auxiliary basis: def2/J
   F. Weigend, Phys. Chem. Chem. Phys. 8, 1057 (2006).

================================================================================
                                        WARNINGS
                       Please study these warnings very carefully!
================================================================================

Using LibXC functional ID 497 : Re-regularized SCAN exchange by Furness et al
[ 1]  J. W. Furness, A. D. Kaplan, J. Ning, J. P. Perdew, and J. Sun.,  J. Phys. Chem. Lett. 11, 8208-8215 (2020)
[ 2]  J. W. Furness, A. D. Kaplan, J. Ning, J. P. Perdew, and J. Sun.,  J. Phys. Chem. Lett. 11, 9248-9248 (2020)
Using LibXC functional ID 498 : Re-regularized SCAN correlation by Furness et al
[ 1]  J. W. Furness, A. D. Kaplan, J. Ning, J. P. Perdew, and J. Sun.,  J. Phys. Chem. Lett. 11, 8208-8215 (2020)
[ 2]  J. W. Furness, A. D. Kaplan, J. Ning, J. P. Perdew, and J. Sun.,  J. Phys. Chem. Lett. 11, 9248-9248 (2020)
Using LibXC functional ID 497 : Re-regularized SCAN exchange by Furness et al
[ 1]  J. W. Furness, A. D. Kaplan, J. Ning, J. P. Perdew, and J. Sun.,  J. Phys. Chem. Lett. 11, 8208-8215 (2020)
[ 2]  J. W. Furness, A. D. Kaplan, J. Ning, J. P. Perdew, and J. Sun.,  J. Phys. Chem. Lett. 11, 9248-9248 (2020)
Using LibXC functional ID 498 : Re-regularized SCAN correlation by Furness et al
[ 1]  J. W. Furness, A. D. Kaplan, J. Ning, J. P. Perdew, and J. Sun.,  J. Phys. Chem. Lett. 11, 8208-8215 (2020)
[ 2]  J. W. Furness, A. D. Kaplan, J. Ning, J. P. Perdew, and J. Sun.,  J. Phys. Chem. Lett. 11, 9248-9248 (2020)

================================================================================
                                       INPUT FILE
================================================================================
NAME = sp_gas.inp
|  1> ! r2scan-3c def2/J RI DEFGRID2 scfconv6 printgap
|  2> %output
|  3>     printlevel normal
|  4> end
|  5> * xyz 0 1
|  6> C -2.7807686988 0.8803410071 0.0760320594
|  7> C -1.5333903423 0.0302704328 0.2992075541
|  8> C -1.8939409372 -1.4473575702 0.4310057631
|  9> C -0.554773617 0.239330047 -0.8607663135
| 10> O 0.6798772973 -0.4530958606 -0.6406581593
| 11> C 1.64113224 0.1659391885 0.0353427323
| 12> O 1.5427958676 1.3015334602 0.4541828787
| 13> C 2.8452232961 -0.71051973 0.2087297797
| 14> H -3.478168671 0.7391268666 0.8968357003
| 15> H -3.2722932067 0.593034815 -0.8500868846
| 16> H -2.5221793118 1.934681238 0.020111618
| 17> H -1.0337500788 0.3630062185 1.2165915457
| 18> H -0.995061328 -2.0507913748 0.530589966
| 19> H -2.4378956557 -1.7799005887 -0.4497677421
| 20> H -2.5185348873 -1.6061581411 1.3058196206
| 21> H -0.9533711683 -0.1790742973 -1.7859646977
| 22> H -0.3406222154 1.3052825194 -0.9875094974
| 23> H 3.7458968951 -0.1198407085 0.0713838682
| 24> H 2.8061229084 -1.5367924375 -0.4925974755
| 25> H 2.8460928279 -1.0967154635 1.2258427517
| 26> *
| 27> 
| 28>                          ****END OF INPUT****
================================================================================

                       ****************************
                       * Single Point Calculation *
                       ****************************

---------------------------------
CARTESIAN COORDINATES (ANGSTROEM)
---------------------------------
  C     -2.780769    0.880341    0.076032
  C     -1.533390    0.030270    0.299208
  C     -1.893941   -1.447358    0.431006
  C     -0.554774    0.239330   -0.860766
  O      0.679877   -0.453096   -0.640658
  C      1.641132    0.165939    0.035343
  O      1.542796    1.301533    0.454183
  C      2.845223   -0.710520    0.208730
  H     -3.478169    0.739127    0.896836
  H     -3.272293    0.593035   -0.850087
  H     -2.522179    1.934681    0.020112
  H     -1.033750    0.363006    1.216592
  H     -0.995061   -2.050791    0.530590
  H     -2.437896   -1.779901   -0.449768
  H     -2.518535   -1.606158    1.305820
  H     -0.953371   -0.179074   -1.785965
  H     -0.340622    1.305283   -0.987509
  H      3.745897   -0.119841    0.071384
  H      2.806123   -1.536792   -0.492597
  H      2.846093   -1.096715    1.225843

----------------------------
CARTESIAN COORDINATES (A.U.)
----------------------------
  NO LB      ZA    FRAG     MASS         X           Y           Z
   0 C     6.0000    0    12.011   -5.254891    1.663603    0.143680
   1 C     6.0000    0    12.011   -2.897688    0.057203    0.565420
   2 C     6.0000    0    12.011   -3.579030   -2.735109    0.814483
   3 C     6.0000    0    12.011   -1.048370    0.452268   -1.626613
   4 O     8.0000    0    15.999    1.284782   -0.856227   -1.210668
   5 C     6.0000    0    12.011    3.101290    0.313580    0.066788
   6 O     8.0000    0    15.999    2.915462    2.459542    0.858281
   7 C     6.0000    0    12.011    5.376693   -1.342688    0.394442
   8 H     1.0000    0     1.008   -6.572786    1.396747    1.694774
   9 H     1.0000    0     1.008   -6.183738    1.120673   -1.606431
  10 H     1.0000    0     1.008   -4.766228    3.656018    0.038005
  11 H     1.0000    0     1.008   -1.953505    0.685982    2.299025
  12 H     1.0000    0     1.008   -1.880393   -3.875434    1.002670
  13 H     1.0000    0     1.008   -4.606955   -3.363525   -0.849938
  14 H     1.0000    0     1.008   -4.759341   -3.035199    2.467641
  15 H     1.0000    0     1.008   -1.801610   -0.338401   -3.374984
  16 H     1.0000    0     1.008   -0.643683    2.466626   -1.866123
  17 H     1.0000    0     1.008    7.078719   -0.226466    0.134896
  18 H     1.0000    0     1.008    5.302804   -2.904117   -0.930874
  19 H     1.0000    0     1.008    5.378336   -2.072492    2.316507

--------------------------------
INTERNAL COORDINATES (ANGSTROEM)
--------------------------------
 C      0   0   0     0.000000000000     0.00000000     0.00000000
 C      1   0   0     1.525903026732     0.00000000     0.00000000
 C      2   1   0     1.526680062956   111.02417372     0.00000000
 C      2   1   3     1.531971276115   109.59862832   122.20482678
 O      4   2   1     1.432572552174   111.60740745   175.16502023
 C      5   4   2     1.328229145262   118.46715813   272.45332976
 O      6   5   4     1.214360514959   123.55694836   358.33435130
 C      6   5   4     1.499359388340   111.56819628   178.37053941
 H      1   2   3     1.086290371685   109.99164170    57.96235954
 H      1   2   3     1.087123492673   110.30224889   298.18623523
 H      1   2   3     1.087027547641   110.69544467   177.88353482
 H      2   1   3     1.096333381796   109.01763146   239.63919973
 H      3   2   1     1.087213834458   110.47789803   176.65033483
 H      3   2   1     1.087305643503   110.13490841    56.74699413
 H      3   2   1     1.086570066353   110.28646187   296.82674262
 H      4   2   1     1.090841076123   110.88172907   291.92360422
 H      4   2   1     1.094613781609   110.21464202    54.33659025
 H      8   6   5     1.085807781231   109.48246049   139.51988382
 H      8   6   5     1.084488518318   109.97655924    16.98440837
 H      8   6   5     1.087964474820   108.43640910   257.25145624

---------------------------
INTERNAL COORDINATES (A.U.)
---------------------------
 C      0   0   0     0.000000000000     0.00000000     0.00000000
 C      1   0   0     2.883538827445     0.00000000     0.00000000
 C      2   1   0     2.885007213105   111.02417372     0.00000000
 C      2   1   3     2.895006156891   109.59862832   122.20482678
 O      4   2   1     2.707169790582   111.60740745   175.16502023
 C      5   4   2     2.509989327637   118.46715813   272.45332976
 O      6   5   4     2.294808801120   123.55694836   358.33435130
 C      6   5   4     2.833378620287   111.56819628   178.37053941
 H      1   2   3     2.052791304401   109.99164170    57.96235954
 H      1   2   3     2.054365674903   110.30224889   298.18623523
 H      1   2   3     2.054184365069   110.69544467   177.88353482
 H      2   1   3     2.071769843070   109.01763146   239.63919973
 H      3   2   1     2.054536396136   110.47789803   176.65033483
 H      3   2   1     2.054709890088   110.13490841    56.74699413
 H      3   2   1     2.053319850723   110.28646187   296.82674262
 H      4   2   1     2.061390889505   110.88172907   291.92360422
 H      4   2   1     2.068520269657   110.21464202    54.33659025
 H      8   6   5     2.051879340607   109.48246049   139.51988382
 H      8   6   5     2.049386295003   109.97655924    16.98440837
 H      8   6   5     2.055954900845   108.43640910   257.25145624

---------------------
BASIS SET INFORMATION
---------------------
There are 3 groups of distinct atoms

 Group   1 Type C   : 11s6p1d contracted to 5s3p1d pattern {62111/411/1}
 Group   2 Type O   : 11s6p2d contracted to 5s3p2d pattern {62111/411/11}
 Group   3 Type H   : 4s1p contracted to 2s1p pattern {31/1}

Atom   0C    basis set group =>   1
Atom   1C    basis set group =>   1
Atom   2C    basis set group =>   1
Atom   3C    basis set group =>   1
Atom   4O    basis set group =>   2
Atom   5C    basis set group =>   1
Atom   6O    basis set group =>   2
Atom   7C    basis set group =>   1
Atom   8H    basis set group =>   3
Atom   9H    basis set group =>   3
Atom  10H    basis set group =>   3
Atom  11H    basis set group =>   3
Atom  12H    basis set group =>   3
Atom  13H    basis set group =>   3
Atom  14H    basis set group =>   3
Atom  15H    basis set group =>   3
Atom  16H    basis set group =>   3
Atom  17H    basis set group =>   3
Atom  18H    basis set group =>   3
Atom  19H    basis set group =>   3
---------------------------------
AUXILIARY/J BASIS SET INFORMATION
---------------------------------
There are 3 groups of distinct atoms

 Group   1 Type C   : 12s5p4d2f1g contracted to 6s4p3d1f1g pattern {711111/2111/211/2/1}
 Group   2 Type O   : 12s5p4d2f1g contracted to 6s4p3d1f1g pattern {711111/2111/211/2/1}
 Group   3 Type H   : 5s2p1d contracted to 3s1p1d pattern {311/2/1}

Atom   0C    basis set group =>   1
Atom   1C    basis set group =>   1
Atom   2C    basis set group =>   1
Atom   3C    basis set group =>   1
Atom   4O    basis set group =>   2
Atom   5C    basis set group =>   1
Atom   6O    basis set group =>   2
Atom   7C    basis set group =>   1
Atom   8H    basis set group =>   3
Atom   9H    basis set group =>   3
Atom  10H    basis set group =>   3
Atom  11H    basis set group =>   3
Atom  12H    basis set group =>   3
Atom  13H    basis set group =>   3
Atom  14H    basis set group =>   3
Atom  15H    basis set group =>   3
Atom  16H    basis set group =>   3
Atom  17H    basis set group =>   3
Atom  18H    basis set group =>   3
Atom  19H    basis set group =>   3

Checking for AutoStart:
The File: sp_gas.gbw exists
Trying to determine its content:
     ... Fine, the file contains calculation information
     ... Fine, the calculation information was read
     ... Fine, the file contains a basis set
     ... Fine, the basis set was read
     ... Fine, the file contains a geometry
     ... Fine, the geometry was read
     ... Fine, the file contains a set of orbitals
     ... Fine, the orbitals can be read
     => possible old guess file was deleted
     => GBW file was renamed to GES file
     => GES file is set as startup file
     => Guess is set to MORead
     ... now leaving AutoStart

------------------------------------------------------------------------------
                             ORCA STARTUP CALCULATIONS
                           -- RI-GTO INTEGRALS CHOSEN --
------------------------------------------------------------------------------
------------------------------------------------------------------------------
                   ___                                                        
                  /   \      - P O W E R E D   B Y -                         
                 /     \                                                     
                 |  |  |   _    _      __       _____    __    __             
                 |  |  |  | |  | |    /  \     |  _  \  |  |  /  |          
                  \  \/   | |  | |   /    \    | | | |  |  | /  /          
                 / \  \   | |__| |  /  /\  \   | |_| |  |  |/  /          
                |  |  |   |  __  | /  /__\  \  |    /   |      \           
                |  |  |   | |  | | |   __   |  |    \   |  |\   \          
                \     /   | |  | | |  |  |  |  | |\  \  |  | \   \       
                 \___/    |_|  |_| |__|  |__|  |_| \__\ |__|  \__/        
                                                                              
                      - O R C A' S   B I G   F R I E N D -                    
                                      &                                       
                       - I N T E G R A L  F E E D E R -                       
                                                                              
 v1 FN, 2020, v2 2021, v3 2022-2024                                           
------------------------------------------------------------------------------


----------------------
SHARK INTEGRAL PACKAGE
----------------------

Number of atoms                             ...     20
Number of basis functions                   ...    222
Number of shells                            ...    110
Maximum angular momentum                    ...      2
Integral batch strategy                     ... SHARK/LIBINT Hybrid
RI-J (if used) integral strategy            ... SPLIT-RIJ (Revised 2003 algorithm where possible)
Printlevel                                  ...      1
Contraction scheme used                     ... SEGMENTED contraction
Prescreening option                         ... SCHWARTZ
   Thresh                                   ... 1.000e-10
   Tcut                                     ... 1.000e-11
   Tpresel                                  ... 1.000e-11 
Coulomb Range Separation                    ... NOT USED
Exchange Range Separation                   ... NOT USED
Multipole approximations                    ... NOT USED
Finite Nucleus Model                        ... NOT USED
CABS basis                                  ... NOT available
Auxiliary Coulomb fitting basis             ... AVAILABLE
   # of basis functions in Aux-J            ...    524
   # of shells in Aux-J                     ...    180
   Maximum angular momentum in Aux-J        ...      4
Auxiliary J/K fitting basis                 ... NOT available
Auxiliary Correlation fitting basis         ... NOT available
Auxiliary 'external' fitting basis          ... NOT available

Checking pre-screening integrals            ... done (  0.0 sec) Dimension = 110
Check shell pair data                       ... done (  0.0 sec)
Shell pair information
Shell pair cut-off parameter TPreSel        ...   1.0e-11
Total number of shell pairs                 ...      6105
Shell pairs after pre-screening             ...      5377
Total number of primitive shell pairs       ...     21533
Primitive shell pairs kept                  ...     13418
          la=0 lb=0:   1806 shell pairs
          la=1 lb=0:   2030 shell pairs
          la=1 lb=1:    592 shell pairs
          la=2 lb=0:    575 shell pairs
          la=2 lb=1:    323 shell pairs
          la=2 lb=2:     51 shell pairs

Calculating one electron integrals          ... done (  0.0 sec)
Calculating RI/J V-Matrix + Cholesky decomp.... done (  0.1 sec)
Calculating Nuclear repulsion               ... done (  0.0 sec) ENN=    397.362803965646 Eh

Diagonalization of the overlap matrix:
Smallest eigenvalue                        ... 2.037e-04
Time for diagonalization                   ...    0.005 sec
Threshold for overlap eigenvalues          ... 1.000e-07
Number of eigenvalues below threshold      ... 0
Time for construction of square roots      ...    0.020 sec
Total time needed                          ...    0.042 sec

-------------------
DFT GRID GENERATION
-------------------

General Integration Accuracy     IntAcc      ... 4.388
Radial Grid Type                 RadialGrid  ... OptM3 with GC (2021)
Angular Grid (max. ang.)         AngularGrid ... 4 (Lebedev-302)
Angular grid pruning method      GridPruning ... 4 (adaptive)
Weight generation scheme         WeightScheme... mBecke (2022)
Basis function cutoff            BFCut       ... 1.0000e-10
Integration weight cutoff        WCut        ... 1.0000e-14
Partially contracted basis set               ... off
Rotationally invariant grid construction     ... off
Angular grids for H and He will be reduced by one unit
Diffuse basis detected: some atoms will have their outermost
                        angular grid increased by 1.

Total number of grid points                  ...    87310
Total number of batches                      ...     1376
Average number of points per batch           ...       63
Average number of grid points per atom       ...     4366
Initializing property integral containers    ... done (  0.1 sec)

SHARK setup successfully completed in   1.4 seconds

Maximum memory used throughout the entire STARTUP-calculation: 39.5 MB
-------------------------------------------------------------------------------
                                 ORCA GUESS
                   Start orbitals & Density for SCF / CASSCF
-------------------------------------------------------------------------------

------------
SCF SETTINGS
------------
Hamiltonian:
 Density Functional     Method          .... DFT(GTOs)
  Functional kind                       .... Exchange
  Functional name                       .... Re-regularized SCAN exchange by Furness et al
  Functional family                     .... MGGA
  Functional refs                              
    [ 0] J. W. Furness, A. D. Kaplan, J. Ning, J. P. Perdew, and J. Sun.,  J. Phys. Chem. Lett. 11, 8208-8215 (2020), doi: 10.1021/acs.jpclett.0c02405
    [ 1] J. W. Furness, A. D. Kaplan, J. Ning, J. P. Perdew, and J. Sun.,  J. Phys. Chem. Lett. 11, 9248-9248 (2020), doi: 10.1021/acs.jpclett.0c03077
  Functional external parameters        .... 6
    Parameter  0 _c1        =  6.670000e-01 : c1 parameter        
    Parameter  1 _c2        =  8.000000e-01 : c2 parameter        
    Parameter  2 _d         =  1.240000e+00 : d parameter         
    Parameter  3 _k1        =  6.500000e-02 : k1 parameter        
    Parameter  4 _eta       =  1.000000e-03 : eta parameter       
    Parameter  5 _dp2       =  3.610000e-01 : dp2 parameter       
  Functional kind                       .... Correlation
  Functional name                       .... Re-regularized SCAN correlation by Furness et al
  Functional family                     .... MGGA
  Functional refs                              
    [ 0] J. W. Furness, A. D. Kaplan, J. Ning, J. P. Perdew, and J. Sun.,  J. Phys. Chem. Lett. 11, 8208-8215 (2020), doi: 10.1021/acs.jpclett.0c02405
    [ 1] J. W. Furness, A. D. Kaplan, J. Ning, J. P. Perdew, and J. Sun.,  J. Phys. Chem. Lett. 11, 9248-9248 (2020), doi: 10.1021/acs.jpclett.0c03077
  Functional external parameters        .... 1
    Parameter  0 _eta       =  1.000000e-03 : Regularization parameter
 Gradients option       PostSCFGGA      .... off
 RI-approximation to the Coulomb term is turned on
   Number of AuxJ basis functions       .... 524


General Settings:
 Integral files         IntName         .... sp_gas
 Hartree-Fock type      HFTyp           .... RHF
 Total Charge           Charge          ....    0
 Multiplicity           Mult            ....    1
 Number of Electrons    NEL             ....   64
 Basis Dimension        Dim             ....  222
 Nuclear Repulsion      ENuc            ....    397.3628039656 Eh

Convergence Acceleration:
 AO-DIIS                CNVDIIS         .... on
   Start iteration      DIISMaxIt       ....    12
   Startup error        DIISStart       ....  0.200000
   # of expansion vecs  DIISMaxEq       ....     5
   Bias factor          DIISBfac        ....   1.050
   Max. coefficient     DIISMaxC        ....  10.000
 MO-DIIS                CNVKDIIS        .... off
 Trust-Rad. Augm. Hess. CNVTRAH         .... auto
   Auto Start mean grad. ratio tolernc. ....  1.125000
   Auto Start start iteration           ....     1
   Auto Start num. interpolation iter.  ....    10
   Max. Number of Micro iterations      ....    24
   Max. Number of Macro iterations      .... Maxiter - #DIIS iter
   Number of Davidson start vectors     ....     2
   Converg. threshold    (grad. norm)   ....   3.330e-04
   Grad. Scal. Fac. for Micro threshold ....   0.100
   Minimum threshold for Micro iter.    ....   1.000e-02
   NR start threshold (gradient norm)   ....   1.000e-04
   Initial trust radius                 ....   0.400
   Minimum AH scaling param. (alpha)    ....   1.000
   Maximum AH scaling param. (alpha)    .... 1000.000
   Quad. conv. algorithm                .... NR
   White noise on init. David. guess    .... on
   Maximum white noise                  ....   0.010
   Pseudo random numbers                .... off
   Inactive MOs                         .... canonical
   Orbital update algorithm             .... Taylor
   Preconditioner                       .... Diag
   Full preconditioner red. dimension   ....   250
   COSX micro iterations for RIJONX calc.... off
 SOSCF                  CNVSOSCF        .... on
   Start iteration      SOSCFMaxIt      ....   150
   Startup grad/error   SOSCFStart      ....  0.003300
   Hessian update       SOSCFHessUp     .... L-BFGS
 Level Shifting         CNVShift        .... on
   Level shift para.    LevelShift      ....    0.2500
   Turn off err/grad.   ShiftErr        ....    0.0010
 Zerner damping         CNVZerner       .... off
 Static damping         CNVDamp         .... on
   Fraction old density DampFac         ....    0.7000
   Max. Damping (<1)    DampMax         ....    0.9800
   Min. Damping (>=0)   DampMin         ....    0.0000
   Turn off err/grad.   DampErr         ....    0.1000

SCF Procedure:
 Maximum # iterations   MaxIter         ....   125
 SCF integral mode      SCFMode         .... Direct
   Integral package                     .... SHARK and LIBINT hybrid scheme
 Reset frequency        DirectResetFreq ....    20
 Integral Threshold     Thresh          ....  1.000e-10 Eh
 Primitive CutOff       TCut            ....  1.000e-11 Eh

Convergence Tolerance:
 Convergence Check Mode ConvCheckMode   .... Total+1el-Energy
 Convergence forced     ConvForced      .... 0
 Energy Change          TolE            ....  1.000e-06 Eh
 1-El. energy change                    ....  1.000e-03 Eh
 Orbital Gradient       TolG            ....  3.330e-04
 Orbital Rotation angle TolX            ....  3.330e-04
 DIIS Error             TolErr          ....  1.000e-06

---------------------
INITIAL GUESS: MOREAD
---------------------
Guess MOs are being read from file: sp_gas.ges
Input Geometry matches current geometry (good)
Atom 0: N(Shells)= 9 and 6 - projection required
Input basis set needs projection
NBasis(read)= 136
NBasis(calc)= 222
Basis set overlap was calculated
Using GuessMode=FMatrix for the initial guess
C*T matrix was formed
Effective Fockian was calculated
Effective Fockian was diagonalized
Initial density was built
                      ------------------
                      INITIAL GUESS DONE (   0.0 sec)
                      ------------------
             **** ENERGY FILE WAS UPDATED (sp_gas.en.tmp) ****
Finished Guess after   0.3 sec
Maximum memory used throughout the entire GUESS-calculation: 15.2 MB

-------------------------------------------------------------------------------------------
                                      ORCA LEAN-SCF
                              memory conserving SCF solver
-------------------------------------------------------------------------------------------

----------------------------------------D-I-I-S--------------------------------------------
Iteration    Energy (Eh)           Delta-E    RMSDP     MaxDP     DIISErr   Damp  Time(sec)
-------------------------------------------------------------------------------------------
               ***  Starting incremental Fock matrix formation  ***
    1    -386.0481684007623926     0.00e+00  3.21e-03  1.28e-01  6.27e-01  0.700   2.9
    2    -386.1066971007411439    -5.85e-02  2.65e-03  9.57e-02  4.40e-01  0.700   4.4
    3    -386.1480726488628079    -4.14e-02  1.96e-03  6.81e-02  3.09e-01  0.700   2.8
    4    -386.1771215213892674    -2.90e-02  1.40e-03  4.81e-02  2.16e-01  0.700   2.7
                               ***Turning on AO-DIIS***
    5    -386.1974972481600616    -2.04e-02  1.02e-03  3.47e-02  1.51e-01  0.700   2.7
    6    -386.2117800490410673    -1.43e-02  7.24e-04  2.45e-02  1.06e-01  0.700   2.6
    7    -386.2217922147074205    -1.00e-02  5.11e-04  1.72e-02  7.41e-02  0.700   2.7
    8    -386.2288069368183869    -7.01e-03  1.20e-03  4.02e-02  5.19e-02  0.000   2.6
                              *** Initializing SOSCF ***
---------------------------------------S-O-S-C-F--------------------------------------
Iteration    Energy (Eh)           Delta-E    RMSDP     MaxDP     MaxGrad    Time(sec)
--------------------------------------------------------------------------------------
    9    -386.2451959433385582    -1.64e-02  8.18e-06  3.11e-04  8.49e-05     2.7
               *** Restarting incremental Fock matrix formation ***
   10    -386.2451960744689359    -1.31e-07  4.62e-06  9.38e-05  3.43e-05     3.1
                  *** Gradient check signals convergence ***

               *****************************************************
               *                     SUCCESS                       *
               *           SCF CONVERGED AFTER  10 CYCLES          *
               *****************************************************

             **** ENERGY FILE WAS UPDATED (sp_gas.en.tmp) ****

----------------
TOTAL SCF ENERGY
----------------

Total Energy       :       -386.24519607446894 Eh          -10510.26612 eV

Components:
Nuclear Repulsion  :        397.36280396564609 Eh           10812.79161 eV
Electronic Energy  :       -783.60800004011503 Eh          -21323.05772 eV
One Electron Energy:      -1311.82047654100415 Eh          -35696.44994 eV
Two Electron Energy:        528.21247650088912 Eh           14373.39221 eV

Virial components:
Potential Energy   :       -770.89660614917420 Eh          -20977.16311 eV
Kinetic Energy     :        384.65141007470527 Eh           10466.89699 eV
Virial Ratio       :          2.00414345549768

DFT components:
N(Alpha)           :       32.000008038282 electrons
N(Beta)            :       32.000008038282 electrons
N(Total)           :       64.000016076564 electrons
E(X)               :      -52.079444834168 Eh       
E(C)               :       -2.038954118268 Eh       
E(XC)              :      -54.118398952436 Eh       

---------------
SCF CONVERGENCE
---------------

  Last Energy change         ...    1.3113e-07  Tolerance :   1.0000e-06
  Last MAX-Density change    ...    9.3777e-05  Tolerance :   1.0000e-05
  Last RMS-Density change    ...    4.6157e-06  Tolerance :   1.0000e-06
  Last DIIS Error            ...    8.4919e-05  Tolerance :   1.0000e-06
  Last Orbital Gradient      ...    3.4301e-05  Tolerance :   3.3300e-04
  Last Orbital Rotation      ...    1.3624e-04  Tolerance :   3.3300e-04


----------------
ORBITAL ENERGIES
----------------

  NO   OCC          E(Eh)            E(eV) 
   0   2.0000     -18.997791      -516.9562 
   1   2.0000     -18.927759      -515.0505 
   2   2.0000     -10.155889      -276.3558 
   3   2.0000     -10.086043      -274.4552 
   4   2.0000     -10.042226      -273.2629 
   5   2.0000     -10.039382      -273.1855 
   6   2.0000     -10.023949      -272.7655 
   7   2.0000     -10.019630      -272.6480 
   8   2.0000      -1.072738       -29.1907 
   9   2.0000      -0.975768       -26.5520 
  10   2.0000      -0.782930       -21.3046 
  11   2.0000      -0.728249       -19.8167 
  12   2.0000      -0.662546       -18.0288 
  13   2.0000      -0.657286       -17.8857 
  14   2.0000      -0.563317       -15.3286 
  15   2.0000      -0.517398       -14.0791 
  16   2.0000      -0.470711       -12.8087 
  17   2.0000      -0.449708       -12.2372 
  18   2.0000      -0.446647       -12.1539 
  19   2.0000      -0.422369       -11.4933 
  20   2.0000      -0.410535       -11.1712 
  21   2.0000      -0.385748       -10.4967 
  22   2.0000      -0.373159       -10.1542 
  23   2.0000      -0.370628       -10.0853 
  24   2.0000      -0.359997        -9.7960 
  25   2.0000      -0.356370        -9.6973 
  26   2.0000      -0.325721        -8.8633 
  27   2.0000      -0.315852        -8.5948 
  28   2.0000      -0.307531        -8.3684 
  29   2.0000      -0.298149        -8.1130 
  30   2.0000      -0.266693        -7.2571 
  31   2.0000      -0.236746        -6.4422 
  32   0.0000      -0.014869        -0.4046 
  33   0.0000       0.073907         2.0111 
  34   0.0000       0.078433         2.1343 
  35   0.0000       0.112958         3.0737 
  36   0.0000       0.124185         3.3792 
  37   0.0000       0.132493         3.6053 
  38   0.0000       0.133652         3.6369 
  39   0.0000       0.134601         3.6627 
  40   0.0000       0.147307         4.0084 
  41   0.0000       0.151346         4.1183 
  42   0.0000       0.162630         4.4254 
*Only the first 10 virtual orbitals were printed.

                    ********************************
                    * MULLIKEN POPULATION ANALYSIS *
                    ********************************

-----------------------
MULLIKEN ATOMIC CHARGES
-----------------------
   0 C :   -0.487684
   1 C :   -0.018901
   2 C :   -0.505495
   3 C :   -0.195323
   4 O :   -0.176694
   5 C :    0.412533
   6 O :   -0.424769
   7 C :   -0.522971
   8 H :    0.153290
   9 H :    0.146118
  10 H :    0.154172
  11 H :    0.164239
  12 H :    0.159746
  13 H :    0.146313
  14 H :    0.149982
  15 H :    0.154686
  16 H :    0.171791
  17 H :    0.173905
  18 H :    0.171223
  19 H :    0.173840
Sum of atomic charges:   -0.0000000

--------------------------------
MULLIKEN REDUCED ORBITAL CHARGES
--------------------------------
  0 C s       :     3.329902  s :     3.329902
      pz      :     1.084053  p :     3.130901
      px      :     0.994599
      py      :     1.052248
      dz2     :     0.005014  d :     0.026881
      dxz     :     0.008185
      dyz     :     0.001554
      dx2y2   :     0.006958
      dxy     :     0.005170

  1 C s       :     3.059293  s :     3.059293
      pz      :     1.038825  p :     2.913958
      px      :     0.960050
      py      :     0.915084
      dz2     :     0.007866  d :     0.045649
      dxz     :     0.011447
      dyz     :     0.006565
      dx2y2   :     0.009645
      dxy     :     0.010126

  2 C s       :     3.337629  s :     3.337629
      pz      :     1.089160  p :     3.141042
      px      :     1.097645
      py      :     0.954237
      dz2     :     0.004785  d :     0.026824
      dxz     :     0.006099
      dyz     :     0.003990
      dx2y2   :     0.004874
      dxy     :     0.007076

  3 C s       :     3.282563  s :     3.282563
      pz      :     1.030776  p :     2.859275
      px      :     0.783953
      py      :     1.044545
      dz2     :     0.010381  d :     0.053486
      dxz     :     0.012835
      dyz     :     0.005507
      dx2y2   :     0.013060
      dxy     :     0.011703

  4 O s       :     3.701236  s :     3.701236
      pz      :     1.614928  p :     4.446908
      px      :     1.182820
      py      :     1.649160
      dz2     :     0.007430  d :     0.028550
      dxz     :     0.006081
      dyz     :     0.006033
      dx2y2   :     0.003445
      dxy     :     0.005561

  5 C s       :     3.116230  s :     3.116230
      pz      :     0.765598  p :     2.346012
      px      :     0.811133
      py      :     0.769282
      dz2     :     0.017133  d :     0.125225
      dxz     :     0.015028
      dyz     :     0.023902
      dx2y2   :     0.024732
      dxy     :     0.044430

  6 O s       :     3.839463  s :     3.839463
      pz      :     1.483948  p :     4.564709
      px      :     1.761997
      py      :     1.318764
      dz2     :     0.003300  d :     0.020597
      dxz     :     0.001274
      dyz     :     0.008935
      dx2y2   :     0.007409
      dxy     :    -0.000320

  7 C s       :     3.336886  s :     3.336886
      pz      :     1.107966  p :     3.161530
      px      :     1.005404
      py      :     1.048160
      dz2     :     0.005811  d :     0.024555
      dxz     :     0.001514
      dyz     :     0.005225
      dx2y2   :     0.003717
      dxy     :     0.008288

  8 H s       :     0.828359  s :     0.828359
      pz      :     0.007760  p :     0.018351
      px      :     0.006834
      py      :     0.003757

  9 H s       :     0.835626  s :     0.835626
      pz      :     0.008906  p :     0.018256
      px      :     0.005261
      py      :     0.004089

 10 H s       :     0.827573  s :     0.827573
      pz      :     0.003709  p :     0.018255
      px      :     0.003922
      py      :     0.010624

 11 H s       :     0.818271  s :     0.818271
      pz      :     0.008625  p :     0.017490
      px      :     0.004864
      py      :     0.004001

 12 H s       :     0.821905  s :     0.821905
      pz      :     0.003693  p :     0.018349
      px      :     0.008763
      py      :     0.005893

 13 H s       :     0.835456  s :     0.835456
      pz      :     0.008322  p :     0.018231
      px      :     0.005549
      py      :     0.004360

 14 H s       :     0.831714  s :     0.831714
      pz      :     0.008356  p :     0.018303
      px      :     0.006135
      py      :     0.003812

 15 H s       :     0.827958  s :     0.827958
      pz      :     0.009465  p :     0.017356
      px      :     0.003662
      py      :     0.004229

 16 H s       :     0.810225  s :     0.810225
      pz      :     0.003469  p :     0.017983
      px      :     0.002892
      py      :     0.011623

 17 H s       :     0.807796  s :     0.807796
      pz      :     0.003775  p :     0.018299
      px      :     0.008897
      py      :     0.005627

 18 H s       :     0.810590  s :     0.810590
      pz      :     0.006780  p :     0.018187
      px      :     0.003312
      py      :     0.008095

 19 H s       :     0.807547  s :     0.807547
      pz      :     0.010154  p :     0.018613
      px      :     0.003746
      py      :     0.004713


------------------------
MULLIKEN OVERLAP CHARGES
------------------------
B(  0-C ,  1-C ) :   0.4888 B(  0-C ,  2-C ) :  -0.1808 B(  0-C ,  3-C ) :  -0.1687 
B(  0-C ,  8-H ) :   0.8113 B(  0-C ,  9-H ) :   0.8516 B(  0-C , 10-H ) :   0.8147 
B(  1-C ,  2-C ) :   0.4516 B(  1-C ,  3-C ) :   0.4016 B(  1-C ,  4-O ) :  -0.1228 
B(  1-C ,  8-H ) :  -0.0855 B(  1-C ,  9-H ) :  -0.0786 B(  1-C , 10-H ) :  -0.0802 
B(  1-C , 11-H ) :   0.8782 B(  1-C , 12-H ) :  -0.0737 B(  1-C , 13-H ) :  -0.0816 
B(  1-C , 14-H ) :  -0.0856 B(  1-C , 15-H ) :  -0.0629 B(  1-C , 16-H ) :  -0.1079 
B(  2-C ,  3-C ) :  -0.2224 B(  2-C , 11-H ) :  -0.0592 B(  2-C , 12-H ) :   0.8149 
B(  2-C , 13-H ) :   0.8471 B(  2-C , 14-H ) :   0.8067 B(  3-C ,  4-O ) :   0.3250 
B(  3-C ,  5-C ) :  -0.2251 B(  3-C , 11-H ) :  -0.1196 B(  3-C , 15-H ) :   0.7893 
B(  3-C , 16-H ) :   0.8388 B(  4-O ,  5-C ) :   0.3464 B(  4-O ,  6-O ) :  -0.2318 
B(  4-O ,  7-C ) :  -0.0864 B(  4-O , 15-H ) :  -0.0907 B(  4-O , 16-H ) :  -0.0538 
B(  5-C ,  6-O ) :   1.0117 B(  5-C ,  7-C ) :   0.5191 B(  5-C , 17-H ) :  -0.0738 
B(  5-C , 18-H ) :  -0.1218 B(  6-O ,  7-C ) :  -0.1152 B(  7-C , 17-H ) :   0.8345 
B(  7-C , 18-H ) :   0.8505 B(  7-C , 19-H ) :   0.7632 


                     *******************************
                     * LOEWDIN POPULATION ANALYSIS *
                     *******************************

----------------------
LOEWDIN ATOMIC CHARGES
----------------------
   0 C :   -0.408658
   1 C :   -0.220916
   2 C :   -0.410345
   3 C :    0.038294
   4 O :   -0.601663
   5 C :    0.354376
   6 O :   -0.436223
   7 C :   -0.335690
   8 H :    0.157667
   9 H :    0.154221
  10 H :    0.157569
  11 H :    0.169263
  12 H :    0.161584
  13 H :    0.153997
  14 H :    0.154306
  15 H :    0.184031
  16 H :    0.194810
  17 H :    0.177979
  18 H :    0.174447
  19 H :    0.180951

-------------------------------
LOEWDIN REDUCED ORBITAL CHARGES
-------------------------------
  0 C s       :     2.967638  s :     2.967638
      pz      :     1.152893  p :     3.377636
      px      :     1.095551
      py      :     1.129192
      dz2     :     0.012428  d :     0.063384
      dxz     :     0.019658
      dyz     :     0.003399
      dx2y2   :     0.015815
      dxy     :     0.012083

  1 C s       :     2.907660  s :     2.907660
      pz      :     1.095230  p :     3.219905
      px      :     1.052470
      py      :     1.072205
      dz2     :     0.017301  d :     0.093351
      dxz     :     0.023979
      dyz     :     0.012181
      dx2y2   :     0.019242
      dxy     :     0.020646

  2 C s       :     2.968823  s :     2.968823
      pz      :     1.153953  p :     3.378281
      px      :     1.146840
      py      :     1.077487
      dz2     :     0.011938  d :     0.063241
      dxz     :     0.015419
      dyz     :     0.008289
      dx2y2   :     0.011424
      dxy     :     0.016173

  3 C s       :     2.863455  s :     2.863455
      pz      :     1.062515  p :     2.977672
      px      :     0.870162
      py      :     1.044995
      dz2     :     0.022641  d :     0.120579
      dxz     :     0.030661
      dyz     :     0.010371
      dx2y2   :     0.030955
      dxy     :     0.025952

  4 O s       :     3.461215  s :     3.461215
      pz      :     1.637678  p :     4.658188
      px      :     1.366764
      py      :     1.653746
      dz2     :     0.063044  d :     0.482259
      dxz     :     0.121114
      dyz     :     0.052960
      dx2y2   :     0.130488
      dxy     :     0.114653

  5 C s       :     2.737399  s :     2.737399
      pz      :     0.767477  p :     2.635971
      px      :     0.904191
      py      :     0.964303
      dz2     :     0.034496  d :     0.272254
      dxz     :     0.032739
      dyz     :     0.052746
      dx2y2   :     0.055412
      dxy     :     0.096860

  6 O s       :     3.551123  s :     3.551123
      pz      :     1.480303  p :     4.669688
      px      :     1.713517
      py      :     1.475869
      dz2     :     0.028879  d :     0.215411
      dxz     :     0.019678
      dyz     :     0.052335
      dx2y2   :     0.053785
      dxy     :     0.060734

  7 C s       :     2.957172  s :     2.957172
      pz      :     1.146711  p :     3.321697
      px      :     1.069285
      py      :     1.105702
      dz2     :     0.013604  d :     0.056821
      dxz     :     0.002468
      dyz     :     0.013718
      dx2y2   :     0.008649
      dxy     :     0.018382

  8 H s       :     0.798575  s :     0.798575
      pz      :     0.019105  p :     0.043759
      px      :     0.016286
      py      :     0.008368

  9 H s       :     0.802096  s :     0.802096
      pz      :     0.022063  p :     0.043684
      px      :     0.012257
      py      :     0.009364

 10 H s       :     0.798707  s :     0.798707
      pz      :     0.008080  p :     0.043724
      px      :     0.009069
      py      :     0.026574

 11 H s       :     0.787391  s :     0.787391
      pz      :     0.021552  p :     0.043346
      px      :     0.011926
      py      :     0.009869

 12 H s       :     0.794167  s :     0.794167
      pz      :     0.008112  p :     0.044249
      px      :     0.022018
      py      :     0.014118

 13 H s       :     0.802441  s :     0.802441
      pz      :     0.020566  p :     0.043562
      px      :     0.013020
      py      :     0.009977

 14 H s       :     0.801933  s :     0.801933
      pz      :     0.020483  p :     0.043762
      px      :     0.014562
      py      :     0.008717

 15 H s       :     0.775773  s :     0.775773
      pz      :     0.022308  p :     0.040196
      px      :     0.007361
      py      :     0.010527

 16 H s       :     0.761678  s :     0.761678
      pz      :     0.008053  p :     0.043512
      px      :     0.007586
      py      :     0.027873

 17 H s       :     0.778054  s :     0.778054
      pz      :     0.008489  p :     0.043967
      px      :     0.021626
      py      :     0.013853

 18 H s       :     0.781220  s :     0.781220
      pz      :     0.016838  p :     0.044333
      px      :     0.007323
      py      :     0.020173

 19 H s       :     0.774487  s :     0.774487
      pz      :     0.025549  p :     0.044562
      px      :     0.008458
      py      :     0.010555


---------------------------------
LOEWDIN BOND ORDERS (THRESH 0.050000)
---------------------------------
B(  0-C ,  1-C ) :   1.1073 B(  0-C ,  2-C ) :   0.0707 B(  0-C ,  3-C ) :   0.0816 
B(  0-C ,  8-H ) :   0.9204 B(  0-C ,  9-H ) :   0.9211 B(  0-C , 10-H ) :   0.9227 
B(  1-C ,  2-C ) :   1.1103 B(  1-C ,  3-C ) :   0.9984 B(  1-C ,  4-O ) :   0.1500 
B(  1-C , 11-H ) :   0.8521 B(  2-C ,  3-C ) :   0.0663 B(  2-C , 12-H ) :   0.9155 
B(  2-C , 13-H ) :   0.9219 B(  2-C , 14-H ) :   0.9239 B(  3-C ,  4-O ) :   1.3119 
B(  3-C ,  5-C ) :   0.0824 B(  3-C ,  6-O ) :   0.0670 B(  3-C , 15-H ) :   0.8223 
B(  3-C , 16-H ) :   0.8067 B(  4-O ,  5-C ) :   1.4472 B(  4-O ,  6-O ) :   0.4606 
B(  4-O ,  7-C ) :   0.1859 B(  4-O , 15-H ) :   0.0949 B(  4-O , 16-H ) :   0.0917 
B(  5-C ,  6-O ) :   2.1761 B(  5-C ,  7-C ) :   0.9734 B(  6-O ,  7-C ) :   0.1857 
B(  7-C , 17-H ) :   0.9044 B(  7-C , 18-H ) :   0.9024 B(  7-C , 19-H ) :   0.8977 


------------------------------------------
LOEWDIN REDUCED ORBITAL POPULATIONS PER MO
-------------------------------------------
THRESHOLD FOR PRINTING IS 0.1%%
                      0         1         2         3         4         5   
                 -18.99779 -18.92776 -10.15589 -10.08604 -10.04223 -10.03938
                   2.00000   2.00000   2.00000   2.00000   2.00000   2.00000
                  --------  --------  --------  --------  --------  --------
 1 C  s               0.0       0.0       0.0       0.0      99.6       0.0
 3 C  s               0.0       0.0       0.0      99.4       0.0       0.0
 4 O  s              99.9       0.0       0.0       0.0       0.0       0.0
 4 O  dxz             0.0       0.0       0.1       0.0       0.0       0.0
 4 O  dxy             0.0       0.0       0.1       0.1       0.0       0.0
 5 C  s               0.0       0.0      98.9       0.0       0.0       0.0
 6 O  s               0.0      99.9       0.0       0.0       0.0       0.0
 6 O  py              0.0       0.0       0.2       0.0       0.0       0.0
 6 O  dyz             0.0       0.0       0.1       0.0       0.0       0.0
 6 O  dx2y2           0.0       0.0       0.2       0.0       0.0       0.0
 7 C  s               0.0       0.0       0.0       0.0       0.0      99.7

                      6         7         8         9        10        11   
                 -10.02395 -10.01963  -1.07274  -0.97577  -0.78293  -0.72825
                   2.00000   2.00000   2.00000   2.00000   2.00000   2.00000
                  --------  --------  --------  --------  --------  --------
 0 C  s              99.7       0.0       0.0       0.0      11.0       3.9
 0 C  px              0.0       0.0       0.0       0.0       2.1       0.1
 0 C  py              0.0       0.0       0.0       0.0       1.1       0.2
 1 C  s               0.0       0.0       0.3       0.1      25.5       2.9
 1 C  pz              0.0       0.0       0.2       0.1       0.7       0.2
 1 C  px              0.1       0.0       0.6       0.1       0.2       1.5
 2 C  s               0.0      99.7       0.0       0.0      10.3       2.8
 2 C  pz              0.0       0.0       0.0       0.0       0.1       0.0
 2 C  px              0.0       0.0       0.1       0.0       0.1       0.0
 2 C  py              0.0       0.0       0.1       0.0       3.0       0.3
 3 C  s               0.0       0.0       4.5       1.8      11.0       1.9
 3 C  pz              0.0       0.0       0.3       0.0       1.4       0.5
 3 C  px              0.0       0.0       4.6       1.0       2.8       1.4
 3 C  py              0.0       0.0       0.8       0.7       0.1       0.2
 3 C  dx2y2           0.0       0.0       0.1       0.0       0.0       0.0
 3 C  dxy             0.0       0.0       0.2       0.1       0.0       0.1
 4 O  s               0.0       0.0      42.5      15.3       0.6       0.5
 4 O  pz              0.0       0.0       0.6       0.2       0.4       1.2
 4 O  px              0.0       0.0       0.2       0.7       5.5       7.3
 4 O  py              0.0       0.0       2.0       0.3       0.2       0.3
 4 O  dz2             0.0       0.0       0.1       0.0       0.1       0.0
 4 O  dxz             0.0       0.0       0.3       0.1       0.1       0.2
 4 O  dyz             0.0       0.0       0.2       0.5       0.0       0.0
 4 O  dx2y2           0.0       0.0       0.0       0.2       0.1       0.7
 4 O  dxy             0.0       0.0       0.1       0.7       0.4       0.1
 5 C  s               0.0       0.0      16.1       4.4       1.1       5.4
 5 C  pz              0.0       0.0       0.7       4.8       0.3       0.1
 5 C  px              0.0       0.0       4.2       1.4       0.5       6.1
 5 C  py              0.0       0.0       0.1      16.8       1.9       7.9
 5 C  dz2             0.0       0.0       0.1       0.1       0.0       0.0
 5 C  dxz             0.0       0.0       0.3       0.2       0.0       0.0
 5 C  dyz             0.0       0.0       0.5       0.2       0.0       0.0
 5 C  dx2y2           0.0       0.0       0.0       1.2       0.0       0.1
 5 C  dxy             0.0       0.0       0.2       0.2       0.0       0.1
 6 O  s               0.0       0.0      11.4      43.1       0.5       1.9
 6 O  pz              0.0       0.0       0.5       0.4       0.0       0.0
 6 O  px              0.0       0.0       0.0       0.1       0.0       0.3
 6 O  py              0.0       0.0       2.6       3.3       0.1       0.7
 6 O  dz2             0.0       0.0       0.1       0.0       0.0       0.2
 6 O  dyz             0.0       0.0       0.7       0.1       0.0       0.1
 6 O  dx2y2           0.0       0.0       0.5       0.1       0.1       0.4
 6 O  dxy             0.0       0.0       0.1       0.1       0.0       0.4
 7 C  s               0.0       0.0       1.1       0.3       1.5      27.6
 7 C  px              0.0       0.0       1.4       0.1       0.2       0.6
 7 C  py              0.0       0.0       0.5       0.5       0.0       0.1
 8 H  s               0.0       0.0       0.0       0.0       1.4       0.7
 9 H  s               0.0       0.0       0.0       0.0       1.4       0.6
10 H  s               0.0       0.0       0.0       0.0       1.4       0.6
10 H  py              0.0       0.0       0.0       0.0       0.1       0.0
11 H  s               0.0       0.0       0.0       0.0       3.1       0.5
11 H  pz              0.0       0.0       0.0       0.0       0.2       0.0
12 H  s               0.0       0.0       0.0       0.0       1.3       0.4
13 H  s               0.0       0.0       0.0       0.0       1.3       0.5
14 H  s               0.0       0.0       0.0       0.0       1.3       0.5
15 H  s               0.0       0.0       0.2       0.2       1.7       0.4
15 H  pz              0.0       0.0       0.0       0.0       0.1       0.0
16 H  s               0.0       0.0       0.3       0.1       1.4       0.3
16 H  py              0.0       0.0       0.0       0.0       0.1       0.0
17 H  s               0.0       0.0       0.1       0.0       0.2       4.8
17 H  px              0.0       0.0       0.0       0.0       0.0       0.3
17 H  py              0.0       0.0       0.0       0.0       0.0       0.1
18 H  s               0.0       0.0       0.1       0.0       0.3       5.3
18 H  pz              0.0       0.0       0.0       0.0       0.0       0.2
18 H  py              0.0       0.0       0.0       0.0       0.0       0.3
19 H  s               0.0       0.0       0.0       0.0       0.2       5.1
19 H  pz              0.0       0.0       0.0       0.0       0.0       0.4

                     12        13        14        15        16        17   
                  -0.66255  -0.65729  -0.56332  -0.51740  -0.47071  -0.44971
                   2.00000   2.00000   2.00000   2.00000   2.00000   2.00000
                  --------  --------  --------  --------  --------  --------
 0 C  s               6.2      19.8       5.9       0.1       0.0       0.2
 0 C  pz              0.1       0.1       0.1       2.2       1.0       0.1
 0 C  px              0.3       0.1       5.9       0.4       0.0       1.2
 0 C  py              0.0       0.9       0.6       0.2       0.9       1.9
 1 C  s               0.1       0.0       9.3       4.1       0.3       0.6
 1 C  pz              2.3       0.6       0.1       7.5       3.7       0.4
 1 C  px              5.7       1.3       4.8       0.4       0.2       1.9
 1 C  py              0.2      14.4       1.2       0.0       1.3       0.0
 1 C  dxz             0.1       0.0       0.0       0.0       0.0       0.0
 1 C  dx2y2           0.0       0.2       0.0       0.0       0.0       0.0
 1 C  dxy             0.0       0.2       0.0       0.0       0.0       0.0
 2 C  s               3.3      25.2       3.2       1.6       0.5       0.1
 2 C  pz              0.1       0.0       0.0       0.6       2.6       0.4
 2 C  px              0.3       0.1       0.9       1.0       0.4       0.5
 2 C  py              0.0       0.8       3.3       3.4       1.2       1.2
 3 C  s              15.5       0.3       0.3       5.3       0.0       0.2
 3 C  pz              0.7       0.1       4.2       8.1       1.2       2.6
 3 C  px              0.0       0.1       5.7       2.4       5.2       2.2
 3 C  py              0.0       1.0       3.0       7.1      12.8       0.0
 3 C  dz2             0.0       0.0       0.2       0.0       0.0       0.0
 3 C  dxz             0.0       0.0       0.1       0.0       0.0       0.0
 3 C  dxy             0.0       0.0       0.2       0.3       0.0       0.0
 4 O  s               1.0       0.0       2.0       2.8       1.2       0.9
 4 O  pz              2.1       0.0       6.1       0.1       0.5       5.5
 4 O  px             11.3       0.0       8.9       8.5       0.0       8.1
 4 O  py              0.2       0.1       0.7       3.5      16.1       2.4
 4 O  dz2             0.4       0.0       0.0       0.2       0.0       0.2
 4 O  dxz             0.3       0.0       0.1       1.0       0.4       0.1
 4 O  dyz             0.1       0.0       0.1       0.1       0.0       0.1
 4 O  dx2y2           0.6       0.0       0.1       0.0       1.6       0.0
 4 O  dxy             1.2       0.1       0.1       0.1       0.4       0.1
 5 C  s               0.6       0.0       1.9       2.6       0.9       2.7
 5 C  pz              1.1       0.0       0.3       1.5       1.4       7.8
 5 C  px              5.1       0.0       1.1       0.0       6.0       0.3
 5 C  py              0.2       0.0       1.2       0.4       1.2       0.5
 5 C  dyz             0.1       0.0       0.0       0.0       0.0       0.1
 5 C  dx2y2           0.0       0.0       0.0       0.0       0.1       0.2
 5 C  dxy             0.3       0.0       0.0       0.0       0.0       0.0
 6 O  s               0.0       0.0       0.9       1.4       0.0       9.7
 6 O  pz              0.0       0.0       0.1       1.1       1.1       0.0
 6 O  px              0.2       0.0       0.3       0.0       4.9       0.3
 6 O  py              0.0       0.0       0.7       1.1       0.6      23.1
 6 O  dz2             0.0       0.0       0.0       0.0       0.1       0.4
 6 O  dxz             0.0       0.0       0.0       0.0       0.3       0.0
 6 O  dyz             0.1       0.0       0.1       0.2       0.0       0.0
 6 O  dx2y2           0.1       0.0       0.1       0.1       0.3       0.3
 6 O  dxy             0.2       0.0       0.1       0.0       0.5       0.0
 7 C  s              12.5       0.0       1.3       0.8       1.5       0.3
 7 C  pz              0.1       0.0       0.1       0.5       0.0       6.3
 7 C  px              0.7       0.0       1.6       2.0       7.4       1.5
 7 C  py              0.0       0.0       0.1       0.7       3.9       5.3
 7 C  dxy             0.0       0.0       0.0       0.1       0.2       0.1
 8 H  s               1.7       4.4       3.3       0.0       0.2       0.5
 8 H  pz              0.1       0.2       0.2       0.0       0.0       0.0
 8 H  px              0.1       0.1       0.0       0.0       0.0       0.0
 9 H  s               1.3       4.5       3.1       0.7       0.3       0.0
 9 H  pz              0.1       0.3       0.2       0.0       0.0       0.0
10 H  s               1.2       5.2       2.0       0.2       0.3       0.8
10 H  py              0.1       0.4       0.1       0.0       0.0       0.0
11 H  s               0.0       0.0       4.9       5.1       0.7       0.0
11 H  pz              0.0       0.0       0.3       0.2       0.0       0.0
12 H  s               0.5       6.3       1.3       0.5       0.2       0.8
12 H  px              0.0       0.4       0.1       0.1       0.0       0.0
12 H  py              0.0       0.2       0.0       0.0       0.0       0.0
13 H  s               0.7       5.6       2.0       2.3       0.0       0.0
13 H  pz              0.0       0.3       0.1       0.1       0.0       0.0
13 H  px              0.0       0.1       0.0       0.0       0.0       0.0
14 H  s               1.0       5.7       1.7       0.7       1.8       0.1
14 H  pz              0.1       0.3       0.1       0.0       0.0       0.0
14 H  px              0.0       0.2       0.0       0.0       0.0       0.0
15 H  s               4.5       0.0       0.1       5.6       2.9       1.0
15 H  pz              0.3       0.0       0.0       0.1       0.1       0.0
15 H  py              0.1       0.0       0.0       0.2       0.0       0.0
16 H  s               3.4       0.2       0.5       7.2       4.9       0.0
16 H  py              0.3       0.0       0.0       0.3       0.2       0.0
17 H  s               3.5       0.0       1.0       0.8       1.8       0.1
17 H  px              0.2       0.0       0.0       0.0       0.0       0.0
17 H  py              0.1       0.0       0.0       0.0       0.1       0.0
18 H  s               2.4       0.0       0.4       0.4       1.9       5.5
18 H  pz              0.1       0.0       0.0       0.0       0.1       0.0
18 H  py              0.1       0.0       0.0       0.0       0.0       0.1
19 H  s               3.4       0.0       0.7       1.0       1.5       0.4
19 H  pz              0.2       0.0       0.0       0.0       0.1       0.0

                     18        19        20        21        22        23   
                  -0.44665  -0.42237  -0.41054  -0.38575  -0.37316  -0.37063
                   2.00000   2.00000   2.00000   2.00000   2.00000   2.00000
                  --------  --------  --------  --------  --------  --------
 0 C  s               0.1       0.1       0.1       0.1       0.0       0.0
 0 C  pz              4.5       2.6       4.3       2.2       0.0       0.3
 0 C  px              0.3       0.3       0.1       8.1      17.7       1.6
 0 C  py              0.7      11.0       7.5       0.0       7.0       0.3
 0 C  dz2             0.0       0.0       0.0       0.1       0.2       0.0
 1 C  s               0.6       0.5       0.0       0.0       0.2       0.0
 1 C  pz              7.0       4.9       2.2       1.1       0.0       0.6
 1 C  px              1.3       3.7       5.9       1.1       1.0       0.3
 1 C  py              0.1       3.0       0.1       4.1       3.5       2.3
 2 C  s               0.0       0.3       0.1       0.1       0.0       0.0
 2 C  pz              3.0       6.4       2.1       0.9       0.5       1.5
 2 C  px              0.7       2.0       7.8       7.5       0.1      12.5
 2 C  py              1.5       5.1       3.2       0.9       1.3       0.4
 3 C  s               0.0       0.4       0.2       0.2       0.5       0.1
 3 C  pz              2.4       0.5       6.5       1.8       2.6       5.7
 3 C  px              2.8       0.2       0.3       0.2       1.2       2.7
 3 C  py              0.1       1.9       0.4       2.9       1.6       0.8
 3 C  dz2             0.0       0.0       0.0       0.1       0.0       0.1
 3 C  dx2y2           0.0       0.2       0.0       0.0       0.0       0.0
 3 C  dxy             0.0       0.0       0.0       0.1       0.0       0.1
 4 O  s               0.0       0.3       0.0       1.4       0.5       0.0
 4 O  pz             15.3       0.4       0.1       0.2       4.8       0.1
 4 O  px              0.3       0.2       0.0       0.0       0.8       6.2
 4 O  py              2.0       6.9       0.0       0.2       0.8       0.0
 4 O  dz2             0.1       0.0       0.4       0.1       0.1       0.2
 4 O  dxz             0.0       0.1       1.2       0.1       0.1       0.0
 4 O  dyz             0.1       0.1       0.0       0.0       0.0       0.1
 4 O  dx2y2           0.0       0.1       0.1       0.3       0.1       0.0
 4 O  dxy             0.2       0.3       0.3       0.0       0.4       0.5
 5 C  s               0.7       0.3       0.0       0.3       0.2       0.1
 5 C  pz              5.5       0.5       3.9       0.3       0.2       0.9
 5 C  px              7.8       2.8       0.8       1.0       1.3       2.2
 5 C  py              2.0       3.5       1.0       1.5       4.9       0.2
 5 C  dxz             0.0       0.0       0.0       0.1       0.0       0.1
 5 C  dx2y2           0.0       0.1       0.0       0.1       0.2       0.0
 5 C  dxy             0.0       0.0       0.0       0.1       0.0       0.1
 6 O  s               2.0       2.5       0.0       1.0       2.0       0.1
 6 O  pz              4.9       3.6       2.9       1.9       2.8       0.1
 6 O  px              4.4       0.5       0.7       1.1       0.0       0.3
 6 O  py              1.7       5.5       0.1       5.1      10.4       0.9
 6 O  dz2             0.1       0.0       0.0       0.0       0.1       0.0
 6 O  dyz             0.4       0.1       0.2       0.0       0.0       0.0
 6 O  dx2y2           0.0       0.0       0.1       0.1       0.1       0.0
 6 O  dxy             0.5       0.1       0.0       0.2       0.0       0.0
 7 C  s               0.2       0.1       0.0       0.0       0.0       0.1
 7 C  pz              4.0       0.1      12.4       8.0       2.7      10.9
 7 C  px              0.1       7.6       4.1       1.6       0.5       9.6
 7 C  py              9.3       0.0       2.9      13.8       6.2       4.6
 7 C  dz2             0.1       0.0       0.1       0.0       0.1       0.0
 7 C  dyz             0.0       0.0       0.0       0.2       0.0       0.2
 7 C  dxy             0.0       0.1       0.0       0.0       0.0       0.1
 8 H  s               0.4       0.3       1.3       4.5       4.4       0.8
 8 H  pz              0.0       0.0       0.0       0.1       0.2       0.0
 9 H  s               1.5       1.8       0.6       0.0       3.6       0.0
 9 H  pz              0.0       0.0       0.0       0.0       0.2       0.0
10 H  s               0.4       4.5       3.8       0.2       5.8       0.0
10 H  py              0.0       0.1       0.1       0.0       0.2       0.0
11 H  s               1.8       2.3       0.0       0.2       0.1       0.1
11 H  px              0.1       0.0       0.0       0.0       0.0       0.0
12 H  s               0.7       3.6       4.3       1.2       0.1       3.1
12 H  py              0.0       0.0       0.0       0.1       0.0       0.1
13 H  s               0.7       0.9       0.1       3.0       0.7       4.2
13 H  pz              0.0       0.0       0.0       0.1       0.0       0.1
14 H  s               0.7       1.6       2.2       0.5       0.0       0.6
15 H  s               0.0       0.1       2.0       2.9       1.3       5.2
16 H  s               0.1       1.8       0.6       0.6       1.7       0.2
17 H  s               0.9       2.6       4.3       3.4       0.6       5.9
17 H  pz              0.0       0.0       0.0       0.1       0.0       0.1
18 H  s               0.7       0.0       0.4      11.0       0.4       8.1
18 H  pz              0.1       0.0       0.0       0.1       0.0       0.0
18 H  py              0.0       0.0       0.1       0.1       0.0       0.1
19 H  s               3.9       0.2       6.4       0.8       3.0       2.9
19 H  pz              0.1       0.0       0.1       0.0       0.1       0.0
19 H  py              0.0       0.0       0.0       0.2       0.0       0.1

                     24        25        26        27        28        29   
                  -0.36000  -0.35637  -0.32572  -0.31585  -0.30753  -0.29815
                   2.00000   2.00000   2.00000   2.00000   2.00000   2.00000
                  --------  --------  --------  --------  --------  --------
 0 C  s               0.0       0.0       0.1       0.0       0.8       0.2
 0 C  pz             31.4       1.1       0.1       4.1       2.6       0.1
 0 C  px              0.0       0.6       0.0       0.8      12.8       0.8
 0 C  py              0.7       0.0      15.4       0.7       0.9       6.4
 0 C  dz2             0.0       0.0       0.0       0.0       0.1       0.0
 0 C  dxz             0.4       0.0       0.0       0.2       0.1       0.1
 0 C  dx2y2           0.0       0.0       0.3       0.1       0.0       0.2
 0 C  dxy             0.0       0.0       0.0       0.0       0.1       0.0
 1 C  s               0.1       0.2       0.0       0.1       0.2       0.0
 1 C  pz              0.1       0.0       0.1       8.5       6.2       0.6
 1 C  px              0.0       0.1       0.9       1.1      16.7       0.0
 1 C  py              0.5       0.7       5.4       1.3       0.3      15.0
 1 C  dz2             0.0       0.0       0.0       0.0       0.4       0.1
 1 C  dxz             0.1       0.0       0.0       0.4       0.1       0.1
 1 C  dyz             0.2       0.1       0.0       0.1       0.1       0.1
 1 C  dx2y2           0.0       0.0       0.1       0.1       0.0       0.3
 1 C  dxy             0.0       0.0       0.0       0.0       0.4       0.2
 2 C  s               0.0       0.0       0.1       0.1       0.2       0.7
 2 C  pz             13.1      16.4       0.8       5.7       2.3       0.2
 2 C  px              1.8       5.4       5.1       1.3       9.5       0.0
 2 C  py              0.7       0.0       6.8       1.8       0.5      17.9
 2 C  dz2             0.0       0.1       0.0       0.0       0.1       0.0
 2 C  dxz             0.1       0.2       0.1       0.2       0.0       0.0
 2 C  dyz             0.0       0.0       0.0       0.1       0.1       0.0
 2 C  dxy             0.0       0.0       0.2       0.0       0.3       0.1
 3 C  s               0.2       0.1       0.2       0.6       0.1       0.1
 3 C  pz              0.1       0.8       0.0       7.1       0.0       0.4
 3 C  px              0.6       2.4       0.1       4.5       0.9       0.2
 3 C  py              0.5       0.5       7.7       0.2       0.1       9.2
 3 C  dz2             0.0       0.0       0.1       0.0       0.2       0.2
 3 C  dxz             0.0       0.1       0.1       0.1       0.0       0.1
 3 C  dyz             0.0       0.0       0.0       0.0       0.0       0.2
 3 C  dx2y2           0.0       0.0       0.2       0.0       0.1       0.4
 4 O  s               0.1       0.2       1.7       0.2       0.2       1.3
 4 O  pz              4.0       7.1       1.2       1.1       1.0       0.3
 4 O  px              0.1       0.3       0.4       0.1       1.9       0.5
 4 O  py              0.1       4.7      12.9       3.4       4.0      12.8
 4 O  dz2             0.0       0.2       0.0       0.7       0.0       0.1
 4 O  dxz             0.1       0.1       0.1       0.4       0.1       0.3
 4 O  dyz             0.0       0.2       0.0       0.0       0.1       0.0
 4 O  dx2y2           0.1       0.0       1.2       0.0       0.0       0.7
 4 O  dxy             0.0       0.0       0.0       0.0       0.0       0.2
 5 C  s               0.0       0.0       0.1       0.0       0.0       0.1
 5 C  pz              0.3       2.3       1.4       3.7       0.3       0.7
 5 C  px              0.6       2.1       0.1       0.5       0.1       0.0
 5 C  py              0.2       0.2       1.4       1.4       0.5       0.8
 5 C  dz2             0.0       0.0       0.0       0.2       0.0       0.0
 5 C  dxz             0.0       0.1       0.0       0.0       0.0       0.0
 5 C  dyz             0.0       0.2       0.2       0.2       0.0       0.1
 5 C  dx2y2           0.0       0.0       0.1       0.2       0.1       0.2
 5 C  dxy             0.0       0.1       0.0       0.2       0.0       0.1
 6 O  s               0.0       0.1       0.6       0.0       0.1       0.2
 6 O  pz              0.9       2.6       0.3      18.9       1.2       0.0
 6 O  px              0.5       1.0       0.0       4.5       0.0       0.3
 6 O  py              0.0       3.5       6.4       1.1       0.5       2.5
 6 O  dz2             0.0       0.1       0.0       0.0       0.0       0.0
 6 O  dyz             0.0       0.1       0.1       0.1       0.0       0.1
 6 O  dx2y2           0.0       0.0       0.1       0.0       0.1       0.1
 7 C  pz              1.5       7.0       0.1       2.7       0.6       0.0
 7 C  px              2.0       7.0       1.5       0.0       0.5       0.7
 7 C  py              1.4       1.0       0.1       0.8       0.1       0.1
 7 C  dz2             0.0       0.1       0.0       0.0       0.0       0.0
 7 C  dxy             0.0       0.1       0.0       0.0       0.0       0.0
 8 H  s               9.0       0.7       0.6       3.9       0.2       0.1
 8 H  px              0.2       0.0       0.0       0.0       0.1       0.0
 8 H  py              0.0       0.0       0.1       0.0       0.0       0.1
 9 H  s              12.6       0.1       0.6       1.2       4.8       1.0
 9 H  px              0.2       0.0       0.0       0.0       0.1       0.0
10 H  s               0.1       0.0       8.6       0.9       0.1       3.7
10 H  pz              0.2       0.0       0.0       0.0       0.0       0.0
11 H  s               0.1       0.0       0.2       3.2      12.9       3.1
11 H  pz              0.0       0.0       0.0       0.0       0.1       0.0
12 H  s               0.5       1.1       6.7       0.0       4.7       2.3
12 H  pz              0.1       0.1       0.0       0.0       0.0       0.0
12 H  px              0.0       0.0       0.1       0.0       0.0       0.1
13 H  s               7.0       2.4       0.0       1.3       6.6       0.3
13 H  px              0.1       0.2       0.0       0.0       0.0       0.0
13 H  py              0.0       0.0       0.1       0.0       0.0       0.2
14 H  s               1.9      11.2       2.2       5.0       0.2       0.1
14 H  px              0.1       0.1       0.0       0.0       0.1       0.0
14 H  py              0.0       0.0       0.1       0.0       0.0       0.2
15 H  s               0.9       2.1       1.1       0.6       0.7       3.4
16 H  s               0.0       0.2       4.0       0.2       0.0       8.6
17 H  s               2.2       5.6       0.4       0.5       0.0       0.1
18 H  s               0.0       0.5       0.1       0.2       0.1       0.0
19 H  s               1.5       5.0       0.1       2.2       0.4       0.0

                     30        31        32        33        34        35   
                  -0.26669  -0.23675  -0.01487   0.07391   0.07843   0.11296
                   2.00000   2.00000   0.00000   0.00000   0.00000   0.00000
                  --------  --------  --------  --------  --------  --------
 0 C  s               0.0       0.0       0.0       0.9      14.8       0.8
 0 C  pz              0.6       0.0       0.0       0.3       0.1       1.4
 0 C  px              1.4       0.0       0.1       0.5       1.0       1.2
 0 C  py              0.1       0.0       0.0       1.7       0.1       2.4
 0 C  dz2             0.0       0.0       0.0       0.0       0.1       0.0
 0 C  dxz             0.1       0.0       0.0       0.0       0.4       0.4
 0 C  dx2y2           0.0       0.0       0.0       0.2       0.0       0.0
 0 C  dxy             0.0       0.0       0.0       0.1       0.2       0.3
 1 C  s               0.3       0.0       0.3       0.7       6.4       0.3
 1 C  pz              7.2       0.3       0.4       1.1       2.6       2.3
 1 C  px              3.4       0.1       0.2       2.3       0.1       1.6
 1 C  py              0.0       0.0       0.0       0.2       0.5       0.8
 1 C  dz2             0.0       0.0       0.0       0.2       0.3       0.7
 1 C  dxz             0.2       0.0       0.0       0.0       0.1       0.5
 1 C  dx2y2           0.0       0.0       0.0       0.3       0.1       0.0
 1 C  dxy             0.0       0.0       0.0       0.1       0.1       0.1
 2 C  s               0.0       0.0       0.0       4.5       5.3       4.1
 2 C  pz              0.9       0.0       0.1       0.1       0.2       5.3
 2 C  px              0.2       0.0       0.0       0.6       0.6       3.1
[...]
 2 C  dxz             0.2       0.0       0.0       0.0       0.0       0.0
 2 C  dyz             0.2       0.0       0.0       0.0       0.0       0.0
 2 C  dx2y2           0.2       0.0       0.0       0.0       0.0       0.0
 3 C  s               0.3       1.3       0.6       0.2       6.0       1.2
 3 C  pz              1.3       0.5       0.1       0.0       0.0       0.0
 3 C  px              1.4       5.1       1.9       0.4       0.0       0.0
 3 C  py              4.4       1.8       0.9       0.1       0.0       0.0
 3 C  dz2             4.8       2.2       0.5       0.1       0.0       0.0
 3 C  dxz             0.7       0.3       0.1       0.0       0.0       0.0
 3 C  dyz             2.0       0.2       0.1       0.0       0.0       0.0
 3 C  dx2y2           3.5       2.7       1.2       0.2       0.0       0.0
 3 C  dxy             0.1       6.1       1.8       0.5       0.0       0.0
 4 O  s               1.3      28.0       4.0       1.0       0.0       0.0
 4 O  pz              0.1       0.2       6.1       0.1       0.0       0.0
 4 O  px              0.0       5.3      24.9       0.8       0.0       0.0
 4 O  py              1.2       8.0       0.7       0.2       0.0       0.0
 4 O  dz2             0.1       5.7       0.1       0.5       0.0       0.0
 4 O  dxz             0.1       7.2       7.0       0.3       0.0       0.0
 4 O  dyz             1.4       0.4       4.6       0.0       0.0       0.0
 4 O  dx2y2           2.5       7.9       0.4       0.4       0.0       0.0
 4 O  dxy             0.3       3.0      18.0       1.2       0.0       0.0
 5 C  s               0.3       0.4       2.9       5.1       0.0       0.6
 5 C  pz              0.1       0.5       1.6       1.0       0.0       0.0
 5 C  px              0.2       0.7       3.7       0.0       0.0       0.0
 5 C  py              0.3       0.8       1.0       6.9       0.0       0.0
 5 C  dz2             0.8       0.0       0.0       0.7       0.0       0.0
 5 C  dxz             0.0       0.9       4.0       0.0       0.0       0.0
 5 C  dyz             0.9       0.2       1.9       2.0       0.0       0.0
 5 C  dx2y2           1.6       0.3       0.6       3.7       0.0       0.0
 5 C  dxy             3.5       1.2       5.6       0.2       0.0       0.0
 6 O  s               3.6       0.9       0.6      18.2       0.0       0.0
 6 O  pz              0.8       0.2       0.0       2.7       0.0       0.0
 6 O  px              6.1       0.1       0.2       0.1       0.0       0.0
 6 O  py              0.1       0.7       0.5      18.9       0.0       0.0
 6 O  dz2             0.1       0.1       0.6       3.2       0.0       0.0
 6 O  dxz             2.0       0.0       0.0       0.1       0.0       0.0
 6 O  dyz             0.9       0.9       0.0      10.5       0.0       0.0
 6 O  dx2y2           0.9       1.3       0.0      19.3       0.0       0.0
 6 O  dxy             7.6       0.1       1.8       0.4       0.0       0.0
 7 C  s               0.0       0.0       0.0       0.0      81.2      14.9
 7 C  px              0.5       0.0       0.1       0.0       0.0       0.0
 7 C  py              0.1       0.0       0.1       0.0       0.0       0.0
 7 C  dz2             0.1       0.0       0.0       0.1       0.0       0.0
 7 C  dyz             0.2       0.0       0.2       0.1       0.0       0.0
 7 C  dx2y2           0.2       0.0       0.0       0.0       0.0       0.0
 7 C  dxy             1.2       0.1       0.2       0.0       0.0       0.0
 9 H  s               0.1       0.0       0.0       0.0       0.0       0.0
 9 H  pz              0.2       0.0       0.0       0.0       0.0       0.0
11 H  s               2.0       0.0       0.0       0.0       0.0       0.0
11 H  pz              4.0       0.0       0.0       0.0       0.0       0.0
11 H  px              1.4       0.0       0.0       0.0       0.0       0.0
11 H  py              0.3       0.0       0.0       0.0       0.0       0.0
13 H  s               0.2       0.0       0.0       0.0       0.0       0.0
13 H  pz              0.3       0.0       0.0       0.0       0.0       0.0
13 H  px              0.3       0.0       0.0       0.0       0.0       0.0
15 H  s               3.4       0.3       0.1       0.0       0.0       0.0
15 H  pz              5.9       0.3       0.1       0.0       0.0       0.0
15 H  px              0.7       0.1       0.0       0.0       0.0       0.0
15 H  py              0.6       0.6       0.1       0.0       0.0       0.0
16 H  s               3.6       0.4       0.2       0.0       0.0       0.0
16 H  pz              0.3       0.0       0.0       0.0       0.0       0.0
16 H  px              1.1       0.4       0.2       0.0       0.0       0.0
16 H  py              7.2       0.5       0.1       0.0       0.0       0.0
17 H  s               0.1       0.0       0.0       0.0       0.0       0.0
17 H  px              0.2       0.0       0.0       0.0       0.0       0.0
18 H  s               0.1       0.0       0.1       0.0       0.0       0.0
18 H  pz              0.2       0.0       0.1       0.0       0.0       0.0
18 H  py              0.2       0.0       0.0       0.0       0.0       0.0

                    216       217       218       219       220       221   
                  21.98884  22.07686  22.15342  22.23468  43.67664  43.77630
                   0.00000   0.00000   0.00000   0.00000   0.00000   0.00000
                  --------  --------  --------  --------  --------  --------
 0 C  s              46.5       0.7       0.4       0.0       0.0       0.0
 1 C  s               0.4      75.3      21.3       1.1       0.0       0.0
 2 C  s              51.6       3.8       1.4       1.0       0.0       0.0
 3 C  s               0.5      19.1      71.3       1.7       0.0       0.0
 4 O  s               0.0       0.0       0.1       0.1       1.0      98.9
 5 C  s               0.7       0.3       2.4      95.1       0.0       0.0
 6 O  s               0.0       0.0       0.0       0.2      98.9       1.0
 6 O  py              0.0       0.0       0.0       0.1       0.0       0.0
 7 C  s               0.0       0.5       2.7       0.2       0.0       0.0



                      *****************************
                      * MAYER POPULATION ANALYSIS *
                      *****************************

  NA   - Mulliken gross atomic population
  ZA   - Total nuclear charge
  QA   - Mulliken gross atomic charge
  VA   - Mayer's total valence
  BVA  - Mayer's bonded valence
  FA   - Mayer's free valence

  ATOM       NA         ZA         QA         VA         BVA        FA
  0 C      6.4877     6.0000    -0.4877     3.7842     3.7842    -0.0000
  1 C      6.0189     6.0000    -0.0189     3.5740     3.5740     0.0000
  2 C      6.5055     6.0000    -0.5055     3.7829     3.7829    -0.0000
  3 C      6.1953     6.0000    -0.1953     3.6286     3.6286     0.0000
  4 O      8.1767     8.0000    -0.1767     1.9311     1.9311    -0.0000
  5 C      5.5875     6.0000     0.4125     3.7911     3.7911    -0.0000
  6 O      8.4248     8.0000    -0.4248     1.9472     1.9472    -0.0000
  7 C      6.5230     6.0000    -0.5230     3.8670     3.8670    -0.0000
  8 H      0.8467     1.0000     0.1533     0.9631     0.9631    -0.0000
  9 H      0.8539     1.0000     0.1461     0.9665     0.9665     0.0000
 10 H      0.8458     1.0000     0.1542     0.9631     0.9631    -0.0000
 11 H      0.8358     1.0000     0.1642     0.9600     0.9600     0.0000
 12 H      0.8403     1.0000     0.1597     0.9614     0.9614    -0.0000
 13 H      0.8537     1.0000     0.1463     0.9669     0.9669     0.0000
 14 H      0.8500     1.0000     0.1500     0.9631     0.9631     0.0000
 15 H      0.8453     1.0000     0.1547     0.9539     0.9539    -0.0000
 16 H      0.8282     1.0000     0.1718     0.9597     0.9597    -0.0000
 17 H      0.8261     1.0000     0.1739     0.9581     0.9581    -0.0000
 18 H      0.8288     1.0000     0.1712     0.9595     0.9595    -0.0000
 19 H      0.8262     1.0000     0.1738     0.9563     0.9563    -0.0000

  Mayer bond orders larger than 0.100000
B(  0-C ,  1-C ) :   0.9104 B(  0-C ,  8-H ) :   0.9710 B(  0-C ,  9-H ) :   0.9805 
B(  0-C , 10-H ) :   0.9741 B(  1-C ,  2-C ) :   0.9143 B(  1-C ,  3-C ) :   0.9381 
B(  1-C , 11-H ) :   0.9511 B(  2-C , 12-H ) :   0.9725 B(  2-C , 13-H ) :   0.9818 
B(  2-C , 14-H ) :   0.9719 B(  3-C ,  4-O ) :   0.8430 B(  3-C , 15-H ) :   0.9624 
B(  3-C , 16-H ) :   0.9653 B(  4-O ,  5-C ) :   1.0440 B(  5-C ,  6-O ) :   1.8491 
B(  5-C ,  7-C ) :   0.9473 B(  7-C , 17-H ) :   0.9690 B(  7-C , 18-H ) :   0.9826 
B(  7-C , 19-H ) :   0.9379 

-------
TIMINGS
-------

Total SCF time: 0 days 0 hours 0 min 29 sec 

Total time                  ....      29.588 sec
Sum of individual times     ....      29.041 sec  ( 98.2%)

SCF preparation             ....       0.191 sec  (  0.6%)
Fock matrix formation       ....      27.728 sec  ( 93.7%)
  Startup                   ....       0.061 sec  (  0.2% of F)
  Split-RI-J                ....       5.258 sec  ( 19.0% of F)
  XC integration            ....      21.773 sec  ( 78.5% of F)
    XC Preparation          ....       0.000 sec  (  0.0% of XC)
    Basis function eval.    ....       3.648 sec  ( 16.8% of XC)
    Density eval.           ....       6.082 sec  ( 27.9% of XC)
    XC-Functional eval.     ....       2.533 sec  ( 11.6% of XC)
    XC-Potential eval.      ....       6.666 sec  ( 30.6% of XC)
Diagonalization             ....       0.000 sec  (  0.0%)
Density matrix formation    ....       0.281 sec  (  0.9%)
Total Energy calculation    ....       0.041 sec  (  0.1%)
Population analysis         ....       0.138 sec  (  0.5%)
Orbital Transformation      ....       0.071 sec  (  0.2%)
Orbital Orthonormalization  ....       0.000 sec  (  0.0%)
DIIS solution               ....       0.535 sec  (  1.8%)
  MO trafo                  ....       0.000 sec  (  0.0 % of DIIS)
  Orb grad                  ....       0.000 sec  (  0.0 % of DIIS)
  Energy W gradient         ....       0.000 sec  (  0.0 % of DIIS)
  DIIS error                ....       0.017 sec  (  3.2 % of DIIS)
  DIIS work                 ....       0.460 sec  ( 85.9 % of DIIS)
  Form Q                    ....       0.000 sec  (  0.0 % of DIIS)
  Form QpQm                 ....       0.000 sec  (  0.0 % of DIIS)
  Exp/Cayley                ....       0.000 sec  (  0.0 % of DIIS)
  Orb update                ....       0.000 sec  (  0.0 % of DIIS)
  Wake-sleep                ....       0.024 sec  (  4.6 % of DIIS)
SOSCF solution              ....       0.056 sec  (  0.2%)
  MO trafo                  ....       0.043 sec  ( 76.9 % of SOSCF)
  Orb grad                  ....       0.001 sec  (  1.2 % of SOSCF)
  Rot update                ....       0.000 sec  (  0.1 % of SOSCF)
  Step                      ....       0.012 sec  ( 21.7 % of SOSCF)
Finished LeanSCF after  29.7 sec

Maximum memory used throughout the entire LEANSCF-calculation: 24.1 MB


-------------------------------------------------------------------------------
                          DFT DISPERSION CORRECTION                            
                                                                               
                                DFTD4 V3.4.0                                   
-------------------------------------------------------------------------------
The R2SCAN3C composite method is recognized
Using three-body term ABC
Active option DFTDOPT                   ...         5   

-------------------------   ----------------
Dispersion correction           -0.005255973
-------------------------   ----------------

------------------   -----------------
gCP correction             0.011969666
------------------   -----------------

-------------------------   --------------------
FINAL SINGLE POINT ENERGY      -386.238482380603
-------------------------   --------------------


------------------------------------------------------------------------------
                              ORCA PROPERTY CALCULATIONS
------------------------------------------------------------------------------

GBWName                                 ... sp_gas.gbw
Number of atoms                         ...     20
Number of basis functions               ...    222
Max core memory                         ...   1024 MB

Electric properties:
Dipole moment                           ... YES
Quadrupole moment                       ...  NO
Static polarizability (Dipole/Dipole)   ...  NO
Static polarizability (Dipole/Quad.)    ...  NO
Static polarizability (Quad./Quad.)     ...  NO
Static polarizability (Velocity)        ...  NO

Atomic electric properties:
Dipole moment                           ...  NO
Quadrupole moment                       ...  NO
Static polarizability                   ...  NO

Choice of electric origin               ... Center of mass
Position of electric origin             ...    -0.000028    -0.000011     0.000002

General magnetic properties:
Magnetizability                         ...  NO

EPR properties:
g-Tensor (aka g-matrix)                 ...  NO
Zero-Field splitting spin-orbit         ...  NO
Zero-field splitting spin-spin          ...  NO
Hyperfine couplings                     ...  NO (   0 nuclei)
Quadrupole couplings                    ...  NO (   0 nuclei)
Contact density                         ...  NO (   0 nuclei)

NMR properties:
Chemical shifts                         ...  NO (   0 nuclei)
Spin-rotation constants                 ...  NO (   0 nuclei)
Spin-spin couplings                     ...  NO (   0 nuclei,    0 pairs)

Choice of magnetic origin               ... GIAO
Position of magnetic origin             ...     0.000000     0.000000     0.000000

Properties with geometric perturbations:
SCF Hessian                             ...  NO
IR spectrum                             ...  NO
VCD spectrum                            ...  NO
X-ray spectroscopy properties:
SCF XES/XAS/RIXS spectra                ...  NO


-------------
DIPOLE MOMENT
-------------

Method             : SCF
Type of density    : Electron Density
Multiplicity       :   1
Irrep              :   0
Energy             :  -386.2451960744689359 Eh
Relativity type    : 
Basis              : AO
                                X                 Y                 Z
Electronic contribution:      7.347903964       2.536386586      -0.885166006
Nuclear contribution   :     -7.616631585      -3.209216283       0.655123160
                        -----------------------------------------
Total Dipole Moment    :     -0.268727621      -0.672829697      -0.230042847
                        -----------------------------------------
Magnitude (a.u.)       :      0.760153962
Magnitude (Debye)      :      1.932157821



--------------------
Rotational spectrum 
--------------------
 
Rotational constants in cm-1:             0.133757             0.037298             0.033038 
Rotational constants in MHz :          4009.928021          1118.151010           990.458843 

Dipole components along the rotational axes: 
x,y,z [a.u.] :    -0.268725    -0.672828    -0.230051 
x,y,z [Debye]:    -0.683044    -1.710193    -0.584743 

 

Dipole moment calculation done in   0.0 sec 

Maximum memory used throughout the entire PROP-calculation: 13.9 MB

--------------------------------
SUGGESTED CITATIONS FOR THIS RUN
--------------------------------

Below you find a list of papers that are relevant to this ORCA run
We neither can nor want to force you to cite these papers, but we appreciate if you do
You receive ORCA, which is the product of decades of hard work by many enthusiastic individuals, for free
The only thing we kindly ask in return is that you cite our papers,
We deeply appreciate it, if you show your appreciation for ORCA by not just citing the generic ORCA reference.

Please note that relegating all ORCA citations to the supporting information does *not* help us.
SI sections are not indexed - citations you put there will not count into any citation statistics
But we need these citations in order to attract the funding resources that allow us to do what we are doing

Therefore, if you are a happy ORCA user, please consider citing a few of the papers listed below in the main body of your paper

In addition to the list printed below, the program has created the file sp_gas.bibtex that contains the list in bibtex format
You can import this file easily into all common literature databanks and citation aid programs


List of essential papers. We consider these as the minimum necessary citations

  1. Neese,F.
     Software update: the ORCA program system, version 5.0
     WIRES Comput. Molec. Sci., 2022 12(1)e1606
     doi.org/10.1002/wcms.1606
  2. Grimme,S.; Hansen,A.; Ehlert,S.; Mewes,J.
     r2SCAN-3c: A 'Swiss army knife' composite electronic-structure method
     J. Chem. Phys., 2021 154 064103
     doi.org/10.1063/5.0040021

List of papers to cite with high priority. The work reported in these papers was absolutely
necessary for this run to complete.
Our perspective: the developers of density functionals and basis sets usually get cited in chemistry papers
Good! But without the algorithms to do something with them, the functionals or basis sets would not do anything.
Hence, in our opinion, the algorithm design and method developments papers are equally worthy of getting cited

  1. Neese,F.
     An improvement of the resolution of the identity approximation for the formation of the Coulomb matrix
     J. Comp. Chem., 2003 24(14)1740-1747
     doi.org/10.1002/jcc.10318
  2. Neese,F.
     The SHARK Integral Generation and Digestion System
     J. Comp. Chem., 2022  1-16
     doi.org/10.1002/jcc.26942
  3. Lehtola,S.; Steigemann,C.; Oliveira,M.; Marques,M.
     Recent developments in Libxc - A comprehensive library of functionals for density functional theory
     Software X, 2018 7 
     doi.org/10.1016/j.softx.2017.11.002
  4. Caldeweyher,E.; Bannwarth,C.; Grimme,S.
     Extension of the D3 dispersion coefficient model
     J. Chem. Phys., 2017 147 034112-XXXX
     doi.org/10.1063/1.4993215
  5. Caldeweyher,E.; Ehlert,S.; Hansen,A.; Neugebauer,H.; Spicher,S.; Bannwarth,C.; Grimme,S.
     A generally applicable atomic-charge dependent London dispersion correction
     J. Chem. Phys., 2019 150 154122-XXXX
     doi.org/10.1063/1.5090222
  6. Caldeweyher,E.; Mewes,J.; Ehlert,S.; Grimme,S.
     Extension and evaluation of the D4 London-dispersion model for periodic systems
     Phys. Chem. Chem. Phys., 2020 22(16)8499-8512
     doi.org/10.1039/D0CP00502A

List of suggested additional citations. These are papers that are important in the 'surrounding' of 
of this run, or papers that preceded the highly important papers. If you like your results we are grateful for a citation.

  1. Neese,F.
     The ORCA program system
     WIRES Comput. Molec. Sci., 2012 2(1)73-78
     doi.org/10.1002/wcms.81
  2. Neese,F.
     Software update: the ORCA program system, version 4.0
     WIRES Comput. Molec. Sci., 2018 8(1)1-6
     doi.org/10.1002/wcms.1327
  3. Neese,F.; Wennmohs,F.; Becker,U.; Riplinger,C.
     The ORCA quantum chemistry program package
     J. Chem. Phys., 2020 152 Art. No. L224108
     doi.org/10.1063/5.0004608

List of optional additional citations

  1. Neese,F.
     Approximate second-order SCF convergence for spin unrestricted wavefunctions
     Chem. Phys. Lett., 2000 325(1-3)93-98
     doi.org/10.1016/s0009-2614(00)00662-x

Timings for individual modules:

Sum of individual times          ...       31.634 sec (=   0.527 min)
Startup calculation              ...        1.481 sec (=   0.025 min)   4.7 %
SCF iterations                   ...       30.029 sec (=   0.500 min)  94.9 %
Property calculations            ...        0.125 sec (=   0.002 min)   0.4 %
                             ****ORCA TERMINATED NORMALLY****
TOTAL RUN TIME: 0 days 0 hours 0 minutes 32 seconds 518 msec
