
                                 *****************
                                 * O   R   C   A *
                                 *****************

                                            #,                                       
                                            ###                                      
                                            ####                                     
                                            #####                                    
                                            ######                                   
                                           ########,                                 
                                     ,,################,,,,,                         
                               ,,#################################,,                 
                          ,,##########################################,,             
                       ,#########################################, ''#####,          
                    ,#############################################,,   '####,        
                  ,##################################################,,,,####,       
                ,###########''''           ''''###############################       
              ,#####''   ,,,,##########,,,,          '''####'''          '####       
            ,##' ,,,,###########################,,,                        '##       
           ' ,,###''''                  '''############,,,                           
         ,,##''                                '''############,,,,        ,,,,,,###''
      ,#''                                            '''#######################'''  
     '                                                          ''''####''''         
             ,#######,   #######,   ,#######,      ##                                
            ,#'     '#,  ##    ##  ,#'     '#,    #''#        ,####,   ,####,        
            ##       ##  ##   ,#'  ##            #'  '#       #'       #'  '#        
            ##       ##  #######   ##           ,######,      #####,   #    #        
            '#,     ,#'  ##    ##  '#,     ,#' ,#      #,     #,   #   #,  ,#        
             '#######'   ##     ##  '#######'  #'      '#     '####' # '####'        



                #########################################################
                #                        -***-                          #
                #          Department of theory and spectroscopy        #
                #                                                       #
                #                      Frank Neese                      #
                #                                                       #
                #     Directorship, Architecture, Infrastructure        #
                #                    SHARK, DRIVERS                     #
                #        Core code/Algorithms in most modules           #
                #                                                       #
                #        Max Planck Institute fuer Kohlenforschung      #
                #                Kaiser Wilhelm Platz 1                 #
                #                 D-45470 Muelheim/Ruhr                 #
                #                      Germany                          #
                #                                                       #
                #                  All rights reserved                  #
                #                        -***-                          #
                #########################################################


                         Program Version 6.0.0  -   RELEASE  -


 With contributions from (in alphabetic order):
   Daniel Aravena         : Magnetic Suceptibility
   Michael Atanasov       : Ab Initio Ligand Field Theory (pilot matlab implementation)
   Alexander A. Auer      : GIAO ZORA, VPT2 properties, NMR spectrum
   Ute Becker             : All parallelization in ORCA, NUMFREQ, NUMCALC
   Giovanni Bistoni       : ED, misc. LED, open-shell LED, HFLD
   Martin Brehm           : Molecular dynamics
   Dmytro Bykov           : pre 5.0 version of the SCF Hessian
   Marcos Casanova-Páez   : Triplet and SCS-CIS(D). UHF-(DLPNO)-IP/EA/STEOM-CCSD. UHF-CVS-IP/STEOM-CCSD
   Vijay G. Chilkuri      : MRCI spin determinant printing, contributions to CSF-ICE
   Pauline Colinet        : FMM embedding
   Dipayan Datta          : RHF DLPNO-CCSD density
   Achintya Kumar Dutta   : EOM-CC, STEOM-CC
   Nicolas Foglia         : Exact transition moments, OPA infrastructure, MCD improvements
   Dmitry Ganyushin       : Spin-Orbit,Spin-Spin,Magnetic field MRCI
   Miquel Garcia          : C-PCM and meta-GGA Hessian, CCSD/C-PCM, Gaussian charge scheme
   Tiago L. C. Gouveia    : GS-ROHF, GS-ROCIS
   Yang Guo               : DLPNO-NEVPT2, F12-NEVPT2, CIM, IAO-localization
   Andreas Hansen         : Spin unrestricted coupled pair/coupled cluster methods
   Ingolf Harden          : AUTO-CI MPn and infrastructure 
   Benjamin Helmich-Paris : MC-RPA, TRAH-(SCF,CASSCF), AVAS, COSX integrals, SCF dyn. polar.
   Lee Huntington         : MR-EOM, pCC
   Robert Izsak           : Overlap fitted RIJCOSX, COSX-SCS-MP3, EOM
   Riya Kayal             : Wick's Theorem for AUTO-CI, AUTO-CI UHF-CCSDT
   Emily Kempfer          : AUTO-CI, RHF CISDT and CCSDT
   Christian Kollmar      : KDIIS, OOCD, Brueckner-CCSD(T), CCSD density, CASPT2, CASPT2-K, improved NEVPT2
   Axel Koslowski         : Symmetry handling
   Simone Kossmann        : Meta GGA functionals, TD-DFT gradient, OOMP2, (MP2 Hessian; deprecated post 5.0)
   Lucas Lang             : DCDCAS
   Marvin Lechner         : AUTO-CI (C++ implementation), FIC-MRCC
   Spencer Leger          : CASSCF response
   Dagmar Lenk            : GEPOL surface, SMD, ORCA-2-JSON
   Dimitrios Liakos       : Extrapolation schemes; Compound Job, initial MDCI parallelization
   Dimitrios Manganas     : Further ROCIS development; embedding schemes. LFT, Crystal Embedding
   Dimitrios Pantazis     : SARC Basis sets
   Anastasios Papadopoulos: AUTO-CI, single reference methods and gradients
   Taras Petrenko         : pre 6.0 DFT Hessian and TD-DFT gradient, (ASA, deprecated), ECA, 1-Electron XAS/XES, NRVS
   Peter Pinski           : DLPNO-MP2, DLPNO-MP2 Gradient
   Christoph Reimann      : Effective Core Potentials
   Marius Retegan         : Local ZFS, SOC
   Christoph Riplinger    : Optimizer, TS searches, QM/MM, DLPNO-CCSD(T), (RO)-DLPNO pert. Triples
   Michael Roemelt        : Original ROCIS implementation
   Masaaki Saitow         : Open-shell DLPNO-CCSD energy and density
   Barbara Sandhoefer     : DKH picture change effects
   Kantharuban Sivalingam : CASSCF convergence/infrastructure, NEVPT2 and variants, FIC-MRCI
   Bernardo de Souza      : ESD, SOC TD-DFT
   Georgi Stoychev        : AutoAux, RI-MP2 NMR, DLPNO-MP2 response, X2C
   Van Anh Tran           : RI-MP2 g-tensors
   Willem Van den Heuvel  : Paramagnetic NMR
   Zikuan Wang            : NOTCH, Electric field optimization 
   Frank Wennmohs         : Technical directorship and infrastructure
   Hang Xu                : AUTO-CI-Response properties 


 We gratefully acknowledge several colleagues who have allowed us to
 interface, adapt or use parts of their codes:
   Stefan Grimme, W. Hujo, H. Kruse, P. Pracht,  : VdW corrections, initial TS optimization,
                  C. Bannwarth, S. Ehlert,         DFT functionals, gCP, sTDA/sTD-DF
                  L. Wittmann, M. Mueller
   Ed Valeev, F. Pavosevic, A. Kumar             : LibInt (2-el integral package), F12 methods
   Garnet Chan, S. Sharma, J. Yang, R. Olivares  : DMRG
   Ulf Ekstrom                                   : XCFun DFT Library
   Mihaly Kallay                                 : mrcc  (arbitrary order and MRCC methods)
   Frank Weinhold                                : gennbo (NPA and NBO analysis)
   Simon Mueller                                 : openCOSMO-RS
   Christopher J. Cramer and Donald G. Truhlar   : smd solvation model
   Lars Goerigk                                  : TD-DFT with DH, B97 family of functionals
   V. Asgeirsson, H. Jonsson                     : NEB implementation
   FAccTs GmbH                                   : IRC, NEB, NEB-TS, DLPNO-Multilevel, CI-OPT
                                                   MM, QMMM, 2- and 3-layer-ONIOM, Crystal-QMMM,
                                                   LR-CPCM, SF, NACMEs, symmetry and pop. for TD-DFT,
                                                   nearIR, NL-DFT gradient (VV10), updates on ESD,
                                                   ML-optimized integration grids, MBIS, APM,
                                                   GOAT, DOCKER, SOLVATOR, interface openCOSMO-RS
   S Lehtola, MJT Oliveira, MAL Marques          : LibXC Library
   Liviu Ungur et al                             : ANISO software


 Your calculation uses the libint2 library for the computation of 2-el integrals
 For citations please refer to: http://libint.valeyev.net

 Your ORCA version has been built with support for libXC version: 6.2.2
 For citations please refer to: https://libxc.gitlab.io

 This ORCA versions uses:
   CBLAS   interface :  Fast vector & matrix operations
   LAPACKE interface :  Fast linear algebra routines
   SCALAPACK package :  Parallel linear algebra routines
   Shared memory     :  Shared parallel matrices
   BLAS/LAPACK       :  OpenBLAS 0.3.27  USE64BITINT DYNAMIC_ARCH NO_AFFINITY SkylakeX SINGLE_THREADED
        Core in use  :  SkylakeX
   Copyright (c) 2011-2014, The OpenBLAS Project


Your calculation utilizes the geometrical counterpoise correction gCP
Please cite in your paper:
H.Kruse, S. Grimme J.Chem.Phys., 136, (2012), 154101 
   

Your calculation utilizes the atom-pairwise dispersion correction
based on EEQ partial charges (D4)


================================================================================

----- Orbital basis set information -----
Your calculation utilizes the basis: def2-SV(P)
   F. Weigend and R. Ahlrichs, Phys. Chem. Chem. Phys. 7, 3297 (2005).

----- AuxJ basis set information -----
Your calculation utilizes the auxiliary basis: def2/J
   F. Weigend, Phys. Chem. Chem. Phys. 8, 1057 (2006).

================================================================================
                                        WARNINGS
                       Please study these warnings very carefully!
================================================================================


================================================================================
                                       INPUT FILE
================================================================================
NAME = sp.inp
|  1> ! pbe def2-sv(p) def2/J RI DEFGRID1 loosescf d4 GCP(DFT/SV(P)) printgap
|  2> %output
|  3>     printlevel normal
|  4> end
|  5> * xyz 0 1
|  6> C 3.2578814774 1.1013865952 1.4077149019
|  7> C 3.7699068317 0.8326717996 -0.0079974601
|  8> C 3.4041416703 -0.546516214 -0.4951211809
|  9> O 4.2673087428 -1.3768963922 -0.7618819972
| 10> N 2.1031211544 -0.9306250908 -0.6016957733
| 11> C 0.8740632995 -0.299536936 -0.4204287415
| 12> C 0.6432733854 1.059582001 -0.6291087695
| 13> C -0.6193619606 1.592219415 -0.4502162359
| 14> C -1.6795403655 0.7848785644 -0.0710450685
| 15> C -1.4646277723 -0.5756212706 0.1173797517
| 16> C -0.2034824989 -1.1122933229 -0.0581280992
| 17> Cl -2.7781453611 -1.6127833602 0.5712723808
| 18> Cl -3.2597741244 1.4635181532 0.1504833184
| 19> H 3.6434491917 0.3499335215 2.0924119723
| 20> H 2.1728448153 1.0863659382 1.4501259766
| 21> H 3.6051962654 2.0760532853 1.738098296
| 22> H 4.8606976797 0.8764092923 -0.015000527
| 23> H 3.4034202047 1.586891812 -0.7021019923
| 24> H 2.0272662171 -1.9258637723 -0.7912386343
| 25> H 1.4340184927 1.7117023404 -0.9519822788
| 26> H -0.7909145914 2.6432269483 -0.6120224776
| 27> H -0.0609694988 -2.1700235421 0.0926417984
| 28> *
| 29> 
| 30>                          ****END OF INPUT****
================================================================================

                       ****************************
                       * Single Point Calculation *
                       ****************************

---------------------------------
CARTESIAN COORDINATES (ANGSTROEM)
---------------------------------
  C      3.257881    1.101387    1.407715
  C      3.769907    0.832672   -0.007997
  C      3.404142   -0.546516   -0.495121
  O      4.267309   -1.376896   -0.761882
  N      2.103121   -0.930625   -0.601696
  C      0.874063   -0.299537   -0.420429
  C      0.643273    1.059582   -0.629109
  C     -0.619362    1.592219   -0.450216
  C     -1.679540    0.784879   -0.071045
  C     -1.464628   -0.575621    0.117380
  C     -0.203482   -1.112293   -0.058128
  Cl    -2.778145   -1.612783    0.571272
  Cl    -3.259774    1.463518    0.150483
  H      3.643449    0.349934    2.092412
  H      2.172845    1.086366    1.450126
  H      3.605196    2.076053    1.738098
  H      4.860698    0.876409   -0.015001
  H      3.403420    1.586892   -0.702102
  H      2.027266   -1.925864   -0.791239
  H      1.434018    1.711702   -0.951982
  H     -0.790915    2.643227   -0.612022
  H     -0.060969   -2.170024    0.092642

----------------------------
CARTESIAN COORDINATES (A.U.)
----------------------------
  NO LB      ZA    FRAG     MASS         X           Y           Z
   0 C     6.0000    0    12.011    6.156504    2.081319    2.660196
   1 C     6.0000    0    12.011    7.124091    1.573522   -0.015113
   2 C     6.0000    0    12.011    6.432895   -1.032766   -0.935643
   3 O     8.0000    0    15.999    8.064045   -2.601957   -1.439748
   4 N     7.0000    0    14.007    3.974323   -1.758627   -1.137040
   5 C     6.0000    0    12.011    1.651740   -0.566043   -0.794495
   6 C     6.0000    0    12.011    1.215611    2.002320   -1.188843
   7 C     6.0000    0    12.011   -1.170424    3.008859   -0.850785
   8 C     6.0000    0    12.011   -3.173871    1.483206   -0.134256
   9 C     6.0000    0    12.011   -2.767745   -1.087767    0.221816
  10 C     6.0000    0    12.011   -0.384526   -2.101930   -0.109846
  11 Cl   17.0000    0    35.453   -5.249934   -3.047719    1.079548
  12 Cl   17.0000    0    35.453   -6.160080    2.765649    0.284372
  13 H     1.0000    0     1.008    6.885121    0.661279    3.954086
  14 H     1.0000    0     1.008    4.106082    2.052934    2.740341
  15 H     1.0000    0     1.008    6.812834    3.923172    3.284530
  16 H     1.0000    0     1.008    9.185387    1.656174   -0.028347
  17 H     1.0000    0     1.008    6.431532    2.998791   -1.326780
  18 H     1.0000    0     1.008    3.830978   -3.639355   -1.495224
  19 H     1.0000    0     1.008    2.709902    3.234649   -1.798986
  20 H     1.0000    0     1.008   -1.494612    4.994975   -1.156555
  21 H     1.0000    0     1.008   -0.115216   -4.100750    0.175068

--------------------------------
INTERNAL COORDINATES (ANGSTROEM)
--------------------------------
 C      0   0   0     0.000000000000     0.00000000     0.00000000
 C      1   0   0     1.529254425117     0.00000000     0.00000000
 C      2   1   0     1.507724527067   112.24748331     0.00000000
 O      3   2   1     1.227090040913   121.23876843   242.99495938
 N      3   2   1     1.360717515054   121.02919209    60.28090941
 C      5   3   2     1.393453697343   134.85324657     4.12360775
 C      6   5   3     1.394279607342   124.61103532    29.90192052
 C      7   6   5     1.382010553628   120.50032762   178.62518869
 C      8   7   6     1.385477633689   120.66069445   359.49067974
 C      9   8   7     1.390198236446   119.27928711   359.41489095
 C     10   9   8     1.381776862618   120.26335402     0.69120579
 Cl    10   9   8     1.734085400129   120.24539914   180.82065546
 Cl     9   8   7     1.734002667373   120.28191446   180.00616600
 H      1   2   3     1.087269176652   110.04791323    57.08105543
 H      1   2   3     1.085969096013   111.60812512   296.34285580
 H      1   2   3     1.086165689870   109.40269638   176.04849372
 H      2   1   3     1.091689830169   109.47789995   242.47790518
 H      2   1   3     1.088550125853   110.84403758   123.77157804
 H      5   3   2     1.015962844214   111.25538173   189.52407099
 H      7   6   5     1.074609726731   120.97794176   359.95442615
 H      8   7   6     1.077138988265   120.14052783   179.93481326
 H     11  10   9     1.077884378692   118.94939497   180.05513586

---------------------------
INTERNAL COORDINATES (A.U.)
---------------------------
 C      0   0   0     0.000000000000     0.00000000     0.00000000
 C      1   0   0     2.889872052558     0.00000000     0.00000000
 C      2   1   0     2.849186441552   112.24748331     0.00000000
 O      3   2   1     2.318864118988   121.23876843   242.99495938
 N      3   2   1     2.571383449082   121.02919209    60.28090941
 C      5   3   2     2.633245868278   134.85324657     4.12360775
 C      6   5   3     2.634806611987   124.61103532    29.90192052
 C      7   6   5     2.611621460546   120.50032762   178.62518869
 C      8   7   6     2.618173292345   120.66069445   359.49067974
 C      9   8   7     2.627093938744   119.27928711   359.41489095
 C     10   9   8     2.611179848537   120.26335402     0.69120579
 Cl    10   9   8     3.276946499076   120.24539914   180.82065546
 Cl     9   8   7     3.276790156824   120.28191446   180.00616600
 H      1   2   3     2.054640977727   110.04791323    57.08105543
 H      1   2   3     2.052184181366   111.60812512   296.34285580
 H      1   2   3     2.052555689916   109.40269638   176.04849372
 H      2   1   3     2.062994802206   109.47789995   242.47790518
 H      2   1   3     2.057061620908   110.84403758   123.77157804
 H      5   3   2     1.919891537804   111.25538173   189.52407099
 H      7   6   5     2.030718084370   120.97794176   359.95442615
 H      8   7   6     2.035497695990   120.14052783   179.93481326
 H     11  10   9     2.036906279760   118.94939497   180.05513586

---------------------
BASIS SET INFORMATION
---------------------
There are 5 groups of distinct atoms

 Group   1 Type C   : 7s4p1d contracted to 3s2p1d pattern {511/31/1}
 Group   2 Type O   : 7s4p1d contracted to 3s2p1d pattern {511/31/1}
 Group   3 Type N   : 7s4p1d contracted to 3s2p1d pattern {511/31/1}
 Group   4 Type Cl  : 10s7p1d contracted to 4s3p1d pattern {5311/511/1}
 Group   5 Type H   : 4s contracted to 2s pattern {31}

Atom   0C    basis set group =>   1
Atom   1C    basis set group =>   1
Atom   2C    basis set group =>   1
Atom   3O    basis set group =>   2
Atom   4N    basis set group =>   3
Atom   5C    basis set group =>   1
Atom   6C    basis set group =>   1
Atom   7C    basis set group =>   1
Atom   8C    basis set group =>   1
Atom   9C    basis set group =>   1
Atom  10C    basis set group =>   1
Atom  11Cl   basis set group =>   4
Atom  12Cl   basis set group =>   4
Atom  13H    basis set group =>   5
Atom  14H    basis set group =>   5
Atom  15H    basis set group =>   5
Atom  16H    basis set group =>   5
Atom  17H    basis set group =>   5
Atom  18H    basis set group =>   5
Atom  19H    basis set group =>   5
Atom  20H    basis set group =>   5
Atom  21H    basis set group =>   5
---------------------------------
AUXILIARY/J BASIS SET INFORMATION
---------------------------------
There are 5 groups of distinct atoms

 Group   1 Type C   : 12s5p4d2f1g contracted to 6s4p3d1f1g pattern {711111/2111/211/2/1}
 Group   2 Type O   : 12s5p4d2f1g contracted to 6s4p3d1f1g pattern {711111/2111/211/2/1}
 Group   3 Type N   : 12s5p4d2f1g contracted to 6s4p3d1f1g pattern {711111/2111/211/2/1}
 Group   4 Type Cl  : 14s5p5d2f1g contracted to 8s4p3d1f1g pattern {71111111/2111/311/2/1}
 Group   5 Type H   : 5s2p1d contracted to 3s1p1d pattern {311/2/1}

Atom   0C    basis set group =>   1
Atom   1C    basis set group =>   1
Atom   2C    basis set group =>   1
Atom   3O    basis set group =>   2
Atom   4N    basis set group =>   3
Atom   5C    basis set group =>   1
Atom   6C    basis set group =>   1
Atom   7C    basis set group =>   1
Atom   8C    basis set group =>   1
Atom   9C    basis set group =>   1
Atom  10C    basis set group =>   1
Atom  11Cl   basis set group =>   4
Atom  12Cl   basis set group =>   4
Atom  13H    basis set group =>   5
Atom  14H    basis set group =>   5
Atom  15H    basis set group =>   5
Atom  16H    basis set group =>   5
Atom  17H    basis set group =>   5
Atom  18H    basis set group =>   5
Atom  19H    basis set group =>   5
Atom  20H    basis set group =>   5
Atom  21H    basis set group =>   5
------------------------------------------------------------------------------
                             ORCA STARTUP CALCULATIONS
                           -- RI-GTO INTEGRALS CHOSEN --
------------------------------------------------------------------------------
------------------------------------------------------------------------------
                   ___                                                        
                  /   \      - P O W E R E D   B Y -                         
                 /     \                                                     
                 |  |  |   _    _      __       _____    __    __             
                 |  |  |  | |  | |    /  \     |  _  \  |  |  /  |          
                  \  \/   | |  | |   /    \    | | | |  |  | /  /          
                 / \  \   | |__| |  /  /\  \   | |_| |  |  |/  /          
                |  |  |   |  __  | /  /__\  \  |    /   |      \           
                |  |  |   | |  | | |   __   |  |    \   |  |\   \          
                \     /   | |  | | |  |  |  |  | |\  \  |  | \   \       
                 \___/    |_|  |_| |__|  |__|  |_| \__\ |__|  \__/        
                                                                              
                      - O R C A' S   B I G   F R I E N D -                    
                                      &                                       
                       - I N T E G R A L  F E E D E R -                       
                                                                              
 v1 FN, 2020, v2 2021, v3 2022-2024                                           
------------------------------------------------------------------------------


----------------------
SHARK INTEGRAL PACKAGE
----------------------

Number of atoms                             ...     22
Number of basis functions                   ...    208
Number of shells                            ...    100
Maximum angular momentum                    ...      2
Integral batch strategy                     ... SHARK/LIBINT Hybrid
RI-J (if used) integral strategy            ... SPLIT-RIJ (Revised 2003 algorithm where possible)
Printlevel                                  ...      1
Contraction scheme used                     ... SEGMENTED contraction
Prescreening option                         ... SCHWARTZ
   Thresh                                   ... 1.000e-09
   Tcut                                     ... 1.000e-10
   Tpresel                                  ... 1.000e-10 
Coulomb Range Separation                    ... NOT USED
Exchange Range Separation                   ... NOT USED
Multipole approximations                    ... NOT USED
Finite Nucleus Model                        ... NOT USED
CABS basis                                  ... NOT available
Auxiliary Coulomb fitting basis             ... AVAILABLE
   # of basis functions in Aux-J            ...    740
   # of shells in Aux-J                     ...    244
   Maximum angular momentum in Aux-J        ...      4
Auxiliary J/K fitting basis                 ... NOT available
Auxiliary Correlation fitting basis         ... NOT available
Auxiliary 'external' fitting basis          ... NOT available

Checking pre-screening integrals            ... done (  0.0 sec) Dimension = 100
Check shell pair data                       ... done (  0.0 sec)
Shell pair information
Shell pair cut-off parameter TPreSel        ...   1.0e-10
Total number of shell pairs                 ...      5050
Shell pairs after pre-screening             ...      4172
Total number of primitive shell pairs       ...     21126
Primitive shell pairs kept                  ...     11240
          la=0 lb=0:   1443 shell pairs
          la=1 lb=0:   1403 shell pairs
          la=1 lb=1:    356 shell pairs
          la=2 lb=0:    603 shell pairs
          la=2 lb=1:    298 shell pairs
          la=2 lb=2:     69 shell pairs

Calculating one electron integrals          ... done (  0.0 sec)
Calculating RI/J V-Matrix + Cholesky decomp.... done (  0.1 sec)
Calculating Nuclear repulsion               ... done (  0.0 sec) ENN=    946.732092320312 Eh

Diagonalization of the overlap matrix:
Smallest eigenvalue                        ... 2.061e-04
Time for diagonalization                   ...    0.004 sec
Threshold for overlap eigenvalues          ... 1.000e-07
Number of eigenvalues below threshold      ... 0
Time for construction of square roots      ...    0.020 sec
Total time needed                          ...    0.034 sec

-------------------
DFT GRID GENERATION
-------------------

General Integration Accuracy     IntAcc      ... 4.159
Radial Grid Type                 RadialGrid  ... OptM3 with GC (2021)
Angular Grid (max. ang.)         AngularGrid ... 3 (Lebedev-194)
Angular grid pruning method      GridPruning ... 4 (adaptive)
Weight generation scheme         WeightScheme... mBecke (2022)
Basis function cutoff            BFCut       ... 1.0000e-10
Integration weight cutoff        WCut        ... 1.0000e-14
Partially contracted basis set               ... off
Rotationally invariant grid construction     ... off
Angular grids for H and He will be reduced by one unit

Total number of grid points                  ...    56637
Total number of batches                      ...      894
Average number of points per batch           ...       63
Average number of grid points per atom       ...     2574
Initializing property integral containers    ... done (  0.0 sec)

SHARK setup successfully completed in   1.2 seconds

Maximum memory used throughout the entire STARTUP-calculation: 29.3 MB
-------------------------------------------------------------------------------
                                 ORCA GUESS
                   Start orbitals & Density for SCF / CASSCF
-------------------------------------------------------------------------------

------------
SCF SETTINGS
------------
Hamiltonian:
 Density Functional     Method          .... DFT(GTOs)
 Exchange Functional    Exchange        .... PBE
   PBE kappa parameter   XKappa         ....  0.804000
   PBE mue parameter    XMuePBE         ....  0.219520
 Correlation Functional Correlation     .... PBE
   PBE beta parameter  CBetaPBE         ....  0.066725
 LDA part of GGA corr.  LDAOpt          .... PW91-LDA
 Gradients option       PostSCFGGA      .... off
   NL short-range parameter             ....  6.400000
 RI-approximation to the Coulomb term is turned on
   Number of AuxJ basis functions       .... 740


General Settings:
 Integral files         IntName         .... sp
 Hartree-Fock type      HFTyp           .... RHF
 Total Charge           Charge          ....    0
 Multiplicity           Mult            ....    1
 Number of Electrons    NEL             ....  112
 Basis Dimension        Dim             ....  208
 Nuclear Repulsion      ENuc            ....    946.7320923203 Eh

Convergence Acceleration:
 AO-DIIS                CNVDIIS         .... on
   Start iteration      DIISMaxIt       ....    12
   Startup error        DIISStart       ....  0.200000
   # of expansion vecs  DIISMaxEq       ....     5
   Bias factor          DIISBfac        ....   1.050
   Max. coefficient     DIISMaxC        ....  10.000
 MO-DIIS                CNVKDIIS        .... off
 Trust-Rad. Augm. Hess. CNVTRAH         .... auto
   Auto Start mean grad. ratio tolernc. ....  1.125000
   Auto Start start iteration           ....    50
   Auto Start num. interpolation iter.  ....    10
   Max. Number of Micro iterations      ....    24
   Max. Number of Macro iterations      .... Maxiter - #DIIS iter
   Number of Davidson start vectors     ....     2
   Converg. threshold    (grad. norm)   ....   1.000e-04
   Grad. Scal. Fac. for Micro threshold ....   0.100
   Minimum threshold for Micro iter.    ....   1.000e-02
   NR start threshold (gradient norm)   ....   1.000e-04
   Initial trust radius                 ....   0.400
   Minimum AH scaling param. (alpha)    ....   1.000
   Maximum AH scaling param. (alpha)    .... 1000.000
   Quad. conv. algorithm                .... NR
   White noise on init. David. guess    .... on
   Maximum white noise                  ....   0.010
   Pseudo random numbers                .... off
   Inactive MOs                         .... canonical
   Orbital update algorithm             .... Taylor
   Preconditioner                       .... Diag
   Full preconditioner red. dimension   ....   250
 SOSCF                  CNVSOSCF        .... on
   Start iteration      SOSCFMaxIt      ....   150
   Startup grad/error   SOSCFStart      ....  0.003300
   Hessian update       SOSCFHessUp     .... L-BFGS
 Level Shifting         CNVShift        .... on
   Level shift para.    LevelShift      ....    0.2500
   Turn off err/grad.   ShiftErr        ....    0.0010
 Zerner damping         CNVZerner       .... off
 Static damping         CNVDamp         .... on
   Fraction old density DampFac         ....    0.7000
   Max. Damping (<1)    DampMax         ....    0.9800
   Min. Damping (>=0)   DampMin         ....    0.0000
   Turn off err/grad.   DampErr         ....    0.1000

SCF Procedure:
 Maximum # iterations   MaxIter         ....   125
 SCF integral mode      SCFMode         .... Direct
   Integral package                     .... SHARK and LIBINT hybrid scheme
 Reset frequency        DirectResetFreq ....    20
 Integral Threshold     Thresh          ....  1.000e-09 Eh
 Primitive CutOff       TCut            ....  1.000e-10 Eh

Convergence Tolerance:
 Convergence Check Mode ConvCheckMode   .... Total+1el-Energy
 Convergence forced     ConvForced      .... 0
 Energy Change          TolE            ....  1.000e-05 Eh
 1-El. energy change                    ....  1.000e-02 Eh
 Orbital Gradient       TolG            ....  1.000e-04
 Orbital Rotation angle TolX            ....  1.000e-04
 DIIS Error             TolErr          ....  5.000e-04

------------------------------
INITIAL GUESS: MODEL POTENTIAL
------------------------------
Loading Hartree-Fock densities                     ... done
Calculating cut-offs                               ... done
Initializing the effective Hamiltonian             ... done
Setting up the integral package (SHARK)            ... done
Starting the Coulomb interaction                   ... done (   0.3 sec)
Making the grid                                    ... done (   0.4 sec)
Mapping shells                                     ... done
Starting the XC term evaluation                    ... done (   0.3 sec)
  promolecular density results
     # of electrons  =    111.997185775
     EX              =   -118.219130875
     EC              =     -3.960602862
     EX+EC           =   -122.179733738
Transforming the Hamiltonian                       ... done (   0.0 sec)
Diagonalizing the Hamiltonian                      ... done (   0.0 sec)
Back transforming the eigenvectors                 ... done (   0.0 sec)
Now organizing SCF variables                       ... done
                      ------------------
                      INITIAL GUESS DONE (   1.1 sec)
                      ------------------
             **** ENERGY FILE WAS UPDATED (sp.en.tmp) ****
Finished Guess after   1.3 sec
Maximum memory used throughout the entire GUESS-calculation: 22.2 MB

-------------------------------------------------------------------------------------------
                                      ORCA LEAN-SCF
                              memory conserving SCF solver
-------------------------------------------------------------------------------------------

----------------------------------------D-I-I-S--------------------------------------------
Iteration    Energy (Eh)           Delta-E    RMSDP     MaxDP     DIISErr   Damp  Time(sec)
-------------------------------------------------------------------------------------------
               ***  Starting incremental Fock matrix formation  ***
    1    -1396.8876135155314842     0.00e+00  4.28e-03  1.64e-01  2.53e-01  0.700   1.6
    2    -1397.0181222830146908    -1.31e-01  2.66e-03  9.61e-02  7.45e-02  0.700   1.5
                               ***Turning on AO-DIIS***
    3    -1397.0585892919471007    -4.05e-02  9.12e-04  1.69e-02  2.96e-02  0.700   1.4
    4    -1397.0845916998559915    -2.60e-02  1.52e-03  2.90e-02  1.54e-02  0.000   1.3
    5    -1397.1449632326330175    -6.04e-02  4.71e-04  1.51e-02  8.72e-03  0.000   1.3
                              *** Initializing SOSCF ***
---------------------------------------S-O-S-C-F--------------------------------------
Iteration    Energy (Eh)           Delta-E    RMSDP     MaxDP     MaxGrad    Time(sec)
--------------------------------------------------------------------------------------
    6    -1397.1457270578694079    -7.64e-04  1.39e-04  2.07e-03  2.00e-03     1.3
               *** Restarting incremental Fock matrix formation ***
    7    -1397.1457881356936923    -6.11e-05  1.36e-04  2.96e-03  3.79e-04     1.4
    8    -1397.1457749478317965     1.32e-05  7.64e-05  2.45e-03  9.21e-04     1.2
    9    -1397.1457957865209210    -2.08e-05  5.81e-05  1.43e-03  2.25e-04     1.2
   10    -1397.1457934651057258     2.32e-06  3.07e-05  8.94e-04  2.26e-04     1.2
                 **** Energy Check signals convergence ****

               *****************************************************
               *                     SUCCESS                       *
               *           SCF CONVERGED AFTER  10 CYCLES          *
               *****************************************************

             **** ENERGY FILE WAS UPDATED (sp.en.tmp) ****

----------------
TOTAL SCF ENERGY
----------------

Total Energy       :      -1397.14579346510573 Eh          -38018.26985 eV

Components:
Nuclear Repulsion  :        946.73209232031206 Eh           25761.88994 eV
Electronic Energy  :      -2343.87788578541767 Eh          -63780.15979 eV
One Electron Energy:      -3798.75807852625076 Eh         -103369.46252 eV
Two Electron Energy:       1454.88019274083331 Eh           39589.30273 eV

Virial components:
Potential Energy   :      -2788.55764410931533 Eh          -75880.51119 eV
Kinetic Energy     :       1391.41185064420984 Eh           37862.24134 eV
Virial Ratio       :          2.00412095298616

DFT components:
N(Alpha)           :       55.999969940799 electrons
N(Beta)            :       55.999969940799 electrons
N(Total)           :      111.999939881598 electrons
E(X)               :     -119.286305207973 Eh       
E(C)               :       -3.971569676317 Eh       
E(XC)              :     -123.257874884290 Eh       

---------------
SCF CONVERGENCE
---------------

  Last Energy change         ...   -2.3214e-06  Tolerance :   1.0000e-05
  Last MAX-Density change    ...    8.9399e-04  Tolerance :   1.0000e-03
  Last RMS-Density change    ...    3.0724e-05  Tolerance :   1.0000e-04
  Last DIIS Error            ...    1.9998e-03  Tolerance :   5.0000e-04
  Last Orbital Gradient      ...    2.2557e-04  Tolerance :   1.0000e-04
  Last Orbital Rotation      ...    6.5894e-04  Tolerance :   1.0000e-04


----------------
ORBITAL ENERGIES
----------------

  NO   OCC          E(Eh)            E(eV) 
   0   2.0000    -100.653626     -2738.9244 
   1   2.0000    -100.650639     -2738.8431 
   2   2.0000     -18.727734      -509.6076 
   3   2.0000     -14.044932      -382.1820 
   4   2.0000      -9.999244      -272.0933 
   5   2.0000      -9.973303      -271.3874 
   6   2.0000      -9.967339      -271.2251 
   7   2.0000      -9.966239      -271.1951 
   8   2.0000      -9.923645      -270.0361 
   9   2.0000      -9.923362      -270.0284 
  10   2.0000      -9.919177      -269.9145 
  11   2.0000      -9.908605      -269.6268 
  12   2.0000      -9.894492      -269.2428 
  13   2.0000      -9.189337      -250.0546 
  14   2.0000      -9.186262      -249.9709 
  15   2.0000      -7.020942      -191.0495 
  16   2.0000      -7.017880      -190.9662 
  17   2.0000      -7.009345      -190.7340 
  18   2.0000      -7.008493      -190.7108 
  19   2.0000      -7.006231      -190.6492 
  20   2.0000      -7.005467      -190.6285 
  21   2.0000      -0.950136       -25.8545 
  22   2.0000      -0.870603       -23.6903 
  23   2.0000      -0.841534       -22.8993 
  24   2.0000      -0.789416       -21.4811 
  25   2.0000      -0.768414       -20.9096 
  26   2.0000      -0.718077       -19.5399 
  27   2.0000      -0.691026       -18.8038 
  28   2.0000      -0.672065       -18.2878 
  29   2.0000      -0.603750       -16.4289 
  30   2.0000      -0.583014       -15.8646 
  31   2.0000      -0.577145       -15.7049 
  32   2.0000      -0.526714       -14.3326 
  33   2.0000      -0.507964       -13.8224 
  34   2.0000      -0.460389       -12.5278 
  35   2.0000      -0.458649       -12.4805 
  36   2.0000      -0.432257       -11.7623 
  37   2.0000      -0.423309       -11.5188 
  38   2.0000      -0.408500       -11.1158 
  39   2.0000      -0.406721       -11.0674 
  40   2.0000      -0.403333       -10.9753 
  41   2.0000      -0.386781       -10.5249 
  42   2.0000      -0.371821       -10.1178 
  43   2.0000      -0.364029        -9.9057 
  44   2.0000      -0.350155        -9.5282 
  45   2.0000      -0.343552        -9.3485 
  46   2.0000      -0.335432        -9.1276 
  47   2.0000      -0.318735        -8.6732 
  48   2.0000      -0.313418        -8.5285 
  49   2.0000      -0.310266        -8.4428 
  50   2.0000      -0.290641        -7.9088 
  51   2.0000      -0.267751        -7.2859 
  52   2.0000      -0.265265        -7.2182 
  53   2.0000      -0.240380        -6.5411 
  54   2.0000      -0.210390        -5.7250 
  55   2.0000      -0.207551        -5.6477 
  56   0.0000      -0.065999        -1.7959 
  57   0.0000      -0.064150        -1.7456 
  58   0.0000      -0.026479        -0.7205 
  59   0.0000      -0.012330        -0.3355 
  60   0.0000       0.031280         0.8512 
  61   0.0000       0.034204         0.9307 
  62   0.0000       0.051662         1.4058 
  63   0.0000       0.062723         1.7068 
  64   0.0000       0.081614         2.2208 
  65   0.0000       0.086270         2.3475 
  66   0.0000       0.094157         2.5621 
*Only the first 10 virtual orbitals were printed.

                    ********************************
                    * MULLIKEN POPULATION ANALYSIS *
                    ********************************

-----------------------
MULLIKEN ATOMIC CHARGES
-----------------------
   0 C :   -0.309722
   1 C :   -0.195750
   2 C :    0.040920
   3 O :   -0.205689
   4 N :   -0.177392
   5 C :    0.228655
   6 C :   -0.128184
   7 C :   -0.112345
   8 C :    0.089435
   9 C :    0.079106
  10 C :   -0.182740
  11 Cl:   -0.049732
  12 Cl:   -0.056027
  13 H :    0.116938
  14 H :    0.140769
  15 H :    0.115549
  16 H :    0.105905
  17 H :    0.123291
  18 H :    0.236480
  19 H :    0.044609
  20 H :    0.057170
  21 H :    0.038753
Sum of atomic charges:    0.0000000

--------------------------------
MULLIKEN REDUCED ORBITAL CHARGES
--------------------------------
  0 C s       :     3.114571  s :     3.114571
      pz      :     1.005092  p :     3.165954
      px      :     1.090091
      py      :     1.070771
      dz2     :     0.006441  d :     0.029197
      dxz     :     0.004243
      dyz     :     0.007875
      dx2y2   :     0.008051
      dxy     :     0.002587

  1 C s       :     3.041895  s :     3.041895
      pz      :     1.019352  p :     3.119975
      px      :     1.071739
      py      :     1.028885
      dz2     :     0.006770  d :     0.033879
      dxz     :     0.004751
      dyz     :     0.010038
      dx2y2   :     0.008862
      dxy     :     0.003458

  2 C s       :     3.060566  s :     3.060566
      pz      :     0.866437  p :     2.787300
      px      :     0.896864
      py      :     1.023998
      dz2     :     0.008108  d :     0.111214
      dxz     :     0.022073
      dyz     :     0.012269
      dx2y2   :     0.043938
      dxy     :     0.024826

  3 O s       :     3.751140  s :     3.751140
      pz      :     1.393835  p :     4.437781
      px      :     1.534178
      py      :     1.509768
      dz2     :     0.002096  d :     0.016768
      dxz     :     0.003044
      dyz     :     0.002487
      dx2y2   :     0.003589
      dxy     :     0.005552

  4 N s       :     3.355912  s :     3.355912
      pz      :     1.603870  p :     3.798744
      px      :     1.051239
      py      :     1.143635
      dz2     :     0.002611  d :     0.022736
      dxz     :     0.004854
      dyz     :     0.001089
      dx2y2   :     0.009463
      dxy     :     0.004719

  5 C s       :     2.902087  s :     2.902087
      pz      :     0.977574  p :     2.811733
      px      :     0.895674
      py      :     0.938485
      dz2     :     0.005077  d :     0.057524
      dxz     :     0.012278
      dyz     :     0.008505
      dx2y2   :     0.014686
      dxy     :     0.016978

  6 C s       :     3.287410  s :     3.287410
      pz      :     1.012843  p :     2.807314
      px      :     0.844909
      py      :     0.949563
      dz2     :     0.002958  d :     0.033460
      dxz     :     0.004897
      dyz     :     0.005361
      dx2y2   :     0.009050
      dxy     :     0.011194

  7 C s       :     3.315031  s :     3.315031
      pz      :     0.988032  p :     2.762098
      px      :     0.932085
      py      :     0.841981
      dz2     :     0.003909  d :     0.035216
      dxz     :     0.007300
      dyz     :     0.002799
      dx2y2   :     0.011626
      dxy     :     0.009582

  8 C s       :     2.937037  s :     2.937037
      pz      :     1.071662  p :     2.922929
      px      :     0.812080
      py      :     1.039187
      dz2     :     0.004488  d :     0.050599
      dxz     :     0.008022
      dyz     :     0.007242
      dx2y2   :     0.016163
      dxy     :     0.014684

  9 C s       :     2.954920  s :     2.954920
      pz      :     1.039281  p :     2.914321
      px      :     0.856802
      py      :     1.018237
      dz2     :     0.004323  d :     0.051653
      dxz     :     0.008423
      dyz     :     0.008350
      dx2y2   :     0.014797
      dxy     :     0.015761

 10 C s       :     3.394389  s :     3.394389
      pz      :     1.032962  p :     2.755883
      px      :     0.962053
      py      :     0.760867
      dz2     :     0.003862  d :     0.032468
      dxz     :     0.006571
      dyz     :     0.002616
      dx2y2   :     0.010923
      dxy     :     0.008496

 11 Cls       :     5.942810  s :     5.942810
      pz      :     3.855955  p :    11.069028
      px      :     3.534965
      py      :     3.678108
      dz2     :     0.005229  d :     0.037894
      dxz     :     0.007395
      dyz     :     0.004555
      dx2y2   :     0.006218
      dxy     :     0.014496

 12 Cls       :     5.942363  s :     5.942363
      pz      :     3.897248  p :    11.075490
      px      :     3.350721
      py      :     3.827521
      dz2     :     0.005189  d :     0.038174
      dxz     :     0.008940
      dyz     :     0.001916
      dx2y2   :     0.011013
      dxy     :     0.011116

 13 H s       :     0.883062  s :     0.883062

 14 H s       :     0.859231  s :     0.859231

 15 H s       :     0.884451  s :     0.884451

 16 H s       :     0.894095  s :     0.894095

 17 H s       :     0.876709  s :     0.876709

 18 H s       :     0.763520  s :     0.763520

 19 H s       :     0.955391  s :     0.955391

 20 H s       :     0.942830  s :     0.942830

 21 H s       :     0.961247  s :     0.961247


------------------------
MULLIKEN OVERLAP CHARGES
------------------------
B(  0-C ,  1-C ) :   0.7575 B(  0-C ,  2-C ) :  -0.0621 B(  0-C , 13-H ) :   0.7500 
B(  0-C , 14-H ) :   0.7631 B(  0-C , 15-H ) :   0.7315 B(  1-C ,  2-C ) :   0.5582 
B(  1-C ,  3-O ) :  -0.2164 B(  1-C ,  4-N ) :  -0.3770 B(  1-C , 13-H ) :  -0.0672 
B(  1-C , 16-H ) :   0.5703 B(  1-C , 17-H ) :   0.5983 B(  2-C ,  3-O ) :   1.5030 
B(  2-C ,  4-N ) :   0.5600 B(  3-O ,  4-N ) :  -0.2470 B(  4-N ,  5-C ) :   0.6818 
B(  4-N ,  6-C ) :  -0.1875 B(  4-N , 10-C ) :  -0.1964 B(  4-N , 18-H ) :   0.5190 
B(  5-C ,  7-C ) :   0.5070 B(  5-C ,  8-C ) :  -0.5192 B(  5-C ,  9-C ) :   0.5078 
B(  5-C , 10-C ) :   0.1030 B(  5-C , 19-H ) :  -0.2072 B(  5-C , 21-H ) :  -0.1820 
B(  6-C ,  7-C ) :   0.1361 B(  6-C ,  8-C ) :   0.4510 B(  6-C ,  9-C ) :  -0.4530 
B(  6-C , 10-C ) :   0.2909 B(  6-C , 19-H ) :   0.8908 B(  6-C , 20-H ) :  -0.1679 
B(  7-C ,  8-C ) :   0.3355 B(  7-C ,  9-C ) :   0.3663 B(  7-C , 10-C ) :  -0.3615 
B(  7-C , 12-Cl) :  -0.1167 B(  7-C , 19-H ) :  -0.1590 B(  7-C , 20-H ) :   0.8813 
B(  8-C ,  9-C ) :   0.1294 B(  8-C , 10-C ) :   0.3223 B(  8-C , 11-Cl) :  -0.1480 
B(  8-C , 12-Cl) :   0.5339 B(  8-C , 20-H ) :  -0.1878 B(  9-C , 10-C ) :   0.4307 
B(  9-C , 11-Cl) :   0.5438 B(  9-C , 12-Cl) :  -0.1472 B(  9-C , 21-H ) :  -0.1476 
B( 10-C , 11-Cl) :  -0.1213 B( 10-C , 21-H ) :   0.8419 


                     *******************************
                     * LOEWDIN POPULATION ANALYSIS *
                     *******************************

----------------------
LOEWDIN ATOMIC CHARGES
----------------------
   0 C :   -0.339679
   1 C :   -0.254278
   2 C :    0.033121
   3 O :   -0.187526
   4 N :   -0.106148
   5 C :    0.001334
   6 C :   -0.143459
   7 C :   -0.123283
   8 C :   -0.166103
   9 C :   -0.145279
  10 C :   -0.154085
  11 Cl:    0.146760
  12 Cl:    0.140499
  13 H :    0.127729
  14 H :    0.125032
  15 H :    0.127114
  16 H :    0.140110
  17 H :    0.129478
  18 H :    0.243901
  19 H :    0.132582
  20 H :    0.137317
  21 H :    0.134863

-------------------------------
LOEWDIN REDUCED ORBITAL CHARGES
-------------------------------
  0 C s       :     2.943093  s :     2.943093
      pz      :     1.067103  p :     3.326002
      px      :     1.131287
      py      :     1.127612
      dz2     :     0.016637  d :     0.070584
      dxz     :     0.009999
      dyz     :     0.018638
      dx2y2   :     0.019178
      dxy     :     0.006133

  1 C s       :     2.915164  s :     2.915164
      pz      :     1.072614  p :     3.254342
      px      :     1.117905
      py      :     1.063823
      dz2     :     0.018117  d :     0.084771
      dxz     :     0.010711
      dyz     :     0.023950
      dx2y2   :     0.023746
      dxy     :     0.008247

  2 C s       :     2.846713  s :     2.846713
      pz      :     0.866442  p :     2.862954
      px      :     0.959971
      py      :     1.036541
      dz2     :     0.017623  d :     0.257212
      dxz     :     0.046691
      dyz     :     0.024499
      dx2y2   :     0.106523
      dxy     :     0.061876

  3 O s       :     3.558811  s :     3.558811
      pz      :     1.404835  p :     4.598936
      px      :     1.606742
      py      :     1.587359
      dz2     :     0.003976  d :     0.029779
      dxz     :     0.004446
      dyz     :     0.003751
      dx2y2   :     0.005750
      dxy     :     0.011856

  4 N s       :     3.102588  s :     3.102588
      pz      :     1.559056  p :     3.945102
      px      :     1.168941
      py      :     1.217105
      dz2     :     0.005353  d :     0.058458
      dxz     :     0.009986
      dyz     :     0.002210
      dx2y2   :     0.026276
      dxy     :     0.014635

  5 C s       :     2.827975  s :     2.827975
      pz      :     0.985589  p :     3.024992
      px      :     0.961759
      py      :     1.077644
      dz2     :     0.011858  d :     0.145699
      dxz     :     0.026290
      dyz     :     0.018823
      dx2y2   :     0.040359
      dxy     :     0.048368

  6 C s       :     2.888787  s :     2.888787
      pz      :     1.032049  p :     3.165447
      px      :     1.073254
      py      :     1.060144
      dz2     :     0.006819  d :     0.089226
      dxz     :     0.010287
      dyz     :     0.011694
      dx2y2   :     0.027900
      dxy     :     0.032525

  7 C s       :     2.893921  s :     2.893921
      pz      :     0.993885  p :     3.136376
      px      :     1.076605
      py      :     1.065885
      dz2     :     0.008624  d :     0.092987
      dxz     :     0.017447
      dyz     :     0.005481
      dx2y2   :     0.032440
      dxy     :     0.028995

  8 C s       :     2.901488  s :     2.901488
      pz      :     1.076275  p :     3.140392
      px      :     0.977112
      py      :     1.087004
      dz2     :     0.010171  d :     0.124223
      dxz     :     0.016645
      dyz     :     0.016054
      dx2y2   :     0.043030
      dxy     :     0.038322

  9 C s       :     2.902583  s :     2.902583
      pz      :     1.039966  p :     3.116393
      px      :     1.024550
      py      :     1.051876
      dz2     :     0.009995  d :     0.126304
      dxz     :     0.017448
      dyz     :     0.017875
      dx2y2   :     0.041072
      dxy     :     0.039913

 10 C s       :     2.897224  s :     2.897224
      pz      :     1.041683  p :     3.169429
      px      :     1.063982
      py      :     1.063764
      dz2     :     0.008461  d :     0.087432
      dxz     :     0.015442
      dyz     :     0.005059
      dx2y2   :     0.032054
      dxy     :     0.026416

 11 Cls       :     5.758335  s :     5.758335
      pz      :     3.842288  p :    11.051060
      px      :     3.534240
      py      :     3.674532
      dz2     :     0.006021  d :     0.043845
      dxz     :     0.008305
      dyz     :     0.005099
      dx2y2   :     0.006545
      dxy     :     0.017875

 12 Cls       :     5.758132  s :     5.758132
      pz      :     3.881177  p :    11.056953
      px      :     3.361882
      py      :     3.813893
      dz2     :     0.006173  d :     0.044417
      dxz     :     0.009866
      dyz     :     0.002117
      dx2y2   :     0.013001
      dxy     :     0.013260

 13 H s       :     0.872271  s :     0.872271

 14 H s       :     0.874968  s :     0.874968

 15 H s       :     0.872886  s :     0.872886

 16 H s       :     0.859890  s :     0.859890

 17 H s       :     0.870522  s :     0.870522

 18 H s       :     0.756099  s :     0.756099

 19 H s       :     0.867418  s :     0.867418

 20 H s       :     0.862683  s :     0.862683

 21 H s       :     0.865137  s :     0.865137


---------------------------------
LOEWDIN BOND ORDERS (THRESH 0.050000)
---------------------------------
B(  0-C ,  1-C ) :   1.1140 B(  0-C ,  2-C ) :   0.0622 B(  0-C , 13-H ) :   0.9373 
B(  0-C , 14-H ) :   0.9313 B(  0-C , 15-H ) :   0.9340 B(  1-C ,  2-C ) :   1.0579 
B(  1-C ,  3-O ) :   0.0994 B(  1-C ,  4-N ) :   0.0622 B(  1-C , 16-H ) :   0.8920 
B(  1-C , 17-H ) :   0.8828 B(  2-C ,  3-O ) :   2.1362 B(  2-C ,  4-N ) :   1.3165 
B(  2-C ,  5-C ) :   0.0683 B(  3-O ,  4-N ) :   0.2012 B(  4-N ,  5-C ) :   1.1854 
B(  4-N ,  6-C ) :   0.0833 B(  4-N , 10-C ) :   0.0921 B(  4-N , 18-H ) :   0.8263 
B(  5-C ,  6-C ) :   1.3862 B(  5-C ,  7-C ) :   0.0891 B(  5-C ,  8-C ) :   0.0888 
B(  5-C ,  9-C ) :   0.0883 B(  5-C , 10-C ) :   1.3915 B(  6-C ,  7-C ) :   1.5097 
B(  6-C ,  8-C ) :   0.0914 B(  6-C ,  9-C ) :   0.0968 B(  6-C , 10-C ) :   0.0833 
B(  6-C , 19-H ) :   0.8699 B(  7-C ,  8-C ) :   1.4472 B(  7-C ,  9-C ) :   0.0918 
B(  7-C , 10-C ) :   0.1075 B(  7-C , 12-Cl) :   0.1085 B(  7-C , 20-H ) :   0.8778 
B(  8-C ,  9-C ) :   1.3872 B(  8-C , 10-C ) :   0.0914 B(  8-C , 11-Cl) :   0.1040 
B(  8-C , 12-Cl) :   1.2575 B(  9-C , 10-C ) :   1.4723 B(  9-C , 11-Cl) :   1.2597 
B(  9-C , 12-Cl) :   0.1051 B( 10-C , 11-Cl) :   0.1142 B( 10-C , 21-H ) :   0.8729 


------------------------------------------
LOEWDIN REDUCED ORBITAL POPULATIONS PER MO
-------------------------------------------
THRESHOLD FOR PRINTING IS 0.1%%
                      0         1         2         3         4         5   
                 -100.65363 -100.65064 -18.72773 -14.04493  -9.99924  -9.97330
                   2.00000   2.00000   2.00000   2.00000   2.00000   2.00000
                  --------  --------  --------  --------  --------  --------
 2 C  s               0.0       0.0       0.0       0.0      99.4       0.0
 3 O  s               0.0       0.0      99.9       0.0       0.0       0.0
 3 O  px              0.0       0.0       0.0       0.0       0.1       0.0
 3 O  py              0.0       0.0       0.0       0.0       0.1       0.0
 4 N  s               0.0       0.0       0.0      99.8       0.0       0.0
 4 N  px              0.0       0.0       0.0       0.0       0.2       0.0
 8 C  py              0.0       0.0       0.0       0.0       0.0       0.1
 9 C  s               0.0       0.0       0.0       0.0       0.0      99.5
10 C  px              0.0       0.0       0.0       0.0       0.0       0.1
11 Cl s             100.0       0.0       0.0       0.0       0.0       0.0
12 Cl s               0.0     100.0       0.0       0.0       0.0       0.0

                      6         7         8         9        10        11   
                  -9.96734  -9.96624  -9.92364  -9.92336  -9.91918  -9.90860
                   2.00000   2.00000   2.00000   2.00000   2.00000   2.00000
                  --------  --------  --------  --------  --------  --------
 1 C  s               0.0       0.0       0.0       0.0       0.0      99.6
 4 N  px              0.1       0.0       0.0       0.0       0.0       0.0
 5 C  s              99.4       0.1       0.0       0.0       0.0       0.0
 5 C  py              0.0       0.0       0.0       0.0       0.1       0.0
 6 C  s               0.0       0.0       0.0       0.1      99.5       0.0
 6 C  px              0.0       0.0       0.0       0.1       0.0       0.0
 6 C  py              0.1       0.0       0.0       0.0       0.0       0.0
 7 C  s               0.0       0.0       1.7      97.8       0.1       0.0
 7 C  px              0.0       0.1       0.0       0.0       0.1       0.0
 8 C  s               0.1      99.5       0.0       0.0       0.0       0.0
 9 C  px              0.0       0.0       0.1       0.0       0.0       0.0
 9 C  py              0.0       0.1       0.0       0.0       0.0       0.0
10 C  s               0.0       0.0      97.9       1.7       0.0       0.0

                     12        13        14        15        16        17   
                  -9.89449  -9.18934  -9.18626  -7.02094  -7.01788  -7.00934
                   2.00000   2.00000   2.00000   2.00000   2.00000   2.00000
                  --------  --------  --------  --------  --------  --------
 0 C  s              99.7       0.0       0.0       0.0       0.0       0.0
 8 C  px              0.0       0.0       0.1       0.0       0.0       0.0
11 Cl s               0.0      99.8       0.0       0.0       0.0       0.0
11 Cl pz              0.0       0.0       0.0       6.8       0.0      93.2
11 Cl px              0.0       0.0       0.0      56.5       0.0       4.1
11 Cl py              0.0       0.0       0.0      36.7       0.0       2.7
12 Cl s               0.0       0.0      99.8       0.0       0.0       0.0
12 Cl pz              0.0       0.0       0.0       0.0       1.6       0.0
12 Cl px              0.0       0.0       0.0       0.0      82.3       0.0
12 Cl py              0.0       0.0       0.0       0.0      16.1       0.0

                     18        19        20        21        22        23   
                  -7.00849  -7.00623  -7.00547  -0.95014  -0.87060  -0.84153
                   2.00000   2.00000   2.00000   2.00000   2.00000   2.00000
                  --------  --------  --------  --------  --------  --------
 0 C  s               0.0       0.0       0.0       0.1       0.0       0.0
 0 C  pz              0.0       0.0       0.0       0.1       0.0       0.0
 1 C  s               0.0       0.0       0.0       1.5       0.0       0.0
 1 C  pz              0.0       0.0       0.0       0.2       0.0       0.0
 1 C  px              0.0       0.0       0.0       0.1       0.2       0.0
 1 C  py              0.0       0.0       0.0       1.9       0.0       0.0
 2 C  s               0.0       0.0       0.0      23.5       0.1       0.0
 2 C  pz              0.0       0.0       0.0       0.5       0.1       0.0
 2 C  px              0.0       0.0       0.0       0.7      13.4       2.5
 2 C  py              0.0       0.0       0.0       5.4       0.9       0.1
 2 C  dz2             0.0       0.0       0.0       0.5       0.0       0.0
 2 C  dyz             0.0       0.0       0.0       0.1       0.0       0.0
 2 C  dx2y2           0.0       0.0       0.0       0.1       0.1       0.0
 2 C  dxy             0.0       0.0       0.0       0.4       0.6       0.1
 3 O  s               0.0       0.0       0.0      35.4      13.4       1.9
 3 O  pz              0.0       0.0       0.0       0.2       0.1       0.0
 3 O  px              0.0       0.0       0.0       3.3       0.4       0.0
 3 O  py              0.0       0.0       0.0       2.3       0.6       0.1
 3 O  dxy             0.0       0.0       0.0       0.1       0.0       0.0
 4 N  s               0.0       0.0       0.0      13.5      25.2       4.9
 4 N  px              0.0       0.0       0.0       1.7       2.2       0.0
 4 N  py              0.0       0.0       0.0       0.0       0.2       0.0
 5 C  s               0.0       0.0       0.0       1.9      14.2       0.0
 5 C  px              0.0       0.0       0.0       1.3       1.5       3.1
 5 C  py              0.0       0.0       0.0       0.3       0.8       0.4
 5 C  dz2             0.0       0.0       0.0       0.0       0.2       0.0
 5 C  dxy             0.0       0.0       0.0       0.0       0.1       0.0
 6 C  s               0.0       0.0       0.0       0.2       3.2       0.8
 6 C  px              0.0       0.0       0.0       0.0       0.0       1.0
 6 C  py              0.0       0.0       0.0       0.2       1.5       0.0
 7 C  s               0.0       0.0       0.0       0.0       1.3       4.3
 7 C  pz              0.0       0.0       0.0       0.0       0.0       0.2
 7 C  px              0.0       0.0       0.0       0.0       0.0       0.9
 7 C  py              0.0       0.0       0.0       0.0       0.5       1.1
 8 C  s               0.0       0.0       0.0       0.0       1.9      16.6
 8 C  px              0.0       0.0       0.0       0.0       0.1       0.5
 8 C  py              0.0       0.0       0.0       0.0       0.1       0.4
 8 C  dz2             0.0       0.0       0.0       0.0       0.0       0.2
 9 C  s               0.0       0.0       0.0       0.0       2.7      16.8
 9 C  px              0.0       0.0       0.0       0.0       0.1       1.1
 9 C  py              0.0       0.0       0.0       0.0       0.0       0.2
 9 C  dz2             0.0       0.0       0.0       0.0       0.0       0.2
10 C  s               0.0       0.0       0.0       0.2       4.5       2.9
10 C  pz              0.0       0.0       0.0       0.0       0.1       0.1
10 C  px              0.0       0.0       0.0       0.2       0.6       2.9
10 C  py              0.0       0.0       0.0       0.0       0.7       0.5
11 Cl s               0.0       0.0       0.0       0.0       1.0      15.9
11 Cl pz              0.0       0.0       0.0       0.0       0.0       0.1
11 Cl px             39.4       0.0       0.0       0.0       0.1       0.8
11 Cl py             60.6       0.0       0.0       0.0       0.1       0.7
12 Cl s               0.0       0.0       0.0       0.0       0.6      14.2
12 Cl pz              0.0      93.1       5.3       0.0       0.0       0.0
12 Cl px              0.0       4.2      13.4       0.0       0.1       1.2
12 Cl py              0.0       2.7      81.2       0.0       0.0       0.3
16 H  s               0.0       0.0       0.0       0.3       0.0       0.0
17 H  s               0.0       0.0       0.0       0.2       0.0       0.0
18 H  s               0.0       0.0       0.0       2.7       4.1       0.8
19 H  s               0.0       0.0       0.0       0.0       0.5       0.1
20 H  s               0.0       0.0       0.0       0.0       0.2       0.6
21 H  s               0.0       0.0       0.0       0.0       0.7       0.4

                     24        25        26        27        28        29   
                  -0.78942  -0.76841  -0.71808  -0.69103  -0.67206  -0.60375
                   2.00000   2.00000   2.00000   2.00000   2.00000   2.00000
                  --------  --------  --------  --------  --------  --------
 0 C  s               0.0       0.0      18.8       2.5       0.1      16.1
 0 C  pz              0.0       0.0       2.7       0.2       0.0       1.4
 0 C  px              0.0       0.0       0.3       0.1       0.0       0.0
 0 C  py              0.0       0.0       0.1       0.0       0.0       0.2
 1 C  s               0.0       0.1      27.1       2.3       0.0       1.4
 1 C  pz              0.0       0.0       1.1       0.3       0.0       6.9
 1 C  px              0.0       0.0       0.6       0.0       0.0       0.0
 1 C  py              0.0       0.0       0.0       0.0       0.1       2.1
 1 C  dz2             0.0       0.0       0.0       0.0       0.0       0.1
 2 C  s               0.0       0.4       2.9       0.1       0.8       5.5
 2 C  pz              0.0       0.0       1.4       0.1       0.0       0.0
 2 C  px              0.0       2.8       0.1       1.6       2.9       1.7
 2 C  py              0.0       0.0       9.3       0.6       0.0       4.2
 2 C  dxy             0.0       0.2       0.1       0.0       0.2       0.1
 3 O  s               0.0       1.5       1.7       0.1       1.2       1.9
 3 O  px              0.0       0.0       0.1       0.1       0.2       0.2
 3 O  py              0.0       0.0       0.2       0.0       0.0       0.5
 4 N  s               0.0       3.9       0.4       0.9       1.4       0.4
 4 N  px              0.0       1.4       1.5       2.1       6.4       8.5
 4 N  py              0.0       0.2       1.0       0.0       1.2       5.5
 4 N  dxy             0.0       0.0       0.0       0.0       0.1       0.1
 5 C  s               0.0       5.9       0.5       1.9       9.0       0.0
 5 C  pz              0.0       0.0       0.0       0.6       0.1       0.0
 5 C  px              0.1       4.7       0.0       2.4       0.0       0.5
 5 C  py              0.3       1.9       1.6       5.7       2.2       4.8
 5 C  dx2y2           0.0       0.1       0.0       0.0       0.1       0.0
 5 C  dxy             0.0       0.0       0.0       0.2       0.0       0.1
 6 C  s               0.6      11.5       0.9       6.6       8.6       1.7
 6 C  pz              0.0       0.1       0.0       0.0       0.0       0.0
 6 C  px              0.3       1.2       0.0       1.6       1.7       1.0
 6 C  py              0.1       0.5       0.3       2.6       1.4       0.3
 6 C  dz2             0.0       0.1       0.0       0.0       0.1       0.0
 6 C  dx2y2           0.0       0.0       0.0       0.1       0.1       0.0
 7 C  s               2.9       6.8       1.0      13.7       0.7       2.1
 7 C  pz              0.1       0.0       0.0       0.0       0.4       0.1
 7 C  px              0.6       1.9       0.1       0.6       5.0       1.8
 7 C  py              0.1       1.1       0.0       0.1       0.4       0.1
 7 C  dxy             0.0       0.0       0.0       0.0       0.2       0.0
 8 C  s               5.7       0.1       0.1       0.7       7.7       0.9
 8 C  pz              0.0       0.4       0.0       0.4       0.0       0.1
 8 C  px              2.2       9.5       0.3       2.6       3.5       0.5
 8 C  py              5.3       0.1       0.0       2.2       2.4       1.4
 8 C  dx2y2           0.2       0.0       0.0       0.0       0.2       0.0
 8 C  dxy             0.0       0.1       0.0       0.2       0.0       0.1
 9 C  s               4.6       0.2       0.0       2.2       7.1       0.8
 9 C  pz              0.5       0.4       0.0       0.2       0.3       0.0
 9 C  px              1.1       6.5       0.2       6.0       1.0       0.5
 9 C  py              7.7       0.6       0.0       0.4       4.2       0.2
 9 C  dx2y2           0.1       0.0       0.0       0.1       0.1       0.0
 9 C  dxy             0.2       0.0       0.0       0.2       0.1       0.0
10 C  s               1.5       5.3       1.0      16.0       0.1       0.2
10 C  pz              0.1       0.1       0.0       0.0       0.2       0.1
10 C  px              1.0       0.2       0.2       0.0       5.2       1.9
10 C  py              0.0       1.6       0.0       0.1       0.0       0.3
10 C  dz2             0.0       0.1       0.0       0.1       0.0       0.0
10 C  dxy             0.0       0.0       0.0       0.0       0.3       0.0
11 Cl s              32.2       8.7       0.3       6.8       8.0       0.8
11 Cl px              0.7       0.0       0.0       0.2       0.4       0.2
11 Cl py              0.2       0.1       0.0       0.0       0.2       0.1
12 Cl s              28.8      15.1       0.5       3.1       9.7       1.2
12 Cl px              1.0       0.1       0.0       0.1       0.6       0.4
12 Cl py              0.1       0.1       0.0       0.0       0.1       0.0
13 H  s               0.0       0.0       3.5       0.5       0.0       4.8
14 H  s               0.0       0.0       3.8       0.4       0.1       4.2
15 H  s               0.0       0.0       3.5       0.5       0.0       5.5
16 H  s               0.0       0.0       4.8       0.6       0.0       0.2
17 H  s               0.0       0.0       5.7       0.4       0.0       0.9
18 H  s               0.0       0.8       0.6       0.1       0.8       2.6
19 H  s               0.1       1.5       0.4       1.6       2.4       0.9
20 H  s               0.6       0.7       0.2       3.0       0.1       0.9
21 H  s               0.4       0.5       0.3       3.4       0.0       0.0

                     30        31        32        33        34        35   
                  -0.58301  -0.57714  -0.52671  -0.50796  -0.46039  -0.45865
                   2.00000   2.00000   2.00000   2.00000   2.00000   2.00000
                  --------  --------  --------  --------  --------  --------
 0 C  s               0.0       8.1       0.7       0.1       0.0       0.0
 0 C  pz              0.0       2.4       1.0       0.4       0.3       0.5
 0 C  px              0.0       0.6       0.5       0.7       0.3       0.2
 0 C  py              0.0       0.1       0.3       0.0       1.7       2.2
 1 C  s               0.0       6.6       2.6       1.4       0.4       0.1
 1 C  pz              0.0       3.7       0.4       0.0       0.1       0.8
 1 C  px              0.0       1.3       1.5       1.2       0.4       0.6
 1 C  py              0.0       0.2       2.4       0.7       5.7       7.1
 2 C  s               0.5       0.1       2.3       0.0       1.7       0.3
 2 C  pz              0.0       0.2       0.2       0.0       2.1       2.3
 2 C  px              1.0       4.3       2.7       0.0       0.0       1.1
 2 C  py              0.1       5.2       0.0       0.6       0.4       1.3
 2 C  dxy             0.1       0.0       0.0       0.3       0.0       0.0
 3 O  s               0.7       0.0       0.2       0.8       1.0       0.0
 3 O  pz              0.0       0.0       0.0       0.0       0.7       0.6
 3 O  px              0.3       0.6       0.3       0.6       0.3       0.5
 3 O  py              0.0       0.5       0.0       0.0       0.7       0.7
 4 N  s               0.0       0.0       0.6       0.0       0.6       0.4
 4 N  pz              0.0       0.1       1.3       0.8       2.4       1.1
 4 N  px              5.4       9.0       4.9       3.0       0.6       3.2
 4 N  py              3.4       0.0      11.7      18.0       0.2       0.8
 4 N  dx2y2           0.0       0.0       0.2       0.1       0.1       0.0
 4 N  dxy             0.1       0.0       0.0       0.0       0.1       0.0
 5 C  s               2.6       0.6       1.8       0.0       0.0       0.0
 5 C  pz              0.5       0.0       1.0       0.1       2.0       0.1
 5 C  px              4.2       0.5       1.6      13.7       2.5       1.0
 5 C  py              2.0       6.8       0.2       0.2       4.7       1.7
 5 C  dx2y2           0.0       0.0       0.1       0.1       0.0       0.3
 5 C  dxy             0.1       0.0       0.2       0.0       0.2       0.3
 6 C  s               0.0       4.1       3.1       0.1       0.4       0.8
 6 C  pz              0.0       0.0       0.8       0.3       0.0       0.4
 6 C  px              3.6       0.8       0.4       3.2       0.2       9.6
 6 C  py              4.8       0.0       7.7       2.9       5.6       0.5
 6 C  dxy             0.0       0.0       0.0       0.1       0.0       0.2
 7 C  s               5.4       2.3       0.0       1.1       0.0       1.2
 7 C  pz              0.2       0.1       0.6       0.1       0.4       0.2
 7 C  px              0.8       5.1       6.6       0.8       5.2       4.3
 7 C  py              2.6       0.3       0.7       6.2       1.2       0.0
 8 C  s               4.6       1.3       0.3       0.1       0.3       2.9
 8 C  pz              0.4       0.3       0.3       0.0       0.9       0.0
 8 C  px              0.4       0.6       1.0       0.3       5.8       3.4
 8 C  py              8.1       3.7       4.6       0.9       3.9       3.8
 8 C  dx2y2           0.1       0.0       0.0       0.0       0.0       0.0
 8 C  dxy             0.0       0.1       0.0       0.0       0.0       0.0
 9 C  s               1.1       1.9       3.2       1.6       0.4       1.2
 9 C  pz              0.0       0.0       0.0       0.2       0.1       0.0
 9 C  px              5.3       0.3       0.8       0.0       6.6       0.1
 9 C  py             11.9       0.1       0.0       3.7       4.9       0.1
 9 C  dx2y2           0.2       0.0       0.0       0.0       0.0       0.0
10 C  s               8.6       0.0       0.3       0.4       0.8       1.3
10 C  pz              0.1       0.1       0.1       0.9       0.1       0.0
10 C  px              0.2       4.0       2.0       3.5      14.3       0.5
10 C  py              3.1       0.4       1.1       5.6       1.5       3.9
10 C  dx2y2           0.0       0.0       0.0       0.1       0.1       0.2
10 C  dxy             0.0       0.0       0.1       0.1       0.1       0.0
11 Cl s               0.5       1.7       3.6       2.9       0.0       0.1
11 Cl pz              0.0       0.1       0.3       0.3       0.0       0.0
11 Cl px              0.0       0.5       2.0       3.8       0.6       0.2
11 Cl py              0.9       0.3       1.8       0.6       1.4       0.4
11 Cl dx2y2           0.0       0.0       0.0       0.0       0.1       0.0
12 Cl s               3.4       1.5       0.2       0.5       1.6       5.1
12 Cl pz              0.0       0.0       0.0       0.0       0.0       0.4
12 Cl px              0.9       0.8       0.3       0.7       2.2      15.2
12 Cl py              1.1       0.0       0.1       0.0       4.0       1.5
12 Cl dx2y2           0.0       0.0       0.0       0.0       0.0       0.2
12 Cl dxy             0.1       0.0       0.0       0.0       0.1       0.1
13 H  s               0.0       2.8       0.6       0.1       0.4       0.9
14 H  s               0.0       3.6       0.6       0.5       0.2       0.0
15 H  s               0.0       2.9       0.1       0.0       0.3       0.2
16 H  s               0.0       3.2       2.3       1.3       0.7       0.0
17 H  s               0.0       2.2       2.5       0.5       1.8       4.0
18 H  s               0.9       0.0       7.0       6.2       0.1       0.3
19 H  s               0.0       1.7       5.2       1.4       1.0       4.3
20 H  s               3.6       1.3       0.1       3.8       0.1       0.3
21 H  s               5.6       0.2       0.0       1.9       2.5       4.2

                     36        37        38        39        40        41   
                  -0.43226  -0.42331  -0.40850  -0.40672  -0.40333  -0.38678
                   2.00000   2.00000   2.00000   2.00000   2.00000   2.00000
                  --------  --------  --------  --------  --------  --------
 0 C  s               0.0       0.0       0.0       0.2       0.2       0.0
 0 C  pz              1.1       0.0       0.5       6.9       0.4       5.7
 0 C  px              2.5       1.7       1.7       6.0      15.2       0.0
 0 C  py              5.7       1.2       0.7       1.8       0.1       2.5
 1 C  s               0.0       0.1       0.1       0.3       0.1       0.3
 1 C  pz              2.5       0.1       0.6       0.6       7.5       3.4
 1 C  px              5.1       1.3       0.8       5.1       9.0       3.2
 1 C  py             11.0       2.3       2.3       0.0       0.9       0.1
 1 C  dx2y2           0.0       0.0       0.0       0.0       0.1       0.0
 2 C  s               0.3       0.0       0.3       0.5       0.7       0.4
 2 C  pz              3.0       0.6       0.1       8.8       3.3       3.7
 2 C  px              2.4       0.9       1.3       0.0       1.6       1.2
 2 C  py              0.2       1.2       1.0       0.6       4.3       0.4
 2 C  dx2y2           0.0       0.0       0.0       0.1       0.1       0.0
 2 C  dxy             0.2       0.0       0.0       0.0       0.0       0.0
 3 O  s               2.0       0.0       0.8       1.0       0.6       2.6
 3 O  pz              1.8       0.2       0.0       2.2       1.1       0.4
 3 O  px              0.1       0.6       0.1       0.7       0.1       1.7
 3 O  py              2.1       0.2       1.9       3.1       3.4       7.0
 4 N  s               0.0       0.0       0.0       0.0       0.3       0.0
 4 N  pz              0.2       0.0       1.8       9.4       4.6       0.4
 4 N  px              0.1       1.6       0.3       0.0       0.5       0.1
 4 N  py              4.6       0.2       1.9       4.7       1.7       0.0
 4 N  dx2y2           0.1       0.1       0.0       0.1       0.0       0.0
 5 C  s               0.0       2.5       0.1       0.0       0.0       0.0
 5 C  pz              1.3       0.1       0.7       7.9       1.2       2.2
 5 C  px              0.0       3.3       1.0       0.1       0.6       0.3
 5 C  py              5.2       0.1       0.3       0.8       0.0       0.1
 5 C  dx2y2           0.3       0.0       0.1       0.0       0.1       0.0
 5 C  dxy             0.1       0.0       0.1       0.0       0.0       0.0
 6 C  s               1.0       0.6       0.2       0.0       0.0       0.0
 6 C  pz              0.1       0.2       1.7       3.9       0.1       2.7
 6 C  px              0.6       1.5       6.9       0.9       1.6       0.2
 6 C  py              4.4       2.9       0.8       0.1       1.6       0.2
 6 C  dx2y2           0.0       0.3       0.1       0.0       0.0       0.0
 6 C  dxy             0.0       0.1       0.1       0.0       0.0       0.0
 7 C  s               0.2       0.7       0.3       0.0       0.1       0.0
 7 C  pz              0.0       0.5       0.7       2.4       0.0       5.8
 7 C  px              1.4       0.1       1.8       0.3       0.1       0.3
 7 C  py              0.8      11.8      12.3       0.2       1.7       0.2
 7 C  dx2y2           0.0       0.2       0.1       0.0       0.0       0.0
 7 C  dxy             0.0       0.2       0.0       0.0       0.0       0.0
 8 C  s               0.1       1.2       0.0       0.0       0.1       0.0
 8 C  pz              0.2       0.1       0.2       2.4       0.6      14.5
 8 C  px              0.6       3.7       0.8       0.2       0.3       0.6
 8 C  py              4.1       0.2       0.1       1.4       0.3       0.4
 8 C  dx2y2           0.0       0.1       0.2       0.0       0.0       0.0
 8 C  dxy             0.0       0.0       0.2       0.0       0.1       0.0
 9 C  s               0.0       0.5       0.4       0.1       0.0       0.0
 9 C  pz              0.0       0.5       1.4       4.1       0.1      14.8
 9 C  px              0.1       4.7       5.1       0.2       3.6       1.1
 9 C  py              4.4       2.1       0.3       0.5       1.4       0.5
 9 C  dx2y2           0.0       0.2       0.2       0.0       0.0       0.0
 9 C  dxy             0.0       0.1       0.0       0.0       0.1       0.0
10 C  s               0.1       0.1       0.1       0.2       0.3       0.0
10 C  pz              0.0       0.4       1.2       3.2       0.7       6.2
10 C  px              1.7       1.2       1.5       0.0       0.4       0.1
10 C  py              1.2       5.5      14.1       2.0       0.7       0.2
10 C  dx2y2           0.0       0.1       0.2       0.0       0.0       0.0
10 C  dxy             0.0       0.3       0.0       0.0       0.0       0.0
11 Cl s               0.6       2.6       1.0       0.1       1.0       0.0
11 Cl pz              0.3       1.2       0.1       0.4       1.3       6.2
11 Cl px              3.5       7.4       3.9       1.7       4.7       0.1
11 Cl py              0.2       8.8       2.5       0.3       3.0       0.0
11 Cl dxy             0.0       0.2       0.0       0.0       0.1       0.0
12 Cl s               0.8       0.4       0.1       0.0       0.1       0.0
12 Cl pz              0.3       0.0       0.2       0.4       0.0       5.0
12 Cl px              4.4       1.1       0.6       0.3       0.6       0.3
12 Cl py              0.0       0.3       0.0       0.4       0.1       0.2
13 H  s               2.8       0.1       0.3       1.6       0.3       0.2
14 H  s               0.8       0.7       0.8       2.0       7.0       0.1
15 H  s               0.6       0.6       0.3       4.3       0.1       2.5
16 H  s               1.3       0.8       0.7       1.2       5.1       0.8
17 H  s               7.1       0.1       0.0       0.4       1.1       0.0
18 H  s               2.6       0.3       1.0       1.4       1.3       0.0
19 H  s               0.2       3.9       3.6       0.0       1.4       0.0
20 H  s               0.6       8.7       6.4       0.0       0.5       0.0
21 H  s               0.2       4.0       8.4       1.3       0.1       0.0

                     42        43        44        45        46        47   
                  -0.37182  -0.36403  -0.35016  -0.34355  -0.33543  -0.31874
                   2.00000   2.00000   2.00000   2.00000   2.00000   2.00000
                  --------  --------  --------  --------  --------  --------
 0 C  s               0.0       0.0       0.0       0.2       0.0       0.0
 0 C  pz              0.2       0.2       8.1      12.3       0.0       5.5
 0 C  px              0.2       0.7       1.4       4.3       1.9       9.2
 0 C  py              1.2      14.3       0.6       0.1      22.2       1.0
 0 C  dz2             0.0       0.0       0.0       0.2       0.0       0.1
 0 C  dxz             0.0       0.0       0.1       0.0       0.0       0.2
 0 C  dyz             0.0       0.1       0.1       0.0       0.4       0.1
 0 C  dx2y2           0.0       0.0       0.0       0.0       0.2       0.4
 0 C  dxy             0.0       0.1       0.0       0.0       0.1       0.0
[...]
 8 C  dx2y2           8.5       0.0       1.3       2.8       6.5       0.0
 8 C  dxy             0.1       1.0       1.7      11.0       0.2       0.0
 9 C  s               0.1       0.0       0.2       0.2       0.1       0.0
 9 C  px              0.3       0.0       0.0       0.2       0.5       0.0
 9 C  py              1.4       0.2       0.2       1.3       0.9       0.0
 9 C  dz2             0.0       0.2       0.0       0.0       0.3       0.0
 9 C  dxz             0.0       0.0       0.0       0.6       0.2       0.0
 9 C  dyz             0.0       0.1       0.0       0.6       0.2       0.0
 9 C  dx2y2           2.1       1.9       1.8       9.4       4.4       0.0
 9 C  dxy             0.0       0.1       0.0       0.4       0.4       0.0
10 C  s               2.0       0.5       0.0       0.3       0.1       0.0
10 C  px              0.2       0.1       0.0       0.7       0.9       0.0
10 C  py              0.7       0.2       0.0       0.2       0.1       0.0
10 C  dz2             0.6       0.3       0.0       0.1       0.1       0.0
10 C  dxz             1.9       0.8       0.1       0.4       0.3       0.0
10 C  dyz             0.0       0.2       0.2       0.0       0.3       0.0
10 C  dx2y2           2.3       0.4       0.4       0.7       0.2       0.0
10 C  dxy             0.3       0.1       0.0       1.2       6.6       0.0
11 Cl dx2y2           0.0       0.0       0.0       0.1       0.0       0.0
12 Cl dx2y2           0.0       0.0       0.0       0.1       0.0       0.0
12 Cl dxy             0.2       0.0       0.0       0.0       0.1       0.0
16 H  s               0.0       0.2       0.0       0.0       0.0       0.0
17 H  s               0.0       0.0       0.2       0.0       0.0       0.0
18 H  s               0.2       1.2       0.0       0.1       0.0       0.0
20 H  s               0.2       0.0       0.0       0.1       0.1       0.0
21 H  s               0.1       0.0       0.0       0.1       0.0       0.0

                    204       205       206       207   
                   3.16375   3.25484   3.38621   3.51597
                   0.00000   0.00000   0.00000   0.00000
                  --------  --------  --------  --------
 1 C  s               0.1       0.0       0.2       0.0
 1 C  py              0.1       0.0       0.3       0.0
 1 C  dz2             0.0       0.0       0.1       0.0
 1 C  dxz             0.0       0.1       0.1       0.0
 1 C  dyz             0.1       0.0       0.2       0.1
 1 C  dx2y2           0.4       0.0       0.3       0.2
 1 C  dxy             0.1       1.1       0.9       0.1
 2 C  s               2.0       0.9       0.2       5.1
 2 C  pz              0.0       0.0       0.0       0.3
 2 C  px              0.8       0.3       0.4       3.7
 2 C  py              0.4       0.3       0.3       2.5
 2 C  dz2             0.7       0.7       0.0       0.5
 2 C  dxz             1.1       0.0       0.0       0.7
 2 C  dyz             0.3       0.4       2.0       0.1
 2 C  dx2y2           0.0       8.8      15.2       0.6
 2 C  dxy             3.7       1.2       0.2       7.1
 3 O  s               0.4       0.2       0.5       5.4
 3 O  pz              0.0       0.0       0.0       0.2
 3 O  px              0.1       0.1       0.9       1.6
 3 O  py              0.0       0.4       0.1       2.1
 3 O  dz2             1.3       0.3       2.8       9.5
 3 O  dxz             0.2       0.0       0.3       4.4
 3 O  dyz             0.4       2.6       0.9       4.8
 3 O  dx2y2           2.8      14.9      28.7       0.6
 3 O  dxy             0.6       0.4       2.9      43.6
 4 N  s               1.6       1.2       0.5       0.1
 4 N  px              0.1       0.0       1.8       0.0
 4 N  py              0.0       0.5       0.0       0.1
 4 N  dz2             3.9       2.0       0.3       0.2
 4 N  dxz             0.8       0.0       0.8       0.1
 4 N  dx2y2          24.2       9.9       0.9       2.3
 4 N  dxy             0.3       0.4      13.2       1.3
 5 C  s               1.6       0.1       0.2       0.0
 5 C  px              0.4       0.4       0.8       0.1
 5 C  py              0.2       0.0       0.2       0.0
 5 C  dz2             1.4       0.0       0.1       0.0
 5 C  dyz             0.1       1.4       0.3       0.0
 5 C  dx2y2          11.0       0.6       4.6       0.0
 5 C  dxy             3.2      11.2       3.7       1.0
 6 C  s               0.9       0.3       0.2       0.0
 6 C  py              0.9       0.1       0.0       0.0
 6 C  dz2             0.5       0.5       0.1       0.0
 6 C  dxz             0.1       0.1       0.1       0.0
 6 C  dyz             0.3       0.5       0.0       0.0
 6 C  dx2y2           3.9       0.0       0.1       0.0
 6 C  dxy             1.1       8.8       3.0       0.4
 7 C  s               0.1       0.8       0.2       0.1
 7 C  px              0.2       0.1       0.0       0.0
 7 C  dz2             0.1       0.2       0.0       0.0
 7 C  dxz             0.5       0.7       0.2       0.0
 7 C  dx2y2           2.2       6.4       1.8       0.1
 7 C  dxy             1.1       0.2       0.2       0.0
 8 C  s               0.3       0.6       0.2       0.0
 8 C  dz2             0.1       0.2       0.1       0.0
 8 C  dyz             0.4       0.6       0.2       0.0
 8 C  dx2y2           0.9       3.1       0.8       0.0
 8 C  dxy             3.0       1.8       0.7       0.0
 9 C  s               0.8       0.4       0.2       0.0
 9 C  px              0.3       0.0       0.0       0.0
 9 C  dz2             0.5       0.3       0.1       0.0
 9 C  dyz             0.1       0.0       0.0       0.0
 9 C  dx2y2           0.1       0.8       0.2       0.0
 9 C  dxy             5.1       4.0       1.8       0.1
10 C  s               0.2       0.7       0.2       0.0
10 C  px              0.9       0.2       0.0       0.0
10 C  py              0.0       0.1       0.0       0.0
10 C  dz2             0.4       0.1       0.0       0.0
10 C  dxz             0.4       0.5       0.3       0.0
10 C  dyz             0.3       0.0       0.0       0.0
10 C  dx2y2           6.3       4.0       3.1       0.1
10 C  dxy             1.1       1.4       0.1       0.0
18 H  s               0.4       0.2       0.0       0.1
19 H  s               0.1       0.4       0.1       0.0
20 H  s               0.1       0.3       0.1       0.0
21 H  s               0.2       0.2       0.1       0.0


                      *****************************
                      * MAYER POPULATION ANALYSIS *
                      *****************************

  NA   - Mulliken gross atomic population
  ZA   - Total nuclear charge
  QA   - Mulliken gross atomic charge
  VA   - Mayer's total valence
  BVA  - Mayer's bonded valence
  FA   - Mayer's free valence

  ATOM       NA         ZA         QA         VA         BVA        FA
  0 C      6.3097     6.0000    -0.3097     4.0001     4.0001     0.0000
  1 C      6.1957     6.0000    -0.1957     3.9755     3.9755    -0.0000
  2 C      5.9591     6.0000     0.0409     4.4050     4.4050    -0.0000
  3 O      8.2057     8.0000    -0.2057     2.3027     2.3027    -0.0000
  4 N      7.1774     7.0000    -0.1774     3.1444     3.1444     0.0000
  5 C      5.7713     6.0000     0.2287     3.8625     3.8625    -0.0000
  6 C      6.1282     6.0000    -0.1282     3.7827     3.7827     0.0000
  7 C      6.1123     6.0000    -0.1123     3.9011     3.9011    -0.0000
  8 C      5.9106     6.0000     0.0894     3.9579     3.9579     0.0000
  9 C      5.9209     6.0000     0.0791     4.0379     4.0379     0.0000
 10 C      6.1827     6.0000    -0.1827     3.8454     3.8454     0.0000
 11 Cl    17.0497    17.0000    -0.0497     1.2144     1.2144    -0.0000
 12 Cl    17.0560    17.0000    -0.0560     1.2053     1.2053     0.0000
 13 H      0.8831     1.0000     0.1169     0.9496     0.9496     0.0000
 14 H      0.8592     1.0000     0.1408     0.9589     0.9589    -0.0000
 15 H      0.8845     1.0000     0.1155     0.9481     0.9481    -0.0000
 16 H      0.8941     1.0000     0.1059     0.9806     0.9806    -0.0000
 17 H      0.8767     1.0000     0.1233     0.9476     0.9476    -0.0000
 18 H      0.7635     1.0000     0.2365     0.9428     0.9428    -0.0000
 19 H      0.9554     1.0000     0.0446     0.9746     0.9746     0.0000
 20 H      0.9428     1.0000     0.0572     0.9721     0.9721     0.0000
 21 H      0.9612     1.0000     0.0388     0.9878     0.9878     0.0000

  Mayer bond orders larger than 0.100000
B(  0-C ,  1-C ) :   1.1296 B(  0-C , 13-H ) :   0.9510 B(  0-C , 14-H ) :   0.9379 
B(  0-C , 15-H ) :   0.9483 B(  1-C ,  2-C ) :   1.0439 B(  1-C , 16-H ) :   0.9000 
B(  1-C , 17-H ) :   0.8899 B(  2-C ,  3-O ) :   2.0976 B(  2-C ,  4-N ) :   1.1443 
B(  4-N ,  5-C ) :   1.0616 B(  4-N , 18-H ) :   0.8337 B(  5-C ,  6-C ) :   1.3214 
B(  5-C , 10-C ) :   1.2849 B(  6-C ,  7-C ) :   1.3447 B(  6-C , 19-H ) :   0.9594 
B(  7-C ,  8-C ) :   1.3750 B(  7-C , 20-H ) :   0.9636 B(  8-C ,  9-C ) :   1.4055 
B(  8-C , 12-Cl) :   1.0328 B(  9-C , 10-C ) :   1.3900 B(  9-C , 11-Cl) :   1.0369 
B( 10-C , 21-H ) :   0.9635 

-------
TIMINGS
-------

Total SCF time: 0 days 0 hours 0 min 13 sec 

Total time                  ....      13.968 sec
Sum of individual times     ....      13.398 sec  ( 95.9%)

SCF preparation             ....       0.257 sec  (  1.8%)
Fock matrix formation       ....      12.103 sec  ( 86.6%)
  Startup                   ....       0.065 sec  (  0.5% of F)
  Split-RI-J                ....       5.395 sec  ( 44.6% of F)
  XC integration            ....       6.015 sec  ( 49.7% of F)
    XC Preparation          ....       0.000 sec  (  0.0% of XC)
    Basis function eval.    ....       2.217 sec  ( 36.8% of XC)
    Density eval.           ....       0.992 sec  ( 16.5% of XC)
    XC-Functional eval.     ....       0.474 sec  (  7.9% of XC)
    XC-Potential eval.      ....       1.399 sec  ( 23.3% of XC)
Diagonalization             ....       0.000 sec  (  0.0%)
Density matrix formation    ....       0.240 sec  (  1.7%)
Total Energy calculation    ....       0.042 sec  (  0.3%)
Population analysis         ....       0.114 sec  (  0.8%)
Orbital Transformation      ....       0.074 sec  (  0.5%)
Orbital Orthonormalization  ....       0.000 sec  (  0.0%)
DIIS solution               ....       0.345 sec  (  2.5%)
  MO trafo                  ....       0.000 sec  (  0.0 % of DIIS)
  Orb grad                  ....       0.000 sec  (  0.0 % of DIIS)
  Energy W gradient         ....       0.000 sec  (  0.0 % of DIIS)
  DIIS error                ....       0.007 sec  (  2.1 % of DIIS)
  DIIS work                 ....       0.284 sec  ( 82.4 % of DIIS)
  Form Q                    ....       0.000 sec  (  0.0 % of DIIS)
  Form QpQm                 ....       0.000 sec  (  0.0 % of DIIS)
  Exp/Cayley                ....       0.000 sec  (  0.0 % of DIIS)
  Orb update                ....       0.000 sec  (  0.0 % of DIIS)
  Wake-sleep                ....       0.017 sec  (  5.0 % of DIIS)
SOSCF solution              ....       0.223 sec  (  1.6%)
  MO trafo                  ....       0.073 sec  ( 32.6 % of SOSCF)
  Orb grad                  ....       0.003 sec  (  1.5 % of SOSCF)
  Rot update                ....       0.094 sec  ( 42.1 % of SOSCF)
  Step                      ....       0.053 sec  ( 23.7 % of SOSCF)
Finished LeanSCF after  14.1 sec

Maximum memory used throughout the entire LEANSCF-calculation: 18.7 MB


-------------------------------------------------------------------------------
                          DFT DISPERSION CORRECTION                            
                                                                               
                                DFTD4 V3.4.0                                   
-------------------------------------------------------------------------------
The PBE functional is recognized
Active option DFTDOPT                   ...         5   

-------------------------   ----------------
Dispersion correction           -0.029092774
-------------------------   ----------------

------------------   -----------------
gCP correction             0.088219588
------------------   -----------------

-------------------------   --------------------
FINAL SINGLE POINT ENERGY     -1397.086666650828
-------------------------   --------------------


------------------------------------------------------------------------------
                              ORCA PROPERTY CALCULATIONS
------------------------------------------------------------------------------

GBWName                                 ... sp.gbw
Number of atoms                         ...     22
Number of basis functions               ...    208
Max core memory                         ...   1024 MB

Electric properties:
Dipole moment                           ... YES
Quadrupole moment                       ...  NO
Static polarizability (Dipole/Dipole)   ...  NO
Static polarizability (Dipole/Quad.)    ...  NO
Static polarizability (Quad./Quad.)     ...  NO
Static polarizability (Velocity)        ...  NO

Atomic electric properties:
Dipole moment                           ...  NO
Quadrupole moment                       ...  NO
Static polarizability                   ...  NO

Choice of electric origin               ... Center of mass
Position of electric origin             ...     0.000008     0.000008     0.000003

General magnetic properties:
Magnetizability                         ...  NO

EPR properties:
g-Tensor (aka g-matrix)                 ...  NO
Zero-Field splitting spin-orbit         ...  NO
Zero-field splitting spin-spin          ...  NO
Hyperfine couplings                     ...  NO (   0 nuclei)
Quadrupole couplings                    ...  NO (   0 nuclei)
Contact density                         ...  NO (   0 nuclei)

NMR properties:
Chemical shifts                         ...  NO (   0 nuclei)
Spin-rotation constants                 ...  NO (   0 nuclei)
Spin-spin couplings                     ...  NO (   0 nuclei,    0 pairs)

Choice of magnetic origin               ... GIAO
Position of magnetic origin             ...     0.000000     0.000000     0.000000

Properties with geometric perturbations:
SCF Hessian                             ...  NO
IR spectrum                             ...  NO
VCD spectrum                            ...  NO
X-ray spectroscopy properties:
SCF XES/XAS/RIXS spectra                ...  NO


-------------
DIPOLE MOMENT
-------------

Method             : SCF
Type of density    : Electron Density
Multiplicity       :   1
Irrep              :   0
Energy             : -1397.1457934651057258 Eh
Relativity type    : 
Basis              : AO
                                X                 Y                 Z
Electronic contribution:    -27.338351972      -5.395580270      -1.058159729
Nuclear contribution   :     27.219105493       6.024077777       1.175343968
                        -----------------------------------------
Total Dipole Moment    :     -0.119246479       0.628497507       0.117184239
                        -----------------------------------------
Magnitude (a.u.)       :      0.650354507
Magnitude (Debye)      :      1.653069786



--------------------
Rotational spectrum 
--------------------
 
Rotational constants in cm-1:             0.042096             0.010083             0.008706 
Rotational constants in MHz :          1262.005074           302.273052           260.996222 

Dipole components along the rotational axes: 
x,y,z [a.u.] :    -0.159374     0.622707    -0.098981 
x,y,z [Debye]:    -0.405098     1.582794    -0.251591 

 

Dipole moment calculation done in   0.0 sec 

Maximum memory used throughout the entire PROP-calculation: 12.4 MB

--------------------------------
SUGGESTED CITATIONS FOR THIS RUN
--------------------------------

Below you find a list of papers that are relevant to this ORCA run
We neither can nor want to force you to cite these papers, but we appreciate if you do
You receive ORCA, which is the product of decades of hard work by many enthusiastic individuals, for free
The only thing we kindly ask in return is that you cite our papers,
We deeply appreciate it, if you show your appreciation for ORCA by not just citing the generic ORCA reference.

Please note that relegating all ORCA citations to the supporting information does *not* help us.
SI sections are not indexed - citations you put there will not count into any citation statistics
But we need these citations in order to attract the funding resources that allow us to do what we are doing

Therefore, if you are a happy ORCA user, please consider citing a few of the papers listed below in the main body of your paper

In addition to the list printed below, the program has created the file sp.bibtex that contains the list in bibtex format
You can import this file easily into all common literature databanks and citation aid programs


List of essential papers. We consider these as the minimum necessary citations

  1. Neese,F.
     Software update: the ORCA program system, version 5.0
     WIRES Comput. Molec. Sci., 2022 12(1)e1606
     doi.org/10.1002/wcms.1606

List of papers to cite with high priority. The work reported in these papers was absolutely
necessary for this run to complete.
Our perspective: the developers of density functionals and basis sets usually get cited in chemistry papers
Good! But without the algorithms to do something with them, the functionals or basis sets would not do anything.
Hence, in our opinion, the algorithm design and method developments papers are equally worthy of getting cited

  1. Neese,F.
     An improvement of the resolution of the identity approximation for the formation of the Coulomb matrix
     J. Comp. Chem., 2003 24(14)1740-1747
     doi.org/10.1002/jcc.10318
  2. Neese,F.
     The SHARK Integral Generation and Digestion System
     J. Comp. Chem., 2022  1-16
     doi.org/10.1002/jcc.26942
  3. Caldeweyher,E.; Bannwarth,C.; Grimme,S.
     Extension of the D3 dispersion coefficient model
     J. Chem. Phys., 2017 147 034112-XXXX
     doi.org/10.1063/1.4993215
  4. Caldeweyher,E.; Ehlert,S.; Hansen,A.; Neugebauer,H.; Spicher,S.; Bannwarth,C.; Grimme,S.
     A generally applicable atomic-charge dependent London dispersion correction
     J. Chem. Phys., 2019 150 154122-XXXX
     doi.org/10.1063/1.5090222
  5. Caldeweyher,E.; Mewes,J.; Ehlert,S.; Grimme,S.
     Extension and evaluation of the D4 London-dispersion model for periodic systems
     Phys. Chem. Chem. Phys., 2020 22(16)8499-8512
     doi.org/10.1039/D0CP00502A

List of suggested additional citations. These are papers that are important in the 'surrounding' of 
of this run, or papers that preceded the highly important papers. If you like your results we are grateful for a citation.

  1. Neese,F.
     The ORCA program system
     WIRES Comput. Molec. Sci., 2012 2(1)73-78
     doi.org/10.1002/wcms.81
  2. Neese,F.
     Software update: the ORCA program system, version 4.0
     WIRES Comput. Molec. Sci., 2018 8(1)1-6
     doi.org/10.1002/wcms.1327
  3. Neese,F.; Wennmohs,F.; Becker,U.; Riplinger,C.
     The ORCA quantum chemistry program package
     J. Chem. Phys., 2020 152 Art. No. L224108
     doi.org/10.1063/5.0004608

List of optional additional citations

  1. Neese,F.
     Approximate second-order SCF convergence for spin unrestricted wavefunctions
     Chem. Phys. Lett., 2000 325(1-3)93-98
     doi.org/10.1016/s0009-2614(00)00662-x

Timings for individual modules:

Sum of individual times          ...       16.797 sec (=   0.280 min)
Startup calculation              ...        1.220 sec (=   0.020 min)   7.3 %
SCF iterations                   ...       15.477 sec (=   0.258 min)  92.1 %
Property calculations            ...        0.101 sec (=   0.002 min)   0.6 %
                             ****ORCA TERMINATED NORMALLY****
TOTAL RUN TIME: 0 days 0 hours 0 minutes 17 seconds 641 msec
