      -----------------------------------------------------------      
     |                   =====================                   |     
     |                           x T B                           |     
     |                   =====================                   |     
     |                         S. Grimme                         |     
     |          Mulliken Center for Theoretical Chemistry        |     
     |                    University of Bonn                     |     
      -----------------------------------------------------------      

   * xtb version 6.7.1 (edcfbbe) compiled by 'albert@albert-system' on 2024-07-22

   xtb is free software: you can redistribute it and/or modify it under
   the terms of the GNU Lesser General Public License as published by
   the Free Software Foundation, either version 3 of the License, or
   (at your option) any later version.
   
   xtb is distributed in the hope that it will be useful,
   but WITHOUT ANY WARRANTY; without even the implied warranty of
   MERCHANTABILITY or FITNESS FOR A PARTICULAR PURPOSE.  See the
   GNU Lesser General Public License for more details.
   
   Cite this work as:
   * C. Bannwarth, E. Caldeweyher, S. Ehlert, A. Hansen, P. Pracht,
     J. Seibert, S. Spicher, S. Grimme, WIREs Comput. Mol. Sci., 2020, 11,
     e01493. DOI: 10.1002/wcms.1493
   
   for GFN2-xTB:
   * C. Bannwarth, S. Ehlert and S. Grimme., J. Chem. Theory Comput., 2019,
     15, 1652-1671. DOI: 10.1021/acs.jctc.8b01176
   for GFN1-xTB:
   * S. Grimme, C. Bannwarth, P. Shushkov, J. Chem. Theory Comput., 2017,
     13, 1989-2009. DOI: 10.1021/acs.jctc.7b00118
   for GFN0-xTB:
   * P. Pracht, E. Caldeweyher, S. Ehlert, S. Grimme, ChemRxiv, 2019, preprint.
     DOI: 10.26434/chemrxiv.8326202.v1
   for GFN-FF:
   * S. Spicher and S. Grimme, Angew. Chem. Int. Ed., 2020, 59, 15665-15673.
     DOI: 10.1002/anie.202004239
   
   for ALPB and GBSA implicit solvation:
   * S. Ehlert, M. Stahn, S. Spicher, S. Grimme, J. Chem. Theory Comput.,
     2021, 17, 4250-4261. DOI: 10.1021/acs.jctc.1c00471
   
   for ddCOSMO and CPCM-X implicit solvation:
   * M. Stahn, S. Ehlert, S. Grimme, J. Phys. Chem. A,
     2023, XX, XXXX-XXXX. DOI: 10.1021/acs.jpca.3c04382
   
   for DFT-D4:
   * E. Caldeweyher, C. Bannwarth and S. Grimme, J. Chem. Phys., 2017,
     147, 034112. DOI: 10.1063/1.4993215
   * E. Caldeweyher, S. Ehlert, A. Hansen, H. Neugebauer, S. Spicher,
     C. Bannwarth and S. Grimme, J. Chem. Phys., 2019, 150, 154122.
     DOI: 10.1063/1.5090222
   * E. Caldeweyher, J.-M. Mewes, S. Ehlert and S. Grimme, Phys. Chem. Chem. Phys.
     2020, 22, 8499-8512. DOI: 10.1039/D0CP00502A
   
   for sTDA-xTB:
   * S. Grimme and C. Bannwarth, J. Chem. Phys., 2016, 145, 054103.
     DOI: 10.1063/1.4959605
   
   in the mass-spec context:
   * V. Asgeirsson, C. Bauer and S. Grimme, Chem. Sci., 2017, 8, 4879.
     DOI: 10.1039/c7sc00601b
   * J. Koopman and S. Grimme, ACS Omega 2019, 4, 12, 15120-15133.
     DOI: 10.1021/acsomega.9b02011
   
   for metadynamics refer to:
   * S. Grimme, J. Chem. Theory Comput., 2019, 155, 2847-2862
     DOI: 10.1021/acs.jctc.9b00143
   
   for SPH calculations refer to:
   * S. Spicher and S. Grimme, J. Chem. Theory Comput., 2021, 17, 1701-1714
     DOI: 10.1021/acs.jctc.0c01306
   
   for ONIOM refer to:
   * C. Plett, A. Katbashev, S. Ehlert, S. Grimme, M. Bursch,
     Phys. Chem. Chem. Phys., 2023, 25, 17860-17868. DOI: 10.1039/D3CP02178E
   
   for DIPRO refer to:
   * J. Kohn, N. Gildemeister, S. Grimme, D. Fazzi, A. Hansen,
     J. Chem. Phys., 2023, just accepted.
   
   for PTB refer to:
   * S. Grimme, M. Mueller, A. Hansen, J. Chem. Phys., 2023, 158, 124111.
     DOI: 10.1063/5.0137838
   
   with help from (in alphabetical order)
   P. Atkinson, C. Bannwarth, F. Bohle, G. Brandenburg, E. Caldeweyher
   M. Checinski, S. Dohm, S. Ehlert, S. Ehrlich, I. Gerasimov, C. Hölzer
   A. Katbashev, J. Kohn, J. Koopman, C. Lavigne, S. Lehtola, F. März, M. Müller,
   F. Musil, H. Neugebauer, J. Pisarek, C. Plett, P. Pracht, F. Pultar,
   J. Seibert, P. Shushkov, S. Spicher, M. Stahn, M. Steiner, T. Strunk,
   J. Stückrath, T. Rose, and J. Unsleber
   
 * started run on 2025/04/11 at 11:49:16.797     
   ID    Z sym.   atoms
    1    6 C      1, 3, 4
    2    8 O      2
    3   17 Cl     5, 6
    4    9 F      7, 8
    5    1 H      9-12

           -------------------------------------------------
          |                Calculation Setup                |
           -------------------------------------------------

          program call               : /srv/scratch/z5358697/.xtb/bin/xtb gas.coord --gfn2 --sp --chrg 0 --norestart --parallel 1
          hostname                   : k121
          coordinate file            : gas.coord
          omp threads                :                     1


           -------------------------------------------------
          |                 G F N 2 - x T B                 |
           -------------------------------------------------

        Reference                      10.1021/acs.jctc.8b01176
      * Hamiltonian:
        H0-scaling (s, p, d)           1.850000    2.230000    2.230000
        zeta-weighting                 0.500000
      * Dispersion:
        s8                             2.700000
        a1                             0.520000
        a2                             5.000000
        s9                             5.000000
      * Repulsion:
        kExp                           1.500000    1.000000
        rExp                           1.000000
      * Coulomb:
        alpha                          2.000000
        third order                    shell-resolved
        anisotropic                    true
        a3                             3.000000
        a5                             4.000000
        cn-shift                       1.200000
        cn-exp                         4.000000
        max-rad                        5.000000


          ...................................................
          :                      SETUP                      :
          :.................................................:
          :  # basis functions                  48          :
          :  # atomic orbitals                  46          :
          :  # shells                           22          :
          :  # electrons                        50          :
          :  max. iterations                   250          :
          :  Hamiltonian                  GFN2-xTB          :
          :  restarted?                      false          :
          :  GBSA solvation                  false          :
          :  PC potential                    false          :
          :  electronic temp.          300.0000000     K    :
          :  accuracy                    1.0000000          :
          :  -> integral cutoff          0.2500000E+02      :
          :  -> integral neglect         0.1000000E-07      :
          :  -> SCF convergence          0.1000000E-05 Eh   :
          :  -> wf. convergence          0.1000000E-03 e    :
          :  Broyden damping             0.4000000          :
          :  net charge                          0          :
          :  unpaired electrons                  0          :
          ...................................................

 iter      E             dE          RMSdq      gap      omega  full diag
   1    -31.1401327 -0.311401E+02  0.523E+00    6.10       0.0  T
   2    -31.2076684 -0.675357E-01  0.303E+00    5.84       1.0  T
   3    -31.2108266 -0.315821E-02  0.145E+00    6.00       1.0  T
   4    -31.2129805 -0.215387E-02  0.224E-01    5.88       1.0  T
   5    -31.2132390 -0.258494E-03  0.100E-01    5.92       1.0  T
   6    -31.2132521 -0.131295E-04  0.572E-02    5.91       1.0  T
   7    -31.2132587 -0.663123E-05  0.325E-02    5.91       1.0  T
   8    -31.2132620 -0.325168E-05  0.166E-02    5.91       1.7  T
   9    -31.2132631 -0.112387E-05  0.511E-03    5.91       5.6  T
  10    -31.2132632 -0.859742E-07  0.340E-03    5.91       8.5  T
  11    -31.2132632 -0.448270E-07  0.251E-03    5.91      11.5  T
  12    -31.2132633 -0.513591E-07  0.120E-03    5.91      24.1  T
  13    -31.2132633 -0.102865E-07  0.562E-04    5.91      51.4  T
  14    -31.2132633 -0.152200E-08  0.342E-04    5.91      84.4  T

   *** convergence criteria satisfied after 14 iterations ***

         #    Occupation            Energy/Eh            Energy/eV
      -------------------------------------------------------------
         1        2.0000           -1.0955949             -29.8127
       ...           ...                  ...                  ...
        19        2.0000           -0.5268897             -14.3374
        20        2.0000           -0.5045987             -13.7308
        21        2.0000           -0.4788603             -13.0305
        22        2.0000           -0.4669342             -12.7059
        23        2.0000           -0.4656579             -12.6712
        24        2.0000           -0.4580003             -12.4628
        25        2.0000           -0.4479934             -12.1905 (HOMO)
        26                         -0.2308687              -6.2823 (LUMO)
        27                         -0.1941235              -5.2824
        28                         -0.0598338              -1.6282
        29                         -0.0510092              -1.3880
        30                         -0.0348354              -0.9479
       ...                                ...                  ...
        46                          0.2745660               7.4713
      -------------------------------------------------------------
                  HL-Gap            0.2171247 Eh            5.9083 eV
             Fermi-level           -0.3394310 Eh           -9.2364 eV

 SCC (total)                   0 d,  0 h,  0 min,  0.024 sec
 SCC setup                      ...        0 min,  0.000 sec (  0.731%)
 Dispersion                     ...        0 min,  0.000 sec (  0.165%)
 classical contributions        ...        0 min,  0.000 sec (  0.050%)
 integral evaluation            ...        0 min,  0.014 sec ( 57.718%)
 iterations                     ...        0 min,  0.006 sec ( 25.016%)
 molecular gradient             ...        0 min,  0.004 sec ( 15.790%)
 printout                       ...        0 min,  0.000 sec (  0.478%)

         :::::::::::::::::::::::::::::::::::::::::::::::::::::
         ::                     SUMMARY                     ::
         :::::::::::::::::::::::::::::::::::::::::::::::::::::
         :: total energy             -31.089502333442 Eh    ::
         :: gradient norm              0.017783112984 Eh/a0 ::
         :: HOMO-LUMO gap              5.908264538894 eV    ::
         ::.................................................::
         :: SCC energy               -31.213246148423 Eh    ::
         :: -> isotropic ES            0.055227379615 Eh    ::
         :: -> anisotropic ES         -0.000696247900 Eh    ::
         :: -> anisotropic XC         -0.010486870037 Eh    ::
         :: -> dispersion             -0.009858932434 Eh    ::
         :: repulsion energy           0.123743814980 Eh    ::
         :: add. restraining           0.000000000000 Eh    ::
         :: total charge              -0.000000000000 e     ::
         :::::::::::::::::::::::::::::::::::::::::::::::::::::

           -------------------------------------------------
          |                Property Printout                |
           -------------------------------------------------

    * Orbital Energies and Occupations

         #    Occupation            Energy/Eh            Energy/eV
      -------------------------------------------------------------
         1        2.0000           -1.0955949             -29.8127
       ...           ...                  ...                  ...
        13        2.0000           -0.5676885             -15.4476
        14        2.0000           -0.5638284             -15.3426
        15        2.0000           -0.5558885             -15.1265
        16        2.0000           -0.5411944             -14.7266
        17        2.0000           -0.5400282             -14.6949
        18        2.0000           -0.5331633             -14.5081
        19        2.0000           -0.5268897             -14.3374
        20        2.0000           -0.5045987             -13.7308
        21        2.0000           -0.4788603             -13.0305
        22        2.0000           -0.4669342             -12.7059
        23        2.0000           -0.4656579             -12.6712
        24        2.0000           -0.4580003             -12.4628
        25        2.0000           -0.4479934             -12.1905 (HOMO)
        26                         -0.2308687              -6.2823 (LUMO)
        27                         -0.1941235              -5.2824
        28                         -0.0598338              -1.6282
        29                         -0.0510092              -1.3880
        30                         -0.0348354              -0.9479
        31                         -0.0262314              -0.7138
        32                         -0.0240805              -0.6553
        33                         -0.0240154              -0.6535
        34                         -0.0234155              -0.6372
        35                         -0.0215353              -0.5860
        36                         -0.0212960              -0.5795
       ...                                ...                  ...
        46                          0.2745660               7.4713
      -------------------------------------------------------------
                  HL-Gap            0.2171247 Eh            5.9083 eV
             Fermi-level           -0.3394310 Eh           -9.2364 eV

     #   Z          covCN         q      C6AA      α(0)
     1   6 C        3.642     0.019    20.603     6.526
     2   8 O        1.702    -0.274    18.539     5.813
     3   6 C        3.478     0.463    15.533     5.894
     4   6 C        3.678     0.100    19.131     6.266
     5  17 Cl       1.038    -0.110   102.601    15.497
     6  17 Cl       1.055    -0.110   102.601    15.497
     7   9 F        0.790    -0.205    11.284     3.968
     8   9 F        0.787    -0.236    11.612     4.025
     9   1 H        0.925     0.074     2.042     2.235
    10   1 H        0.925     0.073     2.057     2.243
    11   1 H        0.925     0.097     1.813     2.105
    12   1 H        0.924     0.108     1.712     2.046

 Mol. C6AA /au·bohr⁶  :       2448.971798
 Mol. C8AA /au·bohr⁸  :      70513.413566
 Mol. α(0) /au        :         72.115504


Wiberg/Mayer (AO) data.
largest (>0.10) Wiberg bond orders for each atom

 ---------------------------------------------------------------------------
     #   Z sym  total        # sym  WBO       # sym  WBO       # sym  WBO
 ---------------------------------------------------------------------------
     1   6 C    3.897 --     9 H    0.981    10 H    0.979    11 H    0.978
                             2 O    0.927
     2   8 O    2.160 --     3 C    1.077     1 C    0.927
     3   6 C    3.887 --     2 O    1.077     7 F    0.935     4 C    0.930
                             8 F    0.899
     4   6 C    3.936 --     6 Cl   0.981     5 Cl   0.981    12 H    0.963
                             3 C    0.930
     5  17 Cl   1.071 --     4 C    0.981
     6  17 Cl   1.069 --     4 C    0.981
     7   9 F    1.063 --     3 C    0.935
     8   9 F    1.037 --     3 C    0.899
     9   1 H    0.995 --     1 C    0.981
    10   1 H    0.995 --     1 C    0.979
    11   1 H    0.991 --     1 C    0.978
    12   1 H    0.988 --     4 C    0.963
 ---------------------------------------------------------------------------

Topologies differ in total number of bonds
Writing topology from bond orders to xtbtopo.mol

molecular dipole:
                 x           y           z       tot (Debye)
 q only:        0.164       0.278       0.767
   full:        0.351       0.287       0.676       2.069
molecular quadrupole (traceless):
                xx          xy          yy          xz          yz          zz
 q only:       -1.074      -1.436      -3.465      -7.214       1.632       4.539
  q+dip:        0.265      -1.853      -4.156      -8.289       0.604       3.891
   full:       -0.932      -1.852      -3.014      -7.803       1.019       3.947


           -------------------------------------------------
          | TOTAL ENERGY              -31.089502333442 Eh   |
          | GRADIENT NORM               0.017783112984 Eh/α |
          | HOMO-LUMO GAP               5.908264538894 eV   |
           -------------------------------------------------

------------------------------------------------------------------------
 * finished run on 2025/04/11 at 11:49:16.847     
------------------------------------------------------------------------
 total:
 * wall-time:     0 d,  0 h,  0 min,  0.050 sec
 *  cpu-time:     0 d,  0 h,  0 min,  0.020 sec
 * ratio c/w:     0.393 speedup
 SCF:
 * wall-time:     0 d,  0 h,  0 min,  0.024 sec
 *  cpu-time:     0 d,  0 h,  0 min,  0.013 sec
 * ratio c/w:     0.530 speedup

