      -----------------------------------------------------------      
     |                   =====================                   |     
     |                           x T B                           |     
     |                   =====================                   |     
     |                         S. Grimme                         |     
     |          Mulliken Center for Theoretical Chemistry        |     
     |                    University of Bonn                     |     
      -----------------------------------------------------------      

   * xtb version 6.7.1 (edcfbbe) compiled by 'albert@albert-system' on 2024-07-22

   xtb is free software: you can redistribute it and/or modify it under
   the terms of the GNU Lesser General Public License as published by
   the Free Software Foundation, either version 3 of the License, or
   (at your option) any later version.
   
   xtb is distributed in the hope that it will be useful,
   but WITHOUT ANY WARRANTY; without even the implied warranty of
   MERCHANTABILITY or FITNESS FOR A PARTICULAR PURPOSE.  See the
   GNU Lesser General Public License for more details.
   
   Cite this work as:
   * C. Bannwarth, E. Caldeweyher, S. Ehlert, A. Hansen, P. Pracht,
     J. Seibert, S. Spicher, S. Grimme, WIREs Comput. Mol. Sci., 2020, 11,
     e01493. DOI: 10.1002/wcms.1493
   
   for GFN2-xTB:
   * C. Bannwarth, S. Ehlert and S. Grimme., J. Chem. Theory Comput., 2019,
     15, 1652-1671. DOI: 10.1021/acs.jctc.8b01176
   for GFN1-xTB:
   * S. Grimme, C. Bannwarth, P. Shushkov, J. Chem. Theory Comput., 2017,
     13, 1989-2009. DOI: 10.1021/acs.jctc.7b00118
   for GFN0-xTB:
   * P. Pracht, E. Caldeweyher, S. Ehlert, S. Grimme, ChemRxiv, 2019, preprint.
     DOI: 10.26434/chemrxiv.8326202.v1
   for GFN-FF:
   * S. Spicher and S. Grimme, Angew. Chem. Int. Ed., 2020, 59, 15665-15673.
     DOI: 10.1002/anie.202004239
   
   for ALPB and GBSA implicit solvation:
   * S. Ehlert, M. Stahn, S. Spicher, S. Grimme, J. Chem. Theory Comput.,
     2021, 17, 4250-4261. DOI: 10.1021/acs.jctc.1c00471
   
   for ddCOSMO and CPCM-X implicit solvation:
   * M. Stahn, S. Ehlert, S. Grimme, J. Phys. Chem. A,
     2023, XX, XXXX-XXXX. DOI: 10.1021/acs.jpca.3c04382
   
   for DFT-D4:
   * E. Caldeweyher, C. Bannwarth and S. Grimme, J. Chem. Phys., 2017,
     147, 034112. DOI: 10.1063/1.4993215
   * E. Caldeweyher, S. Ehlert, A. Hansen, H. Neugebauer, S. Spicher,
     C. Bannwarth and S. Grimme, J. Chem. Phys., 2019, 150, 154122.
     DOI: 10.1063/1.5090222
   * E. Caldeweyher, J.-M. Mewes, S. Ehlert and S. Grimme, Phys. Chem. Chem. Phys.
     2020, 22, 8499-8512. DOI: 10.1039/D0CP00502A
   
   for sTDA-xTB:
   * S. Grimme and C. Bannwarth, J. Chem. Phys., 2016, 145, 054103.
     DOI: 10.1063/1.4959605
   
   in the mass-spec context:
   * V. Asgeirsson, C. Bauer and S. Grimme, Chem. Sci., 2017, 8, 4879.
     DOI: 10.1039/c7sc00601b
   * J. Koopman and S. Grimme, ACS Omega 2019, 4, 12, 15120-15133.
     DOI: 10.1021/acsomega.9b02011
   
   for metadynamics refer to:
   * S. Grimme, J. Chem. Theory Comput., 2019, 155, 2847-2862
     DOI: 10.1021/acs.jctc.9b00143
   
   for SPH calculations refer to:
   * S. Spicher and S. Grimme, J. Chem. Theory Comput., 2021, 17, 1701-1714
     DOI: 10.1021/acs.jctc.0c01306
   
   for ONIOM refer to:
   * C. Plett, A. Katbashev, S. Ehlert, S. Grimme, M. Bursch,
     Phys. Chem. Chem. Phys., 2023, 25, 17860-17868. DOI: 10.1039/D3CP02178E
   
   for DIPRO refer to:
   * J. Kohn, N. Gildemeister, S. Grimme, D. Fazzi, A. Hansen,
     J. Chem. Phys., 2023, just accepted.
   
   for PTB refer to:
   * S. Grimme, M. Mueller, A. Hansen, J. Chem. Phys., 2023, 158, 124111.
     DOI: 10.1063/5.0137838
   
   with help from (in alphabetical order)
   P. Atkinson, C. Bannwarth, F. Bohle, G. Brandenburg, E. Caldeweyher
   M. Checinski, S. Dohm, S. Ehlert, S. Ehrlich, I. Gerasimov, C. Hölzer
   A. Katbashev, J. Kohn, J. Koopman, C. Lavigne, S. Lehtola, F. März, M. Müller,
   F. Musil, H. Neugebauer, J. Pisarek, C. Plett, P. Pracht, F. Pultar,
   J. Seibert, P. Shushkov, S. Spicher, M. Stahn, M. Steiner, T. Strunk,
   J. Stückrath, T. Rose, and J. Unsleber
   
 * started run on 2025/04/11 at 11:57:23.825     
   ID    Z sym.   atoms
    1    6 C      1-9
    2    1 H      10-21

           -------------------------------------------------
          |                Calculation Setup                |
           -------------------------------------------------

          program call               : /srv/scratch/z5358697/.xtb/bin/xtb xtb_opt.coord --opt normal --orca -I xtb_opt-xcontrol-inp
          hostname                   : k138
          coordinate file            : xtb_opt.coord
          omp threads                :                     4

           -------------------------------------------------
          |                   Orca driver                   |
           -------------------------------------------------
orca executable           : /apps/z_install_tree/linux-rocky8-ivybridge/gcc-12.2.0/orca-6.0.0-srtngmq3qlimg2qxbl6avaaiffipurdx/bin/orca
orca input file           : xtb_opt.inp
orca input line           : 
orca parallel             : true
orca number of threads    : 4
                         * ORCA takes the control...
  ------------------------------------------------------------------------

                                 *****************
                                 * O   R   C   A *
                                 *****************

                                            #,                                       
                                            ###                                      
                                            ####                                     
                                            #####                                    
                                            ######                                   
                                           ########,                                 
                                     ,,################,,,,,                         
                               ,,#################################,,                 
                          ,,##########################################,,             
                       ,#########################################, ''#####,          
                    ,#############################################,,   '####,        
                  ,##################################################,,,,####,       
                ,###########''''           ''''###############################       
              ,#####''   ,,,,##########,,,,          '''####'''          '####       
            ,##' ,,,,###########################,,,                        '##       
           ' ,,###''''                  '''############,,,                           
         ,,##''                                '''############,,,,        ,,,,,,###''
      ,#''                                            '''#######################'''  
     '                                                          ''''####''''         
             ,#######,   #######,   ,#######,      ##                                
            ,#'     '#,  ##    ##  ,#'     '#,    #''#        ,####,   ,####,        
            ##       ##  ##   ,#'  ##            #'  '#       #'       #'  '#        
            ##       ##  #######   ##           ,######,      #####,   #    #        
            '#,     ,#'  ##    ##  '#,     ,#' ,#      #,     #,   #   #,  ,#        
             '#######'   ##     ##  '#######'  #'      '#     '####' # '####'        



                #########################################################
                #                        -***-                          #
                #          Department of theory and spectroscopy        #
                #                                                       #
                #                      Frank Neese                      #
                #                                                       #
                #     Directorship, Architecture, Infrastructure        #
                #                    SHARK, DRIVERS                     #
                #        Core code/Algorithms in most modules           #
                #                                                       #
                #        Max Planck Institute fuer Kohlenforschung      #
                #                Kaiser Wilhelm Platz 1                 #
                #                 D-45470 Muelheim/Ruhr                 #
                #                      Germany                          #
                #                                                       #
                #                  All rights reserved                  #
                #                        -***-                          #
                #########################################################


                         Program Version 6.0.0  -   RELEASE  -


 With contributions from (in alphabetic order):
   Daniel Aravena         : Magnetic Suceptibility
   Michael Atanasov       : Ab Initio Ligand Field Theory (pilot matlab implementation)
   Alexander A. Auer      : GIAO ZORA, VPT2 properties, NMR spectrum
   Ute Becker             : All parallelization in ORCA, NUMFREQ, NUMCALC
   Giovanni Bistoni       : ED, misc. LED, open-shell LED, HFLD
   Martin Brehm           : Molecular dynamics
   Dmytro Bykov           : pre 5.0 version of the SCF Hessian
   Marcos Casanova-Páez   : Triplet and SCS-CIS(D). UHF-(DLPNO)-IP/EA/STEOM-CCSD. UHF-CVS-IP/STEOM-CCSD
   Vijay G. Chilkuri      : MRCI spin determinant printing, contributions to CSF-ICE
   Pauline Colinet        : FMM embedding
   Dipayan Datta          : RHF DLPNO-CCSD density
   Achintya Kumar Dutta   : EOM-CC, STEOM-CC
   Nicolas Foglia         : Exact transition moments, OPA infrastructure, MCD improvements
   Dmitry Ganyushin       : Spin-Orbit,Spin-Spin,Magnetic field MRCI
   Miquel Garcia          : C-PCM and meta-GGA Hessian, CCSD/C-PCM, Gaussian charge scheme
   Tiago L. C. Gouveia    : GS-ROHF, GS-ROCIS
   Yang Guo               : DLPNO-NEVPT2, F12-NEVPT2, CIM, IAO-localization
   Andreas Hansen         : Spin unrestricted coupled pair/coupled cluster methods
   Ingolf Harden          : AUTO-CI MPn and infrastructure 
   Benjamin Helmich-Paris : MC-RPA, TRAH-(SCF,CASSCF), AVAS, COSX integrals, SCF dyn. polar.
   Lee Huntington         : MR-EOM, pCC
   Robert Izsak           : Overlap fitted RIJCOSX, COSX-SCS-MP3, EOM
   Riya Kayal             : Wick's Theorem for AUTO-CI, AUTO-CI UHF-CCSDT
   Emily Kempfer          : AUTO-CI, RHF CISDT and CCSDT
   Christian Kollmar      : KDIIS, OOCD, Brueckner-CCSD(T), CCSD density, CASPT2, CASPT2-K, improved NEVPT2
   Axel Koslowski         : Symmetry handling
   Simone Kossmann        : Meta GGA functionals, TD-DFT gradient, OOMP2, (MP2 Hessian; deprecated post 5.0)
   Lucas Lang             : DCDCAS
   Marvin Lechner         : AUTO-CI (C++ implementation), FIC-MRCC
   Spencer Leger          : CASSCF response
   Dagmar Lenk            : GEPOL surface, SMD, ORCA-2-JSON
   Dimitrios Liakos       : Extrapolation schemes; Compound Job, initial MDCI parallelization
   Dimitrios Manganas     : Further ROCIS development; embedding schemes. LFT, Crystal Embedding
   Dimitrios Pantazis     : SARC Basis sets
   Anastasios Papadopoulos: AUTO-CI, single reference methods and gradients
   Taras Petrenko         : pre 6.0 DFT Hessian and TD-DFT gradient, (ASA, deprecated), ECA, 1-Electron XAS/XES, NRVS
   Peter Pinski           : DLPNO-MP2, DLPNO-MP2 Gradient
   Christoph Reimann      : Effective Core Potentials
   Marius Retegan         : Local ZFS, SOC
   Christoph Riplinger    : Optimizer, TS searches, QM/MM, DLPNO-CCSD(T), (RO)-DLPNO pert. Triples
   Michael Roemelt        : Original ROCIS implementation
   Masaaki Saitow         : Open-shell DLPNO-CCSD energy and density
   Barbara Sandhoefer     : DKH picture change effects
   Kantharuban Sivalingam : CASSCF convergence/infrastructure, NEVPT2 and variants, FIC-MRCI
   Bernardo de Souza      : ESD, SOC TD-DFT
   Georgi Stoychev        : AutoAux, RI-MP2 NMR, DLPNO-MP2 response, X2C
   Van Anh Tran           : RI-MP2 g-tensors
   Willem Van den Heuvel  : Paramagnetic NMR
   Zikuan Wang            : NOTCH, Electric field optimization 
   Frank Wennmohs         : Technical directorship and infrastructure
   Hang Xu                : AUTO-CI-Response properties 


 We gratefully acknowledge several colleagues who have allowed us to
 interface, adapt or use parts of their codes:
   Stefan Grimme, W. Hujo, H. Kruse, P. Pracht,  : VdW corrections, initial TS optimization,
                  C. Bannwarth, S. Ehlert,         DFT functionals, gCP, sTDA/sTD-DF
                  L. Wittmann, M. Mueller
   Ed Valeev, F. Pavosevic, A. Kumar             : LibInt (2-el integral package), F12 methods
   Garnet Chan, S. Sharma, J. Yang, R. Olivares  : DMRG
   Ulf Ekstrom                                   : XCFun DFT Library
   Mihaly Kallay                                 : mrcc  (arbitrary order and MRCC methods)
   Frank Weinhold                                : gennbo (NPA and NBO analysis)
   Simon Mueller                                 : openCOSMO-RS
   Christopher J. Cramer and Donald G. Truhlar   : smd solvation model
   Lars Goerigk                                  : TD-DFT with DH, B97 family of functionals
   V. Asgeirsson, H. Jonsson                     : NEB implementation
   FAccTs GmbH                                   : IRC, NEB, NEB-TS, DLPNO-Multilevel, CI-OPT
                                                   MM, QMMM, 2- and 3-layer-ONIOM, Crystal-QMMM,
                                                   LR-CPCM, SF, NACMEs, symmetry and pop. for TD-DFT,
                                                   nearIR, NL-DFT gradient (VV10), updates on ESD,
                                                   ML-optimized integration grids, MBIS, APM,
                                                   GOAT, DOCKER, SOLVATOR, interface openCOSMO-RS
   S Lehtola, MJT Oliveira, MAL Marques          : LibXC Library
   Liviu Ungur et al                             : ANISO software


 Your calculation uses the libint2 library for the computation of 2-el integrals
 For citations please refer to: http://libint.valeyev.net

 Your ORCA version has been built with support for libXC version: 6.2.2
 For citations please refer to: https://libxc.gitlab.io

 This ORCA versions uses:
   CBLAS   interface :  Fast vector & matrix operations
   LAPACKE interface :  Fast linear algebra routines
   SCALAPACK package :  Parallel linear algebra routines
   Shared memory     :  Shared parallel matrices
   BLAS/LAPACK       :  OpenBLAS 0.3.27  USE64BITINT DYNAMIC_ARCH NO_AFFINITY SkylakeX SINGLE_THREADED
        Core in use  :  SkylakeX
   Copyright (c) 2011-2014, The OpenBLAS Project




***************************************
The coordinates will be read from file: xtb_opt.xyz
***************************************


Your calculation utilizes the geometrical counterpoise correction gCP
Please cite in your paper:
H.Kruse, S. Grimme J.Chem.Phys., 136, (2012), 154101 
   

Your calculation utilizes the atom-pairwise dispersion correction
based on EEQ partial charges (D4)


Your calculation utilizes the SMD solvation module
Please cite in your paper:
A.V. Marenich, C.J. Cramer, D.G. Truhlar J. Phys. Chem. B, 113, (2009), 6378 

================================================================================

----- Orbital basis set information -----
Your calculation utilizes the basis: def2-mTZVPP
   Stefan Grimme, Andreas Hansen, Sebastian Ehlert, and Jan-Michael Mewes 
   J. Chem. Phys. 154, 064103 (2021). DOI: 10.1063/5.0040021

----- AuxJ basis set information -----
Your calculation utilizes the auxiliary basis: def2/J
   F. Weigend, Phys. Chem. Chem. Phys. 8, 1057 (2006).

================================================================================
                                        WARNINGS
                       Please study these warnings very carefully!
================================================================================

Using LibXC functional ID 497 : Re-regularized SCAN exchange by Furness et al
[ 1]  J. W. Furness, A. D. Kaplan, J. Ning, J. P. Perdew, and J. Sun.,  J. Phys. Chem. Lett. 11, 8208-8215 (2020)
[ 2]  J. W. Furness, A. D. Kaplan, J. Ning, J. P. Perdew, and J. Sun.,  J. Phys. Chem. Lett. 11, 9248-9248 (2020)
Using LibXC functional ID 498 : Re-regularized SCAN correlation by Furness et al
[ 1]  J. W. Furness, A. D. Kaplan, J. Ning, J. P. Perdew, and J. Sun.,  J. Phys. Chem. Lett. 11, 8208-8215 (2020)
[ 2]  J. W. Furness, A. D. Kaplan, J. Ning, J. P. Perdew, and J. Sun.,  J. Phys. Chem. Lett. 11, 9248-9248 (2020)
Using LibXC functional ID 497 : Re-regularized SCAN exchange by Furness et al
[ 1]  J. W. Furness, A. D. Kaplan, J. Ning, J. P. Perdew, and J. Sun.,  J. Phys. Chem. Lett. 11, 8208-8215 (2020)
[ 2]  J. W. Furness, A. D. Kaplan, J. Ning, J. P. Perdew, and J. Sun.,  J. Phys. Chem. Lett. 11, 9248-9248 (2020)
Using LibXC functional ID 498 : Re-regularized SCAN correlation by Furness et al
[ 1]  J. W. Furness, A. D. Kaplan, J. Ning, J. P. Perdew, and J. Sun.,  J. Phys. Chem. Lett. 11, 8208-8215 (2020)
[ 2]  J. W. Furness, A. D. Kaplan, J. Ning, J. P. Perdew, and J. Sun.,  J. Phys. Chem. Lett. 11, 9248-9248 (2020)

================================================================================
                                       INPUT FILE
================================================================================
NAME = xtb_opt.inp
|  1> ! r2scan-3c def2/J RI DEFGRID2 scfconv7 ENGRAD tightSCF miniprint
|  2> %cpcm
|  3>     smd true
|  4>     smdsolvent "water"
|  5> end
|  6> * xyzfile 0 1 xtb_opt.xyz
|  7> 
|  8>                          ****END OF INPUT****
================================================================================

                     *******************************
                     * Energy+Gradient Calculation *
                     *******************************

---------------------------------
CARTESIAN COORDINATES (ANGSTROEM)
---------------------------------
  C     -3.827925    0.173804   -0.150553
  C     -2.365417    0.582984   -0.287514
  C     -1.436559   -0.580475    0.050577
  C      0.036690   -0.265354    0.053239
  C      0.914390   -1.205298    0.588234
  C      2.277911   -0.981917    0.606966
  C      2.794729    0.194784    0.089743
  C      1.934393    1.136786   -0.443951
  C      0.567745    0.908583   -0.463477
  H     -4.055004   -0.657641   -0.814315
  H     -4.045217   -0.133446    0.870097
  H     -4.481576    1.004509   -0.405008
  H     -2.159906    1.419737    0.383631
  H     -2.184747    0.914586   -1.311799
  H     -1.610278   -1.390583   -0.665257
  H     -1.703650   -0.968702    1.037722
  H      0.517697   -2.124961    0.995150
  H      2.939526   -1.725011    1.027521
  H      3.859324    0.374551    0.103929
  H      2.326919    2.057671   -0.850051
  H     -0.080085    1.659517   -0.887194

----------------------------
CARTESIAN COORDINATES (A.U.)
----------------------------
  NO LB      ZA    FRAG     MASS         X           Y           Z
   0 C     6.0000    0    12.011   -7.233730    0.328442   -0.284504
   1 C     6.0000    0    12.011   -4.469991    1.101680   -0.543322
   2 C     6.0000    0    12.011   -2.714703   -1.096938    0.095578
   3 C     6.0000    0    12.011    0.069335   -0.501446    0.100607
   4 C     6.0000    0    12.011    1.727948   -2.277683    1.111602
   5 C     6.0000    0    12.011    4.304628   -1.855554    1.146999
   6 C     6.0000    0    12.011    5.281273    0.368088    0.169589
   7 C     6.0000    0    12.011    3.655474    2.148214   -0.838945
   8 C     6.0000    0    12.011    1.072882    1.716974   -0.875845
   9 H     1.0000    0     1.008   -7.662848   -1.242762   -1.538832
  10 H     1.0000    0     1.008   -7.644352   -0.252177    1.644246
  11 H     1.0000    0     1.008   -8.468952    1.898247   -0.765355
  12 H     1.0000    0     1.008   -4.081631    2.682914    0.724958
  13 H     1.0000    0     1.008   -4.128573    1.728318   -2.478941
  14 H     1.0000    0     1.008   -3.042984   -2.627820   -1.257153
  15 H     1.0000    0     1.008   -3.219432   -1.830581    1.961010
  16 H     1.0000    0     1.008    0.978305   -4.015594    1.880560
  17 H     1.0000    0     1.008    5.554899   -3.259799    1.941733
  18 H     1.0000    0     1.008    7.293066    0.707798    0.196398
  19 H     1.0000    0     1.008    4.397240    3.888434   -1.606364
  20 H     1.0000    0     1.008   -0.151338    3.136034   -1.676554

------------------------------------------------------------------------------
                   ___                                                        
                  /   \      - P O W E R E D   B Y -                         
                 /     \                                                     
                 |  |  |   _    _      __       _____    __    __             
                 |  |  |  | |  | |    /  \     |  _  \  |  |  /  |          
                  \  \/   | |  | |   /    \    | | | |  |  | /  /          
                 / \  \   | |__| |  /  /\  \   | |_| |  |  |/  /          
                |  |  |   |  __  | /  /__\  \  |    /   |      \           
                |  |  |   | |  | | |   __   |  |    \   |  |\   \          
                \     /   | |  | | |  |  |  |  | |\  \  |  | \   \       
                 \___/    |_|  |_| |__|  |__|  |_| \__\ |__|  \__/        
                                                                              
                      - O R C A' S   B I G   F R I E N D -                    
                                      &                                       
                       - I N T E G R A L  F E E D E R -                       
                                                                              
 v1 FN, 2020, v2 2021, v3 2022-2024                                           
------------------------------------------------------------------------------


----------------------
SHARK INTEGRAL PACKAGE
----------------------

Number of atoms                             ...     21
Number of basis functions                   ...    231
Number of shells                            ...    117
Maximum angular momentum                    ...      2
Integral batch strategy                     ... SHARK/LIBINT Hybrid
RI-J (if used) integral strategy            ... SPLIT-RIJ (Revised 2003 algorithm where possible)
Printlevel                                  ...      1
Contraction scheme used                     ... SEGMENTED contraction
Prescreening option                         ... SCHWARTZ
   Thresh                                   ... 3.000e-11
   Tcut                                     ... 1.000e-12
   Tpresel                                  ... 1.000e-12 
Coulomb Range Separation                    ... NOT USED
Exchange Range Separation                   ... NOT USED
Multipole approximations                    ... NOT USED
Finite Nucleus Model                        ... NOT USED
CABS basis                                  ... NOT available
Auxiliary Coulomb fitting basis             ... AVAILABLE
   # of basis functions in Aux-J            ...    573
   # of shells in Aux-J                     ...    195
   Maximum angular momentum in Aux-J        ...      4
Auxiliary J/K fitting basis                 ... NOT available
Auxiliary Correlation fitting basis         ... NOT available
Auxiliary 'external' fitting basis          ... NOT available

Checking pre-screening integrals            ... done (  0.0 sec) Dimension = 117
Check shell pair data                       ... done (  0.0 sec)
Shell pair information
Shell pair cut-off parameter TPreSel        ...   1.0e-12
Total number of shell pairs                 ...      6903
Shell pairs after pre-screening             ...      5990
Total number of primitive shell pairs       ...     24987
Primitive shell pairs kept                  ...     15316
          la=0 lb=0:   2066 shell pairs
          la=1 lb=0:   2354 shell pairs
          la=1 lb=1:    692 shell pairs
          la=2 lb=0:    534 shell pairs
          la=2 lb=1:    305 shell pairs
          la=2 lb=2:     39 shell pairs

Calculating one electron integrals          ... done (  0.0 sec)
Calculating RI/J V-Matrix + Cholesky decomp.... done (  0.1 sec)
Calculating Nuclear repulsion               ... done (  0.0 sec) ENN=    412.977102421828 Eh

Diagonalization of the overlap matrix:
Smallest eigenvalue                        ... 3.098e-05
Time for diagonalization                   ...    0.004 sec
Threshold for overlap eigenvalues          ... 1.000e-07
Number of eigenvalues below threshold      ... 0
Time for construction of square roots      ...    0.016 sec
Total time needed                          ...    0.032 sec

-------------------
DFT GRID GENERATION
-------------------

General Integration Accuracy     IntAcc      ... 4.388
Radial Grid Type                 RadialGrid  ... OptM3 with GC (2021)
Angular Grid (max. ang.)         AngularGrid ... 4 (Lebedev-302)
Angular grid pruning method      GridPruning ... 4 (adaptive)
Weight generation scheme         WeightScheme... mBecke (2022)
Basis function cutoff            BFCut       ... 1.0000e-11
Integration weight cutoff        WCut        ... 1.0000e-14
Partially contracted basis set               ... off
Rotationally invariant grid construction     ... off
Angular grids for H and He will be reduced by one unit

Total number of grid points                  ...    92429
Total number of batches                      ...     1456
Average number of points per batch           ...       63
Average number of grid points per atom       ...     4401
Initializing property integral containers    ... done (  0.0 sec)

SHARK setup successfully completed in   1.2 seconds

Maximum memory used throughout the entire STARTUP-calculation: 40.3 MB
Occupation numbers will be reassigned to an Aufbau configuration
             **** ENERGY FILE WAS UPDATED (xtb_opt.en.tmp) ****
Finished Guess after   0.3 sec
Maximum memory used throughout the entire GUESS-calculation: 16.0 MB
--------------------
CPCM SOLVATION MODEL
--------------------
CPCM parameters:
  Epsilon                                         ...      78.3550
  Refrac                                          ...       1.3328
  Rsolv                                           ...       1.3000
  Surface type                                    ... GAUSSIAN VDW
  Discretization scheme                           ... Constant charge density
    Threshold for H atoms                         ...       5.0000 (charges/Ang^2)
    Threshold for non-H atoms                     ...       5.0000 (charges/Ang^2)
  Epsilon function type                           ...         CPCM
Solvent:                                          ... WATER
SMD-CDS solvent descriptors:
  Soln                                            ...       1.3328
  Soln25                                          ...       1.3323
  Sola                                            ...       0.0000
  Solb                                            ...       0.0000
  Solg                                            ...       0.0000
  Solc                                            ...       0.0000
  Solh                                            ...       0.0000
Radii:
  Scheme                                          ... Element-dependent radii
  Radius for C  used is    3.4960 Bohr (=   1.8500 Ang.)
  Radius for H  used is    2.2677 Bohr (=   1.2000 Ang.)
Calculating surface                               ...        done! (  0.0s)
Cavity surface points                             ...         1622
Cavity Volume                                     ...     975.9482
Cavity Surface-area                               ...     607.2307
Calculating surface distance matrix               ...        done! (  0.0s)
Performing Cholesky decomposition & store         ...        done! (  0.1s)
Overall time for CPCM initialization              ...                 0.1s

----------------------------------------D-I-I-S--------------------------------------------
Iteration    Energy (Eh)           Delta-E    RMSDP     MaxDP     DIISErr   Damp  Time(sec)
-------------------------------------------------------------------------------------------
               ***  Starting incremental Fock matrix formation  ***
                              *** Initializing SOSCF ***
---------------------------------------S-O-S-C-F--------------------------------------
Iteration    Energy (Eh)           Delta-E    RMSDP     MaxDP     MaxGrad    Time(sec)
--------------------------------------------------------------------------------------
    1    -350.0851395665308701     0.00e+00  3.50e-06  7.76e-05  1.08e-05     3.5
               *** Restarting incremental Fock matrix formation ***
    2    -350.0851395743208059    -7.79e-09  2.42e-06  3.81e-05  1.82e-05     3.4
                  *** Gradient check signals convergence ***

               *****************************************************
               *                     SUCCESS                       *
               *           SCF CONVERGED AFTER   2 CYCLES          *
               *****************************************************


SMD CDS free energy correction energy :                 3.63655     Kcal/mol
Total Energy after SMD CDS correction =              -350.079344357 Eh
             **** ENERGY FILE WAS UPDATED (xtb_opt.en.tmp) ****

----------------
TOTAL SCF ENERGY
----------------

Total Energy       :       -350.07934435744318 Eh           -9526.14326 eV

Components:
Nuclear Repulsion  :        412.97710242182768 Eh           11237.67827 eV
Electronic Energy  :       -763.05416019338793 Eh          -20763.75931 eV
One Electron Energy:      -1289.07975431832710 Eh          -35077.64343 eV
Two Electron Energy:        526.02559412493918 Eh           14313.88412 eV
CPCM Dielectric    :         -0.00808180276054 Eh              -0.21992 eV
SMD CDS (Gcds)     :          0.00579521687762 Eh               0.15770 eV

Virial components:
Potential Energy   :       -698.69557145037129 Eh          -19012.47307 eV
Kinetic Energy     :        348.61622709292817 Eh            9486.32981 eV
Virial Ratio       :          2.00419692817146

DFT components:
N(Alpha)           :       33.000037500785 electrons
N(Beta)            :       33.000037500785 electrons
N(Total)           :       66.000075001571 electrons
E(X)               :      -51.160027052171 Eh       
E(C)               :       -2.085402052998 Eh       
E(XC)              :      -53.245429105169 Eh       

CPCM Solvation Model Properties:
Surface-charge          :         -0.05050818812750
Corrected charge        :          0.00000000000000
Outlying charge corr.   :          0.00018660878225 Eh               0.00508 eV
Free-energy (cav+disp)  :          0.00579521687762 Eh               0.15770 eV

---------------
SCF CONVERGENCE
---------------

  Last Energy change         ...    7.7899e-09  Tolerance :   1.0000e-07
  Last MAX-Density change    ...    3.8087e-05  Tolerance :   1.0000e-07
  Last RMS-Density change    ...    2.4187e-06  Tolerance :   5.0000e-09
  Last DIIS Error            ...    4.9654e-05  Tolerance :   1.0000e-07
  Last Orbital Gradient      ...    1.8190e-05  Tolerance :   1.0000e-04
  Last Orbital Rotation      ...    9.1403e-05  Tolerance :   1.0000e-04


----------------
ORBITAL ENERGIES
----------------

  NO   OCC          E(Eh)            E(eV) 
   0   2.0000     -10.039784      -273.1964 
   1   2.0000     -10.030289      -272.9381 
   2   2.0000     -10.030207      -272.9358 
   3   2.0000     -10.027862      -272.8720 
   4   2.0000     -10.027203      -272.8541 
   5   2.0000     -10.026995      -272.8484 
   6   2.0000     -10.023819      -272.7620 
   7   2.0000     -10.019118      -272.6340 
   8   2.0000     -10.008796      -272.3532 
   9   2.0000      -0.827320       -22.5125 
  10   2.0000      -0.760044       -20.6819 
  11   2.0000      -0.713772       -19.4227 
  12   2.0000      -0.710289       -19.3279 
  13   2.0000      -0.639593       -17.4042 
  14   2.0000      -0.578479       -15.7412 
  15   2.0000      -0.559648       -15.2288 
  16   2.0000      -0.532111       -14.4795 
  17   2.0000      -0.478751       -13.0275 
  18   2.0000      -0.431085       -11.7304 
  19   2.0000      -0.421145       -11.4599 
  20   2.0000      -0.415763       -11.3135 
  21   2.0000      -0.393252       -10.7009 
  22   2.0000      -0.382660       -10.4127 
  23   2.0000      -0.366718        -9.9789 
  24   2.0000      -0.357808        -9.7365 
  25   2.0000      -0.332545        -9.0490 
  26   2.0000      -0.327223        -8.9042 
  27   2.0000      -0.312692        -8.5088 
  28   2.0000      -0.295792        -8.0489 
  29   2.0000      -0.294262        -8.0073 
  30   2.0000      -0.286086        -7.7848 
  31   2.0000      -0.237302        -6.4573 
  32   2.0000      -0.225261        -6.1297 
  33   0.0000      -0.031685        -0.8622 
  34   0.0000      -0.026250        -0.7143 
  35   0.0000       0.094348         2.5673 
  36   0.0000       0.104525         2.8443 
  37   0.0000       0.114900         3.1266 
  38   0.0000       0.117558         3.1989 
  39   0.0000       0.129321         3.5190 
  40   0.0000       0.135155         3.6778 
  41   0.0000       0.145925         3.9708 
  42   0.0000       0.148678         4.0457 
  43   0.0000       0.159508         4.3404 
*Only the first 10 virtual orbitals were printed.
Total SCF time: 0 days 0 hours 0 min 7 sec 
Finished LeanSCF after   7.6 sec

Maximum memory used throughout the entire LEANSCF-calculation: 34.3 MB


-------------------------------------------------------------------------------
                          DFT DISPERSION CORRECTION                            
                                                                               
                                DFTD4 V3.4.0                                   
-------------------------------------------------------------------------------
-------------------------   ----------------
Dispersion correction           -0.006616620
-------------------------   ----------------

------------------   -----------------
gCP correction             0.006805037
------------------   -----------------

-------------------------   --------------------
FINAL SINGLE POINT ENERGY      -350.079155940401
-------------------------   --------------------

------------------------------------------------------------------------------
                         ORCA SCF GRADIENT CALCULATION
------------------------------------------------------------------------------

Nuc. rep. gradient        (SHARK) ... done (  0.0 sec)
HCore & Overlap gradient  (SHARK) ... done (  0.3 sec)
Split-RIJ-J gradient      (SHARK) ... done (  1.8 sec)
XC gradient                       ... done (  6.3 sec)
CPCM gradient                     ... done (  1.1 sec)
SMD gradient                      ... done (  0.0 sec)
Dispersion correction             ... done (  0.0 sec)

-------------------
DISPERSION GRADIENT
-------------------

   1   C   :   -0.000093059    0.000003157   -0.000001096
   2   C   :   -0.000082672    0.000029806   -0.000013039
   3   C   :   -0.000066352   -0.000037018    0.000004354
   4   C   :    0.000015835   -0.000018370    0.000004000
   5   C   :    0.000046177   -0.000074509    0.000035772
   6   C   :    0.000084339   -0.000046027    0.000028996
   7   C   :    0.000093848    0.000012342    0.000002092
   8   C   :    0.000084920    0.000063696   -0.000025353
   9   C   :    0.000038135    0.000058970   -0.000029872
  10   H   :   -0.000034284   -0.000002431   -0.000006403
  11   H   :   -0.000035399    0.000002190    0.000006783
  12   H   :   -0.000031049    0.000008244   -0.000002014
  13   H   :   -0.000038641    0.000019760    0.000005424
  14   H   :   -0.000036465    0.000011729   -0.000016781
  15   H   :   -0.000025750   -0.000025307   -0.000011335
  16   H   :   -0.000027090   -0.000017403    0.000017234
  17   H   :    0.000008717   -0.000044044    0.000020877
  18   H   :    0.000029723   -0.000025486    0.000015169
  19   H   :    0.000037168    0.000006233    0.000000632
  20   H   :    0.000025900    0.000034729   -0.000014737
  21   H   :    0.000006000    0.000039737   -0.000020701

Difference to translation invariance:
           :   -0.0000000000    0.0000000000   -0.0000000000

Difference to rotation invariance:
           :    0.0000000000   -0.0000000000   -0.0000000000

Norm of the Dispersion gradient    ...    0.0002974203
RMS gradient                       ...    0.0000374714
MAX gradient                       ...    0.0000938485
gCP correction                   ... done

------------------
CARTESIAN GRADIENT
------------------

   1   C   :   -0.005121831   -0.002650458    0.000905504
   2   C   :    0.001806104    0.006006773   -0.001311270
   3   C   :    0.000460927   -0.006146097    0.001644064
   4   C   :    0.005521617    0.003431791   -0.000958637
   5   C   :    0.000349767    0.002819166   -0.001344193
   6   C   :   -0.002537380    0.003269306   -0.001728971
   7   C   :   -0.004987073   -0.001392335    0.000265059
   8   C   :   -0.002881591   -0.003607555    0.001605311
   9   C   :    0.003091774   -0.002722432    0.001543865
  10   H   :    0.002135549    0.003815670    0.002642394
  11   H   :    0.001948817    0.001657401   -0.004322457
  12   H   :    0.004114064   -0.002744971    0.000882934
  13   H   :   -0.001297661   -0.003292143   -0.000412823
  14   H   :   -0.001493751   -0.002725291    0.001960320
  15   H   :    0.001328505    0.002758969    0.000383062
  16   H   :    0.000767767    0.002297977   -0.001468498
  17   H   :    0.001796454    0.003671910   -0.001721893
  18   H   :   -0.002511410    0.002897390   -0.001665349
  19   H   :   -0.004108738   -0.000766851   -0.000069934
  20   H   :   -0.001470198   -0.003540206    0.001530846
  21   H   :    0.003088289   -0.003038014    0.001640665

Difference to translation invariance:
           :    0.0000000000    0.0000000000   -0.0000000000

Difference to rotation invariance:
           :    0.0000033468    0.0002147675   -0.0000157751

Norm of the Cartesian gradient     ...    0.0217387636
RMS gradient                       ...    0.0027388268
MAX gradient                       ...    0.0061460974

-------
TIMINGS
-------

Total SCF gradient time     ....       10.477 sec

Densities                   ....       0.001 sec  (  0.0%)
One electron gradient       ....       0.339 sec  (  3.2%)
RI-J Coulomb gradient       ....       1.821 sec  ( 17.4%)
XC gradient                 ....       6.343 sec  ( 60.5%)
CPCM gradient               ....       1.055 sec  ( 10.1%)
   A-Matrix (El+Nuc)        ....       0.083 sec  (  0.8%)
   Potential                ....       0.972 sec  (  9.3%)
SMD gradient                ....       0.013 sec  (  0.1%)

Maximum memory used throughout the entire SCFGRAD-calculation: 36.3 MB

------------------------------------------------------------------------------
                              ORCA PROPERTY CALCULATIONS
------------------------------------------------------------------------------

GBWName                                 ... xtb_opt.gbw
Number of atoms                         ...     21
Number of basis functions               ...    231
Max core memory                         ...   1024 MB

Electric properties:
Dipole moment                           ... YES
Quadrupole moment                       ...  NO
Static polarizability (Dipole/Dipole)   ...  NO
Static polarizability (Dipole/Quad.)    ...  NO
Static polarizability (Quad./Quad.)     ...  NO
Static polarizability (Velocity)        ...  NO

Atomic electric properties:
Dipole moment                           ...  NO
Quadrupole moment                       ...  NO
Static polarizability                   ...  NO

Choice of electric origin               ... Center of mass
Position of electric origin             ...    -0.000017     0.000001    -0.000001

General magnetic properties:
Magnetizability                         ...  NO

EPR properties:
g-Tensor (aka g-matrix)                 ...  NO
Zero-Field splitting spin-orbit         ...  NO
Zero-field splitting spin-spin          ...  NO
Hyperfine couplings                     ...  NO (   0 nuclei)
Quadrupole couplings                    ...  NO (   0 nuclei)
Contact density                         ...  NO (   0 nuclei)

NMR properties:
Chemical shifts                         ...  NO (   0 nuclei)
Spin-rotation constants                 ...  NO (   0 nuclei)
Spin-spin couplings                     ...  NO (   0 nuclei,    0 pairs)

Choice of magnetic origin               ... GIAO
Position of magnetic origin             ...     0.000000     0.000000     0.000000

Properties with geometric perturbations:
SCF Hessian                             ...  NO
IR spectrum                             ...  NO
VCD spectrum                            ...  NO
X-ray spectroscopy properties:
SCF XES/XAS/RIXS spectra                ...  NO


-------------
DIPOLE MOMENT
-------------

Method             : SCF
Type of density    : Electron Density
Multiplicity       :   1
Irrep              :   0
Energy             :  -350.0793443574431762 Eh
Relativity type    : 
Basis              : AO
                                X                 Y                 Z
Electronic contribution:      9.717408949      -0.462690495       0.465667088
Nuclear contribution   :    -10.016807070       0.403624750      -0.483694866
                        -----------------------------------------
Total Dipole Moment    :     -0.299398121      -0.059065745      -0.018027778
                        -----------------------------------------
Magnitude (a.u.)       :      0.305700831
Magnitude (Debye)      :      0.777029760



--------------------
Rotational spectrum 
--------------------
 
Rotational constants in cm-1:             0.157321             0.028627             0.024602 
Rotational constants in MHz :          4716.369855           858.225195           737.538156 

Dipole components along the rotational axes: 
x,y,z [a.u.] :    -0.297273    -0.064884    -0.029528 
x,y,z [Debye]:    -0.755607    -0.164923    -0.075055 

 

Dipole moment calculation done in   0.0 sec 

Maximum memory used throughout the entire PROP-calculation: 14.8 MB

--------------------------------
SUGGESTED CITATIONS FOR THIS RUN
--------------------------------

Below you find a list of papers that are relevant to this ORCA run
We neither can nor want to force you to cite these papers, but we appreciate if you do
You receive ORCA, which is the product of decades of hard work by many enthusiastic individuals, for free
The only thing we kindly ask in return is that you cite our papers,
We deeply appreciate it, if you show your appreciation for ORCA by not just citing the generic ORCA reference.

Please note that relegating all ORCA citations to the supporting information does *not* help us.
SI sections are not indexed - citations you put there will not count into any citation statistics
But we need these citations in order to attract the funding resources that allow us to do what we are doing

Therefore, if you are a happy ORCA user, please consider citing a few of the papers listed below in the main body of your paper

In addition to the list printed below, the program has created the file xtb_opt.bibtex that contains the list in bibtex format
You can import this file easily into all common literature databanks and citation aid programs


List of essential papers. We consider these as the minimum necessary citations

  1. Neese,F.
     Software update: the ORCA program system, version 5.0
     WIRES Comput. Molec. Sci., 2022 12(1)e1606
     doi.org/10.1002/wcms.1606
  2. Grimme,S.; Hansen,A.; Ehlert,S.; Mewes,J.
     r2SCAN-3c: A 'Swiss army knife' composite electronic-structure method
     J. Chem. Phys., 2021 154 064103
     doi.org/10.1063/5.0040021

List of papers to cite with high priority. The work reported in these papers was absolutely
necessary for this run to complete.
Our perspective: the developers of density functionals and basis sets usually get cited in chemistry papers
Good! But without the algorithms to do something with them, the functionals or basis sets would not do anything.
Hence, in our opinion, the algorithm design and method developments papers are equally worthy of getting cited

  1. Neese,F.
     An improvement of the resolution of the identity approximation for the formation of the Coulomb matrix
     J. Comp. Chem., 2003 24(14)1740-1747
     doi.org/10.1002/jcc.10318
  2. Garcia-Rates,M.; Neese,F.
     Effect of the Solute Cavity on the Solvation Energy and its Derivatives within the Framework of the Gaussian Charge Scheme
     J. Comput. Chem., 2020 41 922-939
     doi.org/10.1002/jcc.26139
  3. Neese,F.
     The SHARK Integral Generation and Digestion System
     J. Comp. Chem., 2022  1-16
     doi.org/10.1002/jcc.26942
  4. Lehtola,S.; Steigemann,C.; Oliveira,M.; Marques,M.
     Recent developments in Libxc - A comprehensive library of functionals for density functional theory
     Software X, 2018 7 
     doi.org/10.1016/j.softx.2017.11.002
  5. Caldeweyher,E.; Bannwarth,C.; Grimme,S.
     Extension of the D3 dispersion coefficient model
     J. Chem. Phys., 2017 147 034112-XXXX
     doi.org/10.1063/1.4993215
  6. Caldeweyher,E.; Ehlert,S.; Hansen,A.; Neugebauer,H.; Spicher,S.; Bannwarth,C.; Grimme,S.
     A generally applicable atomic-charge dependent London dispersion correction
     J. Chem. Phys., 2019 150 154122-XXXX
     doi.org/10.1063/1.5090222
  7. Caldeweyher,E.; Mewes,J.; Ehlert,S.; Grimme,S.
     Extension and evaluation of the D4 London-dispersion model for periodic systems
     Phys. Chem. Chem. Phys., 2020 22(16)8499-8512
     doi.org/10.1039/D0CP00502A

List of suggested additional citations. These are papers that are important in the 'surrounding' of 
of this run, or papers that preceded the highly important papers. If you like your results we are grateful for a citation.

  1. Neese,F.
     The ORCA program system
     WIRES Comput. Molec. Sci., 2012 2(1)73-78
     doi.org/10.1002/wcms.81
  2. Neese,F.
     Software update: the ORCA program system, version 4.0
     WIRES Comput. Molec. Sci., 2018 8(1)1-6
     doi.org/10.1002/wcms.1327
  3. Neese,F.; Wennmohs,F.; Becker,U.; Riplinger,C.
     The ORCA quantum chemistry program package
     J. Chem. Phys., 2020 152 Art. No. L224108
     doi.org/10.1063/5.0004608

List of optional additional citations

  1. Neese,F.
     Approximate second-order SCF convergence for spin unrestricted wavefunctions
     Chem. Phys. Lett., 2000 325(1-3)93-98
     doi.org/10.1016/s0009-2614(00)00662-x

Timings for individual modules:

Sum of individual times          ...       19.858 sec (=   0.331 min)
Startup calculation              ...        1.285 sec (=   0.021 min)   6.5 %
SCF iterations                   ...        7.896 sec (=   0.132 min)  39.8 %
Property calculations            ...        0.104 sec (=   0.002 min)   0.5 %
SCF Gradient evaluation          ...       10.574 sec (=   0.176 min)  53.2 %
                             ****ORCA TERMINATED NORMALLY****
TOTAL RUN TIME: 0 days 0 hours 0 minutes 20 seconds 739 msec
  ------------------------------------------------------------------------
          * successful ORCA run, taking over control again...

         :::::::::::::::::::::::::::::::::::::::::::::::::::::
         ::                  ORCA SUMMARY                   ::
         :::::::::::::::::::::::::::::::::::::::::::::::::::::
         :: total energy            -350.079155940401 Eh    ::
         :: gradient norm              0.021738763556 Eh/a0 ::
         :: HOMO-LUMO gap              0.000000000000 eV    ::
         :::::::::::::::::::::::::::::::::::::::::::::::::::::

      ----------------------------------------------------------- 
     |                       L-ANC optimizer                     |
      ----------------------------------------------------------- 
          low memory version by Sebastian Ehlert

          ...................................................
          :                      SETUP                      :
          :.................................................:
          :   energy convergence        0.5000000E-05 Eh    :
          :   grad. convergence         0.1000000E-02 Eh/a0 :
          :   optimization log               true           :
          :   writing optlog all                1     steps :
          :   Hessian reset                     8     steps :
          :   maximium step len.        1.0000000     a0    :
          :   LBFGS images                      8           :
          ...................................................
 * calculating model hessian...
Using Lindh-Hessian (1995)
 Shifting diagonal of input Hessian by   1.000000000000000E-002
 Lowest  eigenvalues of input Hessian
    0.000000    0.000000    0.000000    0.000000    0.000000    0.000000
    0.012097    0.013062    0.013480    0.018305    0.021356    0.023032
    0.025682    0.031144    0.034107    0.036195    0.051867    0.055666
 Highest eigenvalues
    1.411416    1.579906    1.616838    1.896435    1.999006    2.026447
 

........................................................................
.............................. CYCLE    1 ..............................
........................................................................
                         * ORCA takes the control...
  ------------------------------------------------------------------------

                                 *****************
                                 * O   R   C   A *
                                 *****************

                                            #,                                       
                                            ###                                      
                                            ####                                     
                                            #####                                    
                                            ######                                   
                                           ########,                                 
                                     ,,################,,,,,                         
                               ,,#################################,,                 
                          ,,##########################################,,             
                       ,#########################################, ''#####,          
                    ,#############################################,,   '####,        
                  ,##################################################,,,,####,       
                ,###########''''           ''''###############################       
              ,#####''   ,,,,##########,,,,          '''####'''          '####       
            ,##' ,,,,###########################,,,                        '##       
           ' ,,###''''                  '''############,,,                           
         ,,##''                                '''############,,,,        ,,,,,,###''
      ,#''                                            '''#######################'''  
     '                                                          ''''####''''         
             ,#######,   #######,   ,#######,      ##                                
            ,#'     '#,  ##    ##  ,#'     '#,    #''#        ,####,   ,####,        
            ##       ##  ##   ,#'  ##            #'  '#       #'       #'  '#        
            ##       ##  #######   ##           ,######,      #####,   #    #        
            '#,     ,#'  ##    ##  '#,     ,#' ,#      #,     #,   #   #,  ,#        
             '#######'   ##     ##  '#######'  #'      '#     '####' # '####'        



                #########################################################
                #                        -***-                          #
                #          Department of theory and spectroscopy        #
                #                                                       #
                #                      Frank Neese                      #
                #                                                       #
                #     Directorship, Architecture, Infrastructure        #
                #                    SHARK, DRIVERS                     #
                #        Core code/Algorithms in most modules           #
                #                                                       #
                #        Max Planck Institute fuer Kohlenforschung      #
                #                Kaiser Wilhelm Platz 1                 #
                #                 D-45470 Muelheim/Ruhr                 #
                #                      Germany                          #
                #                                                       #
                #                  All rights reserved                  #
                #                        -***-                          #
                #########################################################


                         Program Version 6.0.0  -   RELEASE  -


 With contributions from (in alphabetic order):
   Daniel Aravena         : Magnetic Suceptibility
   Michael Atanasov       : Ab Initio Ligand Field Theory (pilot matlab implementation)
   Alexander A. Auer      : GIAO ZORA, VPT2 properties, NMR spectrum
   Ute Becker             : All parallelization in ORCA, NUMFREQ, NUMCALC
   Giovanni Bistoni       : ED, misc. LED, open-shell LED, HFLD
   Martin Brehm           : Molecular dynamics
   Dmytro Bykov           : pre 5.0 version of the SCF Hessian
   Marcos Casanova-Páez   : Triplet and SCS-CIS(D). UHF-(DLPNO)-IP/EA/STEOM-CCSD. UHF-CVS-IP/STEOM-CCSD
   Vijay G. Chilkuri      : MRCI spin determinant printing, contributions to CSF-ICE
   Pauline Colinet        : FMM embedding
   Dipayan Datta          : RHF DLPNO-CCSD density
   Achintya Kumar Dutta   : EOM-CC, STEOM-CC
   Nicolas Foglia         : Exact transition moments, OPA infrastructure, MCD improvements
   Dmitry Ganyushin       : Spin-Orbit,Spin-Spin,Magnetic field MRCI
   Miquel Garcia          : C-PCM and meta-GGA Hessian, CCSD/C-PCM, Gaussian charge scheme
   Tiago L. C. Gouveia    : GS-ROHF, GS-ROCIS
   Yang Guo               : DLPNO-NEVPT2, F12-NEVPT2, CIM, IAO-localization
   Andreas Hansen         : Spin unrestricted coupled pair/coupled cluster methods
   Ingolf Harden          : AUTO-CI MPn and infrastructure 
   Benjamin Helmich-Paris : MC-RPA, TRAH-(SCF,CASSCF), AVAS, COSX integrals, SCF dyn. polar.
   Lee Huntington         : MR-EOM, pCC
   Robert Izsak           : Overlap fitted RIJCOSX, COSX-SCS-MP3, EOM
   Riya Kayal             : Wick's Theorem for AUTO-CI, AUTO-CI UHF-CCSDT
   Emily Kempfer          : AUTO-CI, RHF CISDT and CCSDT
   Christian Kollmar      : KDIIS, OOCD, Brueckner-CCSD(T), CCSD density, CASPT2, CASPT2-K, improved NEVPT2
   Axel Koslowski         : Symmetry handling
   Simone Kossmann        : Meta GGA functionals, TD-DFT gradient, OOMP2, (MP2 Hessian; deprecated post 5.0)
   Lucas Lang             : DCDCAS
   Marvin Lechner         : AUTO-CI (C++ implementation), FIC-MRCC
   Spencer Leger          : CASSCF response
   Dagmar Lenk            : GEPOL surface, SMD, ORCA-2-JSON
   Dimitrios Liakos       : Extrapolation schemes; Compound Job, initial MDCI parallelization
   Dimitrios Manganas     : Further ROCIS development; embedding schemes. LFT, Crystal Embedding
   Dimitrios Pantazis     : SARC Basis sets
   Anastasios Papadopoulos: AUTO-CI, single reference methods and gradients
   Taras Petrenko         : pre 6.0 DFT Hessian and TD-DFT gradient, (ASA, deprecated), ECA, 1-Electron XAS/XES, NRVS
   Peter Pinski           : DLPNO-MP2, DLPNO-MP2 Gradient
   Christoph Reimann      : Effective Core Potentials
   Marius Retegan         : Local ZFS, SOC
   Christoph Riplinger    : Optimizer, TS searches, QM/MM, DLPNO-CCSD(T), (RO)-DLPNO pert. Triples
   Michael Roemelt        : Original ROCIS implementation
   Masaaki Saitow         : Open-shell DLPNO-CCSD energy and density
   Barbara Sandhoefer     : DKH picture change effects
   Kantharuban Sivalingam : CASSCF convergence/infrastructure, NEVPT2 and variants, FIC-MRCI
   Bernardo de Souza      : ESD, SOC TD-DFT
   Georgi Stoychev        : AutoAux, RI-MP2 NMR, DLPNO-MP2 response, X2C
   Van Anh Tran           : RI-MP2 g-tensors
   Willem Van den Heuvel  : Paramagnetic NMR
   Zikuan Wang            : NOTCH, Electric field optimization 
   Frank Wennmohs         : Technical directorship and infrastructure
   Hang Xu                : AUTO-CI-Response properties 


 We gratefully acknowledge several colleagues who have allowed us to
 interface, adapt or use parts of their codes:
   Stefan Grimme, W. Hujo, H. Kruse, P. Pracht,  : VdW corrections, initial TS optimization,
                  C. Bannwarth, S. Ehlert,         DFT functionals, gCP, sTDA/sTD-DF
                  L. Wittmann, M. Mueller
   Ed Valeev, F. Pavosevic, A. Kumar             : LibInt (2-el integral package), F12 methods
   Garnet Chan, S. Sharma, J. Yang, R. Olivares  : DMRG
   Ulf Ekstrom                                   : XCFun DFT Library
   Mihaly Kallay                                 : mrcc  (arbitrary order and MRCC methods)
   Frank Weinhold                                : gennbo (NPA and NBO analysis)
   Simon Mueller                                 : openCOSMO-RS
   Christopher J. Cramer and Donald G. Truhlar   : smd solvation model
   Lars Goerigk                                  : TD-DFT with DH, B97 family of functionals
   V. Asgeirsson, H. Jonsson                     : NEB implementation
   FAccTs GmbH                                   : IRC, NEB, NEB-TS, DLPNO-Multilevel, CI-OPT
                                                   MM, QMMM, 2- and 3-layer-ONIOM, Crystal-QMMM,
                                                   LR-CPCM, SF, NACMEs, symmetry and pop. for TD-DFT,
                                                   nearIR, NL-DFT gradient (VV10), updates on ESD,
                                                   ML-optimized integration grids, MBIS, APM,
                                                   GOAT, DOCKER, SOLVATOR, interface openCOSMO-RS
   S Lehtola, MJT Oliveira, MAL Marques          : LibXC Library
   Liviu Ungur et al                             : ANISO software


 Your calculation uses the libint2 library for the computation of 2-el integrals
 For citations please refer to: http://libint.valeyev.net

 Your ORCA version has been built with support for libXC version: 6.2.2
 For citations please refer to: https://libxc.gitlab.io

 This ORCA versions uses:
   CBLAS   interface :  Fast vector & matrix operations
   LAPACKE interface :  Fast linear algebra routines
   SCALAPACK package :  Parallel linear algebra routines
   Shared memory     :  Shared parallel matrices
   BLAS/LAPACK       :  OpenBLAS 0.3.27  USE64BITINT DYNAMIC_ARCH NO_AFFINITY SkylakeX SINGLE_THREADED
        Core in use  :  SkylakeX
   Copyright (c) 2011-2014, The OpenBLAS Project




***************************************
The coordinates will be read from file: xtb_opt.xyz
***************************************


Your calculation utilizes the geometrical counterpoise correction gCP
Please cite in your paper:
H.Kruse, S. Grimme J.Chem.Phys., 136, (2012), 154101 
   

Your calculation utilizes the atom-pairwise dispersion correction
based on EEQ partial charges (D4)


Your calculation utilizes the SMD solvation module
Please cite in your paper:
A.V. Marenich, C.J. Cramer, D.G. Truhlar J. Phys. Chem. B, 113, (2009), 6378 

================================================================================

----- Orbital basis set information -----
Your calculation utilizes the basis: def2-mTZVPP
   Stefan Grimme, Andreas Hansen, Sebastian Ehlert, and Jan-Michael Mewes 
   J. Chem. Phys. 154, 064103 (2021). DOI: 10.1063/5.0040021

----- AuxJ basis set information -----
Your calculation utilizes the auxiliary basis: def2/J
   F. Weigend, Phys. Chem. Chem. Phys. 8, 1057 (2006).

================================================================================
                                        WARNINGS
                       Please study these warnings very carefully!
================================================================================

WARNING: Old DensityContainer found on disk!
         Will remove this file - 
         If you want to keep old densities, please start your calculation with a different basename. 

Using LibXC functional ID 497 : Re-regularized SCAN exchange by Furness et al
[ 1]  J. W. Furness, A. D. Kaplan, J. Ning, J. P. Perdew, and J. Sun.,  J. Phys. Chem. Lett. 11, 8208-8215 (2020)
[ 2]  J. W. Furness, A. D. Kaplan, J. Ning, J. P. Perdew, and J. Sun.,  J. Phys. Chem. Lett. 11, 9248-9248 (2020)
Using LibXC functional ID 498 : Re-regularized SCAN correlation by Furness et al
[ 1]  J. W. Furness, A. D. Kaplan, J. Ning, J. P. Perdew, and J. Sun.,  J. Phys. Chem. Lett. 11, 8208-8215 (2020)
[ 2]  J. W. Furness, A. D. Kaplan, J. Ning, J. P. Perdew, and J. Sun.,  J. Phys. Chem. Lett. 11, 9248-9248 (2020)
Using LibXC functional ID 497 : Re-regularized SCAN exchange by Furness et al
[ 1]  J. W. Furness, A. D. Kaplan, J. Ning, J. P. Perdew, and J. Sun.,  J. Phys. Chem. Lett. 11, 8208-8215 (2020)
[ 2]  J. W. Furness, A. D. Kaplan, J. Ning, J. P. Perdew, and J. Sun.,  J. Phys. Chem. Lett. 11, 9248-9248 (2020)
Using LibXC functional ID 498 : Re-regularized SCAN correlation by Furness et al
[ 1]  J. W. Furness, A. D. Kaplan, J. Ning, J. P. Perdew, and J. Sun.,  J. Phys. Chem. Lett. 11, 8208-8215 (2020)
[ 2]  J. W. Furness, A. D. Kaplan, J. Ning, J. P. Perdew, and J. Sun.,  J. Phys. Chem. Lett. 11, 9248-9248 (2020)

================================================================================
                                       INPUT FILE
================================================================================
NAME = xtb_opt.inp
|  1> ! r2scan-3c def2/J RI DEFGRID2 scfconv7 ENGRAD tightSCF miniprint
|  2> %cpcm
|  3>     smd true
|  4>     smdsolvent "water"
|  5> end
|  6> * xyzfile 0 1 xtb_opt.xyz
|  7> 
|  8>                          ****END OF INPUT****
================================================================================

                     *******************************
                     * Energy+Gradient Calculation *
                     *******************************

---------------------------------
CARTESIAN COORDINATES (ANGSTROEM)
---------------------------------
  C     -3.837732    0.176489   -0.152966
  C     -2.372296    0.582711   -0.288008
  C     -1.440216   -0.577887    0.049836
  C      0.037382   -0.270328    0.054059
  C      0.920793   -1.212789    0.591515
  C      2.290555   -0.986872    0.609262
  C      2.809150    0.196183    0.088599
  C      1.943143    1.141488   -0.447116
  C      0.569307    0.910334   -0.464920
  H     -4.070928   -0.660188   -0.817831
  H     -4.060348   -0.135158    0.871573
  H     -4.501689    1.006498   -0.406746
  H     -2.161174    1.426080    0.379020
  H     -2.183173    0.925390   -1.310849
  H     -1.620312   -1.395268   -0.660750
  H     -1.708569   -0.974913    1.036232
  H      0.521741   -2.135477    1.002411
  H      2.954888   -1.732354    1.032795
  H      3.877771    0.378523    0.103484
  H      2.335063    2.067515   -0.854092
  H     -0.084397    1.664149   -0.887816

----------------------------
CARTESIAN COORDINATES (A.U.)
----------------------------
  NO LB      ZA    FRAG     MASS         X           Y           Z
   0 C     6.0000    0    12.011   -7.252262    0.333516   -0.289064
   1 C     6.0000    0    12.011   -4.482990    1.101163   -0.544257
   2 C     6.0000    0    12.011   -2.721613   -1.092048    0.094176
   3 C     6.0000    0    12.011    0.070642   -0.510847    0.102157
   4 C     6.0000    0    12.011    1.740047   -2.291839    1.117800
   5 C     6.0000    0    12.011    4.328522   -1.864918    1.151338
   6 C     6.0000    0    12.011    5.308524    0.370733    0.167427
   7 C     6.0000    0    12.011    3.672009    2.157099   -0.844926
   8 C     6.0000    0    12.011    1.075834    1.720282   -0.878572
   9 H     1.0000    0     1.008   -7.692939   -1.247575   -1.545476
  10 H     1.0000    0     1.008   -7.672945   -0.255412    1.647034
  11 H     1.0000    0     1.008   -8.506960    1.902006   -0.768639
  12 H     1.0000    0     1.008   -4.084027    2.694900    0.716245
  13 H     1.0000    0     1.008   -4.125599    1.748733   -2.477146
  14 H     1.0000    0     1.008   -3.061946   -2.636675   -1.248637
  15 H     1.0000    0     1.008   -3.228727   -1.842318    1.958194
  16 H     1.0000    0     1.008    0.985948   -4.035467    1.894282
  17 H     1.0000    0     1.008    5.583929   -3.273675    1.951701
  18 H     1.0000    0     1.008    7.327925    0.715305    0.195557
  19 H     1.0000    0     1.008    4.412630    3.907037   -1.614001
  20 H     1.0000    0     1.008   -0.159487    3.144785   -1.677729

------------------------------------------------------------------------------
                   ___                                                        
                  /   \      - P O W E R E D   B Y -                         
                 /     \                                                     
                 |  |  |   _    _      __       _____    __    __             
                 |  |  |  | |  | |    /  \     |  _  \  |  |  /  |          
                  \  \/   | |  | |   /    \    | | | |  |  | /  /          
                 / \  \   | |__| |  /  /\  \   | |_| |  |  |/  /          
                |  |  |   |  __  | /  /__\  \  |    /   |      \           
                |  |  |   | |  | | |   __   |  |    \   |  |\   \          
                \     /   | |  | | |  |  |  |  | |\  \  |  | \   \       
                 \___/    |_|  |_| |__|  |__|  |_| \__\ |__|  \__/        
                                                                              
                      - O R C A' S   B I G   F R I E N D -                    
                                      &                                       
                       - I N T E G R A L  F E E D E R -                       
                                                                              
 v1 FN, 2020, v2 2021, v3 2022-2024                                           
------------------------------------------------------------------------------


----------------------
SHARK INTEGRAL PACKAGE
----------------------

Number of atoms                             ...     21
Number of basis functions                   ...    231
Number of shells                            ...    117
Maximum angular momentum                    ...      2
Integral batch strategy                     ... SHARK/LIBINT Hybrid
RI-J (if used) integral strategy            ... SPLIT-RIJ (Revised 2003 algorithm where possible)
Printlevel                                  ...      1
Contraction scheme used                     ... SEGMENTED contraction
Prescreening option                         ... SCHWARTZ
   Thresh                                   ... 3.000e-11
   Tcut                                     ... 1.000e-12
   Tpresel                                  ... 1.000e-12 
Coulomb Range Separation                    ... NOT USED
Exchange Range Separation                   ... NOT USED
Multipole approximations                    ... NOT USED
Finite Nucleus Model                        ... NOT USED
CABS basis                                  ... NOT available
Auxiliary Coulomb fitting basis             ... AVAILABLE
   # of basis functions in Aux-J            ...    573
   # of shells in Aux-J                     ...    195
   Maximum angular momentum in Aux-J        ...      4
Auxiliary J/K fitting basis                 ... NOT available
Auxiliary Correlation fitting basis         ... NOT available
Auxiliary 'external' fitting basis          ... NOT available

Checking pre-screening integrals            ... done (  0.0 sec) Dimension = 117
Check shell pair data                       ... done (  0.0 sec)
Shell pair information
Shell pair cut-off parameter TPreSel        ...   1.0e-12
Total number of shell pairs                 ...      6903
Shell pairs after pre-screening             ...      5981
Total number of primitive shell pairs       ...     24987
Primitive shell pairs kept                  ...     15299
          la=0 lb=0:   2064 shell pairs
          la=1 lb=0:   2349 shell pairs
          la=1 lb=1:    691 shell pairs
          la=2 lb=0:    533 shell pairs
          la=2 lb=1:    305 shell pairs
          la=2 lb=2:     39 shell pairs

Calculating one electron integrals          ... done (  0.0 sec)
Calculating RI/J V-Matrix + Cholesky decomp.... done (  0.1 sec)
Calculating Nuclear repulsion               ... done (  0.0 sec) ENN=    411.377565027532 Eh

Diagonalization of the overlap matrix:
Smallest eigenvalue                        ... 3.219e-05
Time for diagonalization                   ...    0.005 sec
Threshold for overlap eigenvalues          ... 1.000e-07
Number of eigenvalues below threshold      ... 0
Time for construction of square roots      ...    0.015 sec
Total time needed                          ...    0.030 sec

-------------------
DFT GRID GENERATION
-------------------

General Integration Accuracy     IntAcc      ... 4.388
Radial Grid Type                 RadialGrid  ... OptM3 with GC (2021)
Angular Grid (max. ang.)         AngularGrid ... 4 (Lebedev-302)
Angular grid pruning method      GridPruning ... 4 (adaptive)
Weight generation scheme         WeightScheme... mBecke (2022)
Basis function cutoff            BFCut       ... 1.0000e-11
Integration weight cutoff        WCut        ... 1.0000e-14
Partially contracted basis set               ... off
Rotationally invariant grid construction     ... off
Angular grids for H and He will be reduced by one unit

Total number of grid points                  ...    92461
Total number of batches                      ...     1457
Average number of points per batch           ...       63
Average number of grid points per atom       ...     4403
Initializing property integral containers    ... done (  0.0 sec)

SHARK setup successfully completed in   1.3 seconds

Maximum memory used throughout the entire STARTUP-calculation: 40.3 MB
Occupation numbers will be reassigned to an Aufbau configuration
             **** ENERGY FILE WAS UPDATED (xtb_opt.en.tmp) ****
Finished Guess after   0.3 sec
Maximum memory used throughout the entire GUESS-calculation: 16.0 MB
--------------------
CPCM SOLVATION MODEL
--------------------
CPCM parameters:
  Epsilon                                         ...      78.3550
  Refrac                                          ...       1.3328
  Rsolv                                           ...       1.3000
  Surface type                                    ... GAUSSIAN VDW
  Discretization scheme                           ... Constant charge density
    Threshold for H atoms                         ...       5.0000 (charges/Ang^2)
    Threshold for non-H atoms                     ...       5.0000 (charges/Ang^2)
  Epsilon function type                           ...         CPCM
Solvent:                                          ... WATER
SMD-CDS solvent descriptors:
  Soln                                            ...       1.3328
  Soln25                                          ...       1.3323
  Sola                                            ...       0.0000
  Solb                                            ...       0.0000
  Solg                                            ...       0.0000
  Solc                                            ...       0.0000
  Solh                                            ...       0.0000
Radii:
  Scheme                                          ... Element-dependent radii
  Radius for C  used is    3.4960 Bohr (=   1.8500 Ang.)
  Radius for H  used is    2.2677 Bohr (=   1.2000 Ang.)
Calculating surface                               ...        done! (  0.0s)
Cavity surface points                             ...         1626
Cavity Volume                                     ...     980.0298
Cavity Surface-area                               ...     609.8916
Calculating surface distance matrix               ...        done! (  0.0s)
Performing Cholesky decomposition & store         ...        done! (  0.1s)
Overall time for CPCM initialization              ...                 0.1s

----------------------------------------D-I-I-S--------------------------------------------
Iteration    Energy (Eh)           Delta-E    RMSDP     MaxDP     DIISErr   Damp  Time(sec)
-------------------------------------------------------------------------------------------
               ***  Starting incremental Fock matrix formation  ***
                              *** Initializing SOSCF ***
---------------------------------------S-O-S-C-F--------------------------------------
Iteration    Energy (Eh)           Delta-E    RMSDP     MaxDP     MaxGrad    Time(sec)
--------------------------------------------------------------------------------------
    1    -350.0859216616505591     0.00e+00  2.06e-04  8.13e-03  2.52e-04     3.5
               *** Restarting incremental Fock matrix formation ***
    2    -350.0860391094400939    -1.17e-04  7.95e-05  2.74e-03  4.63e-04     3.5
    3    -350.0860395688196149    -4.59e-07  3.10e-05  4.72e-04  4.00e-04     2.8
    4    -350.0860498176019746    -1.02e-05  9.75e-06  3.03e-04  4.96e-05     3.1
    5    -350.0860496861506590     1.31e-07  4.42e-06  7.48e-05  8.39e-05     3.0
    6    -350.0860499184109358    -2.32e-07  1.50e-06  4.45e-05  8.05e-06     2.9
                  *** Gradient check signals convergence ***

               *****************************************************
               *                     SUCCESS                       *
               *           SCF CONVERGED AFTER   6 CYCLES          *
               *****************************************************


SMD CDS free energy correction energy :                 3.67951     Kcal/mol
Total Energy after SMD CDS correction =              -350.080186243 Eh
             **** ENERGY FILE WAS UPDATED (xtb_opt.en.tmp) ****

----------------
TOTAL SCF ENERGY
----------------

Total Energy       :       -350.08018624328434 Eh           -9526.16617 eV

Components:
Nuclear Repulsion  :        411.37756502753166 Eh           11194.15264 eV
Electronic Energy  :       -761.45530539617562 Eh          -20720.25226 eV
One Electron Energy:      -1285.91366824014835 Eh          -34991.48985 eV
Two Electron Energy:        524.45836284397274 Eh           14271.23759 eV
CPCM Dielectric    :         -0.00830954976694 Eh              -0.22611 eV
SMD CDS (Gcds)     :          0.00586367512656 Eh               0.15956 eV

Virial components:
Potential Energy   :       -698.50724084079457 Eh          -19007.34834 eV
Kinetic Energy     :        348.42705459751028 Eh            9481.18217 eV
Virial Ratio       :          2.00474455592343

DFT components:
N(Alpha)           :       33.000036324609 electrons
N(Beta)            :       33.000036324609 electrons
N(Total)           :       66.000072649218 electrons
E(X)               :      -51.114791321580 Eh       
E(C)               :       -2.083292264497 Eh       
E(XC)              :      -53.198083586077 Eh       

CPCM Solvation Model Properties:
Surface-charge          :         -0.05080036618199
Corrected charge        :          0.00000000000000
Outlying charge corr.   :          0.00018837039682 Eh               0.00513 eV
Free-energy (cav+disp)  :          0.00586367512656 Eh               0.15956 eV

---------------
SCF CONVERGENCE
---------------

  Last Energy change         ...    2.3226e-07  Tolerance :   1.0000e-07
  Last MAX-Density change    ...    4.4479e-05  Tolerance :   1.0000e-07
  Last RMS-Density change    ...    1.5041e-06  Tolerance :   5.0000e-09
  Last DIIS Error            ...    2.8040e-03  Tolerance :   1.0000e-07
  Last Orbital Gradient      ...    8.0450e-06  Tolerance :   1.0000e-04
  Last Orbital Rotation      ...    3.2604e-05  Tolerance :   1.0000e-04


----------------
ORBITAL ENERGIES
----------------

  NO   OCC          E(Eh)            E(eV) 
   0   2.0000     -10.042473      -273.2696 
   1   2.0000     -10.033185      -273.0168 
   2   2.0000     -10.033073      -273.0138 
   3   2.0000     -10.030811      -272.9522 
   4   2.0000     -10.029958      -272.9290 
   5   2.0000     -10.029851      -272.9261 
   6   2.0000     -10.025453      -272.8064 
   7   2.0000     -10.020907      -272.6827 
   8   2.0000     -10.011340      -272.4224 
   9   2.0000      -0.824532       -22.4367 
  10   2.0000      -0.758991       -20.6532 
  11   2.0000      -0.712390       -19.3851 
  12   2.0000      -0.708889       -19.2899 
  13   2.0000      -0.638924       -17.3860 
  14   2.0000      -0.577775       -15.7221 
  15   2.0000      -0.559114       -15.2143 
  16   2.0000      -0.531804       -14.4711 
  17   2.0000      -0.477164       -12.9843 
  18   2.0000      -0.429113       -11.6768 
  19   2.0000      -0.420657       -11.4467 
  20   2.0000      -0.415556       -11.3079 
  21   2.0000      -0.393005       -10.6942 
  22   2.0000      -0.381898       -10.3920 
  23   2.0000      -0.365158        -9.9364 
  24   2.0000      -0.357276        -9.7220 
  25   2.0000      -0.331416        -9.0183 
  26   2.0000      -0.327776        -8.9192 
  27   2.0000      -0.313180        -8.5221 
  28   2.0000      -0.295341        -8.0366 
  29   2.0000      -0.294153        -8.0043 
  30   2.0000      -0.287131        -7.8132 
  31   2.0000      -0.236810        -6.4439 
  32   2.0000      -0.224981        -6.1220 
  33   0.0000      -0.033406        -0.9090 
  34   0.0000      -0.028122        -0.7652 
  35   0.0000       0.093709         2.5500 
  36   0.0000       0.103929         2.8281 
  37   0.0000       0.112135         3.0514 
  38   0.0000       0.116966         3.1828 
  39   0.0000       0.129308         3.5187 
  40   0.0000       0.134316         3.6549 
  41   0.0000       0.144711         3.9378 
  42   0.0000       0.147606         4.0166 
  43   0.0000       0.159393         4.3373 
*Only the first 10 virtual orbitals were printed.
Total SCF time: 0 days 0 hours 0 min 19 sec 
Finished LeanSCF after  19.5 sec

Maximum memory used throughout the entire LEANSCF-calculation: 34.4 MB


-------------------------------------------------------------------------------
                          DFT DISPERSION CORRECTION                            
                                                                               
                                DFTD4 V3.4.0                                   
-------------------------------------------------------------------------------
-------------------------   ----------------
Dispersion correction           -0.006593705
-------------------------   ----------------

------------------   -----------------
gCP correction             0.006744056
------------------   -----------------

-------------------------   --------------------
FINAL SINGLE POINT ENERGY      -350.080035891643
[...]


----------------
ORBITAL ENERGIES
----------------

  NO   OCC          E(Eh)            E(eV) 
   0   2.0000     -10.043658      -273.3018 
   1   2.0000     -10.034077      -273.0411 
   2   2.0000     -10.033907      -273.0365 
   3   2.0000     -10.031667      -272.9755 
   4   2.0000     -10.030907      -272.9548 
   5   2.0000     -10.030876      -272.9540 
   6   2.0000     -10.026310      -272.8298 
   7   2.0000     -10.021630      -272.7024 
   8   2.0000     -10.012123      -272.4437 
   9   2.0000      -0.823542       -22.4097 
  10   2.0000      -0.758605       -20.6427 
  11   2.0000      -0.711952       -19.3732 
  12   2.0000      -0.708454       -19.2780 
  13   2.0000      -0.638786       -17.3822 
  14   2.0000      -0.577436       -15.7128 
  15   2.0000      -0.558996       -15.2111 
  16   2.0000      -0.531808       -14.4712 
  17   2.0000      -0.476701       -12.9717 
  18   2.0000      -0.428221       -11.6525 
  19   2.0000      -0.420515       -11.4428 
  20   2.0000      -0.415461       -11.3053 
  21   2.0000      -0.392998       -10.6940 
  22   2.0000      -0.381537       -10.3822 
  23   2.0000      -0.364578        -9.9207 
  24   2.0000      -0.357189        -9.7196 
  25   2.0000      -0.331135        -9.0106 
  26   2.0000      -0.328029        -8.9261 
  27   2.0000      -0.313331        -8.5262 
  28   2.0000      -0.295622        -8.0443 
  29   2.0000      -0.293696        -7.9919 
  30   2.0000      -0.287398        -7.8205 
  31   2.0000      -0.236611        -6.4385 
  32   2.0000      -0.224961        -6.1215 
  33   0.0000      -0.033961        -0.9241 
  34   0.0000      -0.028792        -0.7835 
  35   0.0000       0.093535         2.5452 
  36   0.0000       0.103655         2.8206 
  37   0.0000       0.111215         3.0263 
  38   0.0000       0.116731         3.1764 
  39   0.0000       0.129385         3.5207 
  40   0.0000       0.134012         3.6467 
  41   0.0000       0.144288         3.9263 
  42   0.0000       0.147223         4.0061 
  43   0.0000       0.159311         4.3351 
*Only the first 10 virtual orbitals were printed.
Total SCF time: 0 days 0 hours 0 min 7 sec 
Finished LeanSCF after   7.6 sec

Maximum memory used throughout the entire LEANSCF-calculation: 34.4 MB


-------------------------------------------------------------------------------
                          DFT DISPERSION CORRECTION                            
                                                                               
                                DFTD4 V3.4.0                                   
-------------------------------------------------------------------------------
-------------------------   ----------------
Dispersion correction           -0.006583535
-------------------------   ----------------

------------------   -----------------
gCP correction             0.006724405
------------------   -----------------

-------------------------   --------------------
FINAL SINGLE POINT ENERGY      -350.080108195249
-------------------------   --------------------

------------------------------------------------------------------------------
                         ORCA SCF GRADIENT CALCULATION
------------------------------------------------------------------------------

Nuc. rep. gradient        (SHARK) ... done (  0.0 sec)
HCore & Overlap gradient  (SHARK) ... done (  0.3 sec)
Split-RIJ-J gradient      (SHARK) ... done (  1.9 sec)
XC gradient                       ... done (  7.4 sec)
CPCM gradient                     ... done (  1.2 sec)
SMD gradient                      ... done (  0.0 sec)
Dispersion correction             ... done (  0.0 sec)

-------------------
DISPERSION GRADIENT
-------------------

   1   C   :   -0.000092754    0.000003048   -0.000001215
   2   C   :   -0.000081799    0.000030001   -0.000012892
   3   C   :   -0.000066169   -0.000037047    0.000004520
   4   C   :    0.000015027   -0.000018866    0.000004197
   5   C   :    0.000045856   -0.000074779    0.000035975
   6   C   :    0.000083951   -0.000046026    0.000028890
   7   C   :    0.000093315    0.000012387    0.000001872
   8   C   :    0.000084313    0.000063770   -0.000025555
   9   C   :    0.000037672    0.000059182   -0.000029975
  10   H   :   -0.000033985   -0.000002272   -0.000006345
  11   H   :   -0.000035021    0.000002214    0.000006471
  12   H   :   -0.000030647    0.000008012   -0.000002017
  13   H   :   -0.000038171    0.000019777    0.000005442
  14   H   :   -0.000036031    0.000011888   -0.000016671
  15   H   :   -0.000025500   -0.000025183   -0.000011092
  16   H   :   -0.000026663   -0.000017407    0.000017201
  17   H   :    0.000008499   -0.000044032    0.000020973
  18   H   :    0.000029578   -0.000025498    0.000015143
  19   H   :    0.000037146    0.000006297    0.000000540
  20   H   :    0.000025646    0.000034777   -0.000014808
  21   H   :    0.000005738    0.000039757   -0.000020654

Difference to translation invariance:
           :   -0.0000000000   -0.0000000000    0.0000000000

Difference to rotation invariance:
           :    0.0000000000    0.0000000000    0.0000000000

Norm of the Dispersion gradient    ...    0.0002962941
RMS gradient                       ...    0.0000373295
MAX gradient                       ...    0.0000933149
gCP correction                   ... done

------------------
CARTESIAN GRADIENT
------------------

   1   C   :    0.000013079    0.000098683   -0.000012934
   2   C   :   -0.000043545   -0.000129979    0.000044779
   3   C   :    0.000072126    0.000102331   -0.000039521
   4   C   :   -0.000043237   -0.000043759    0.000010298
   5   C   :    0.000024754   -0.000017594    0.000009303
   6   C   :    0.000038498   -0.000041708    0.000035654
   7   C   :    0.000037074    0.000021135    0.000015351
   8   C   :    0.000007212    0.000046921   -0.000029370
   9   C   :   -0.000043209    0.000035471   -0.000028608
  10   H   :   -0.000016142   -0.000036935    0.000028536
  11   H   :    0.000025684   -0.000001358    0.000074840
  12   H   :   -0.000056516   -0.000008187    0.000025769
  13   H   :    0.000030681    0.000030450   -0.000035521
  14   H   :   -0.000022643    0.000011849   -0.000059674
  15   H   :   -0.000020238   -0.000016898   -0.000044679
  16   H   :   -0.000036633   -0.000043199   -0.000017516
  17   H   :   -0.000059036   -0.000023978   -0.000004859
  18   H   :    0.000024992   -0.000027958    0.000024869
  19   H   :    0.000041219    0.000016893    0.000016185
  20   H   :    0.000031652    0.000023826    0.000004828
  21   H   :   -0.000005774    0.000003995   -0.000017732

Difference to translation invariance:
           :   -0.0000000000   -0.0000000000    0.0000000000

Difference to rotation invariance:
           :   -0.0000150751    0.0002142923    0.0000395979

Norm of the Cartesian gradient     ...    0.0003211013
RMS gradient                       ...    0.0000404550
MAX gradient                       ...    0.0001299794

-------
TIMINGS
-------

Total SCF gradient time     ....       11.901 sec

Densities                   ....       0.001 sec  (  0.0%)
One electron gradient       ....       0.320 sec  (  2.7%)
RI-J Coulomb gradient       ....       1.882 sec  ( 15.8%)
XC gradient                 ....       7.434 sec  ( 62.5%)
CPCM gradient               ....       1.224 sec  ( 10.3%)
   A-Matrix (El+Nuc)        ....       0.089 sec  (  0.7%)
   Potential                ....       1.135 sec  (  9.5%)
SMD gradient                ....       0.013 sec  (  0.1%)

Maximum memory used throughout the entire SCFGRAD-calculation: 36.3 MB

------------------------------------------------------------------------------
                              ORCA PROPERTY CALCULATIONS
------------------------------------------------------------------------------

GBWName                                 ... xtb_opt.gbw
Number of atoms                         ...     21
Number of basis functions               ...    231
Max core memory                         ...   1024 MB

Electric properties:
Dipole moment                           ... YES
Quadrupole moment                       ...  NO
Static polarizability (Dipole/Dipole)   ...  NO
Static polarizability (Dipole/Quad.)    ...  NO
Static polarizability (Quad./Quad.)     ...  NO
Static polarizability (Velocity)        ...  NO

Atomic electric properties:
Dipole moment                           ...  NO
Quadrupole moment                       ...  NO
Static polarizability                   ...  NO

Choice of electric origin               ... Center of mass
Position of electric origin             ...     0.006566    -0.001210    -0.000257

General magnetic properties:
Magnetizability                         ...  NO

EPR properties:
g-Tensor (aka g-matrix)                 ...  NO
Zero-Field splitting spin-orbit         ...  NO
Zero-field splitting spin-spin          ...  NO
Hyperfine couplings                     ...  NO (   0 nuclei)
Quadrupole couplings                    ...  NO (   0 nuclei)
Contact density                         ...  NO (   0 nuclei)

NMR properties:
Chemical shifts                         ...  NO (   0 nuclei)
Spin-rotation constants                 ...  NO (   0 nuclei)
Spin-spin couplings                     ...  NO (   0 nuclei,    0 pairs)

Choice of magnetic origin               ... GIAO
Position of magnetic origin             ...     0.000000     0.000000     0.000000

Properties with geometric perturbations:
SCF Hessian                             ...  NO
IR spectrum                             ...  NO
VCD spectrum                            ...  NO
X-ray spectroscopy properties:
SCF XES/XAS/RIXS spectra                ...  NO


-------------
DIPOLE MOMENT
-------------

Method             : SCF
Type of density    : Electron Density
Multiplicity       :   1
Irrep              :   0
Energy             :  -350.0802490656672603 Eh
Relativity type    : 
Basis              : AO
                                X                 Y                 Z
Electronic contribution:      9.782572773      -0.476008879       0.468023873
Nuclear contribution   :    -10.091720815       0.417400602      -0.480774335
                        -----------------------------------------
Total Dipole Moment    :     -0.309148042      -0.058608277      -0.012750462
                        -----------------------------------------
Magnitude (a.u.)       :      0.314912713
Magnitude (Debye)      :      0.800444503



--------------------
Rotational spectrum 
--------------------
 
Rotational constants in cm-1:             0.155774             0.028315             0.024330 
Rotational constants in MHz :          4669.982881           848.866879           729.400031 

Dipole components along the rotational axes: 
x,y,z [a.u.] :    -0.306662    -0.067384    -0.024249 
x,y,z [Debye]:    -0.779472    -0.171275    -0.061636 

 

Dipole moment calculation done in   0.0 sec 

Maximum memory used throughout the entire PROP-calculation: 14.8 MB

--------------------------------
SUGGESTED CITATIONS FOR THIS RUN
--------------------------------

Below you find a list of papers that are relevant to this ORCA run
We neither can nor want to force you to cite these papers, but we appreciate if you do
You receive ORCA, which is the product of decades of hard work by many enthusiastic individuals, for free
The only thing we kindly ask in return is that you cite our papers,
We deeply appreciate it, if you show your appreciation for ORCA by not just citing the generic ORCA reference.

Please note that relegating all ORCA citations to the supporting information does *not* help us.
SI sections are not indexed - citations you put there will not count into any citation statistics
But we need these citations in order to attract the funding resources that allow us to do what we are doing

Therefore, if you are a happy ORCA user, please consider citing a few of the papers listed below in the main body of your paper

In addition to the list printed below, the program has created the file xtb_opt.bibtex that contains the list in bibtex format
You can import this file easily into all common literature databanks and citation aid programs


List of essential papers. We consider these as the minimum necessary citations

  1. Neese,F.
     Software update: the ORCA program system, version 5.0
     WIRES Comput. Molec. Sci., 2022 12(1)e1606
     doi.org/10.1002/wcms.1606
  2. Grimme,S.; Hansen,A.; Ehlert,S.; Mewes,J.
     r2SCAN-3c: A 'Swiss army knife' composite electronic-structure method
     J. Chem. Phys., 2021 154 064103
     doi.org/10.1063/5.0040021

List of papers to cite with high priority. The work reported in these papers was absolutely
necessary for this run to complete.
Our perspective: the developers of density functionals and basis sets usually get cited in chemistry papers
Good! But without the algorithms to do something with them, the functionals or basis sets would not do anything.
Hence, in our opinion, the algorithm design and method developments papers are equally worthy of getting cited

  1. Neese,F.
     An improvement of the resolution of the identity approximation for the formation of the Coulomb matrix
     J. Comp. Chem., 2003 24(14)1740-1747
     doi.org/10.1002/jcc.10318
  2. Garcia-Rates,M.; Neese,F.
     Effect of the Solute Cavity on the Solvation Energy and its Derivatives within the Framework of the Gaussian Charge Scheme
     J. Comput. Chem., 2020 41 922-939
     doi.org/10.1002/jcc.26139
  3. Neese,F.
     The SHARK Integral Generation and Digestion System
     J. Comp. Chem., 2022  1-16
     doi.org/10.1002/jcc.26942
  4. Lehtola,S.; Steigemann,C.; Oliveira,M.; Marques,M.
     Recent developments in Libxc - A comprehensive library of functionals for density functional theory
     Software X, 2018 7 
     doi.org/10.1016/j.softx.2017.11.002
  5. Caldeweyher,E.; Bannwarth,C.; Grimme,S.
     Extension of the D3 dispersion coefficient model
     J. Chem. Phys., 2017 147 034112-XXXX
     doi.org/10.1063/1.4993215
  6. Caldeweyher,E.; Ehlert,S.; Hansen,A.; Neugebauer,H.; Spicher,S.; Bannwarth,C.; Grimme,S.
     A generally applicable atomic-charge dependent London dispersion correction
     J. Chem. Phys., 2019 150 154122-XXXX
     doi.org/10.1063/1.5090222
  7. Caldeweyher,E.; Mewes,J.; Ehlert,S.; Grimme,S.
     Extension and evaluation of the D4 London-dispersion model for periodic systems
     Phys. Chem. Chem. Phys., 2020 22(16)8499-8512
     doi.org/10.1039/D0CP00502A

List of suggested additional citations. These are papers that are important in the 'surrounding' of 
of this run, or papers that preceded the highly important papers. If you like your results we are grateful for a citation.

  1. Neese,F.
     The ORCA program system
     WIRES Comput. Molec. Sci., 2012 2(1)73-78
     doi.org/10.1002/wcms.81
  2. Neese,F.
     Software update: the ORCA program system, version 4.0
     WIRES Comput. Molec. Sci., 2018 8(1)1-6
     doi.org/10.1002/wcms.1327
  3. Neese,F.; Wennmohs,F.; Becker,U.; Riplinger,C.
     The ORCA quantum chemistry program package
     J. Chem. Phys., 2020 152 Art. No. L224108
     doi.org/10.1063/5.0004608

List of optional additional citations

  1. Neese,F.
     Approximate second-order SCF convergence for spin unrestricted wavefunctions
     Chem. Phys. Lett., 2000 325(1-3)93-98
     doi.org/10.1016/s0009-2614(00)00662-x

Timings for individual modules:

Sum of individual times          ...       21.356 sec (=   0.356 min)
Startup calculation              ...        1.284 sec (=   0.021 min)   6.0 %
SCF iterations                   ...        7.957 sec (=   0.133 min)  37.3 %
Property calculations            ...        0.114 sec (=   0.002 min)   0.5 %
SCF Gradient evaluation          ...       12.000 sec (=   0.200 min)  56.2 %
                             ****ORCA TERMINATED NORMALLY****
TOTAL RUN TIME: 0 days 0 hours 0 minutes 22 seconds 246 msec
  ------------------------------------------------------------------------
          * successful ORCA run, taking over control again...

         :::::::::::::::::::::::::::::::::::::::::::::::::::::
         ::                  ORCA SUMMARY                   ::
         :::::::::::::::::::::::::::::::::::::::::::::::::::::
         :: total energy            -350.080108195249 Eh    ::
         :: gradient norm              0.000321101252 Eh/a0 ::
         :: HOMO-LUMO gap              0.000000000000 eV    ::
         :::::::::::::::::::::::::::::::::::::::::::::::::::::

           -------------------------------------------------
          |                Property Printout                |
           -------------------------------------------------
           -------------------------------------------------
          |                Geometry Summary                 |
           -------------------------------------------------

      molecular mass/u    :      120.1919121
   center of mass at/Å    :        0.0034777      -0.0006403      -0.0001360
  moments of inertia/u·Å² :        0.1082152E+03   0.5953409E+03   0.6928504E+03
rotational constants/cm⁻¹ :        0.1557788E+00   0.2831593E-01   0.2433084E-01

 * 20 selected distances

     #   Z          #   Z                                           value/Å
     1   6 C        2   6 C                                       1.5262336 (max)
     2   6 C        3   6 C                                       1.5262324
     4   6 C        5   6 C                                       1.4017684
     5   6 C        6   6 C                                       1.3905250
     6   6 C        7   6 C                                       1.3949586
     7   6 C        8   6 C                                       1.3911887
     4   6 C        9   6 C                                       1.3977335
     8   6 C        9   6 C                                       1.3957801
     1   6 C       10   1 H                                       1.0958344
     1   6 C       11   1 H                                       1.0957759
     1   6 C       12   1 H                                       1.0945362
     2   6 C       13   1 H                                       1.0974956
     2   6 C       14   1 H                                       1.0967826
     3   6 C       15   1 H                                       1.0995204
     3   6 C       16   1 H                                       1.0981354
     5   6 C       17   1 H                                       1.0874664
     6   6 C       18   1 H                                       1.0860825
     7   6 C       19   1 H                                       1.0856055
     8   6 C       20   1 H                                       1.0861056
     9   6 C       21   1 H                                       1.0849473 (min)

 * 2 distinct bonds (by element types)

   Z      Z             #   av. dist./Å        max./Å        min./Å
   1 H    6 C          12     1.0923573     1.0995204     1.0849473
   6 C    6 C           8     1.4280525     1.5262336     1.3905250


optimized geometry written to: xtbopt.coord


           -------------------------------------------------
          | TOTAL ENERGY             -350.080108195249 Eh   |
          | GRADIENT NORM               0.000321101252 Eh/α |
           -------------------------------------------------

------------------------------------------------------------------------
 * finished run on 2025/04/11 at 11:59:37.463     
------------------------------------------------------------------------
 total:
 * wall-time:     0 d,  0 h,  2 min, 13.638 sec
 *  cpu-time:     0 d,  0 h,  0 min,  0.497 sec
 * ratio c/w:     0.004 speedup
 SCF:
 * wall-time:     0 d,  0 h,  0 min, 20.855 sec
 *  cpu-time:     0 d,  0 h,  0 min,  0.153 sec
 * ratio c/w:     0.007 speedup
 ANC optimizer:
 * wall-time:     0 d,  0 h,  1 min, 52.766 sec
 *  cpu-time:     0 d,  0 h,  0 min,  0.340 sec
 * ratio c/w:     0.003 speedup

