
                                 *****************
                                 * O   R   C   A *
                                 *****************

                                            #,                                       
                                            ###                                      
                                            ####                                     
                                            #####                                    
                                            ######                                   
                                           ########,                                 
                                     ,,################,,,,,                         
                               ,,#################################,,                 
                          ,,##########################################,,             
                       ,#########################################, ''#####,          
                    ,#############################################,,   '####,        
                  ,##################################################,,,,####,       
                ,###########''''           ''''###############################       
              ,#####''   ,,,,##########,,,,          '''####'''          '####       
            ,##' ,,,,###########################,,,                        '##       
           ' ,,###''''                  '''############,,,                           
         ,,##''                                '''############,,,,        ,,,,,,###''
      ,#''                                            '''#######################'''  
     '                                                          ''''####''''         
             ,#######,   #######,   ,#######,      ##                                
            ,#'     '#,  ##    ##  ,#'     '#,    #''#        ,####,   ,####,        
            ##       ##  ##   ,#'  ##            #'  '#       #'       #'  '#        
            ##       ##  #######   ##           ,######,      #####,   #    #        
            '#,     ,#'  ##    ##  '#,     ,#' ,#      #,     #,   #   #,  ,#        
             '#######'   ##     ##  '#######'  #'      '#     '####' # '####'        



                #########################################################
                #                        -***-                          #
                #          Department of theory and spectroscopy        #
                #                                                       #
                #                      Frank Neese                      #
                #                                                       #
                #     Directorship, Architecture, Infrastructure        #
                #                    SHARK, DRIVERS                     #
                #        Core code/Algorithms in most modules           #
                #                                                       #
                #        Max Planck Institute fuer Kohlenforschung      #
                #                Kaiser Wilhelm Platz 1                 #
                #                 D-45470 Muelheim/Ruhr                 #
                #                      Germany                          #
                #                                                       #
                #                  All rights reserved                  #
                #                        -***-                          #
                #########################################################


                         Program Version 6.0.0  -   RELEASE  -


 With contributions from (in alphabetic order):
   Daniel Aravena         : Magnetic Suceptibility
   Michael Atanasov       : Ab Initio Ligand Field Theory (pilot matlab implementation)
   Alexander A. Auer      : GIAO ZORA, VPT2 properties, NMR spectrum
   Ute Becker             : All parallelization in ORCA, NUMFREQ, NUMCALC
   Giovanni Bistoni       : ED, misc. LED, open-shell LED, HFLD
   Martin Brehm           : Molecular dynamics
   Dmytro Bykov           : pre 5.0 version of the SCF Hessian
   Marcos Casanova-Páez   : Triplet and SCS-CIS(D). UHF-(DLPNO)-IP/EA/STEOM-CCSD. UHF-CVS-IP/STEOM-CCSD
   Vijay G. Chilkuri      : MRCI spin determinant printing, contributions to CSF-ICE
   Pauline Colinet        : FMM embedding
   Dipayan Datta          : RHF DLPNO-CCSD density
   Achintya Kumar Dutta   : EOM-CC, STEOM-CC
   Nicolas Foglia         : Exact transition moments, OPA infrastructure, MCD improvements
   Dmitry Ganyushin       : Spin-Orbit,Spin-Spin,Magnetic field MRCI
   Miquel Garcia          : C-PCM and meta-GGA Hessian, CCSD/C-PCM, Gaussian charge scheme
   Tiago L. C. Gouveia    : GS-ROHF, GS-ROCIS
   Yang Guo               : DLPNO-NEVPT2, F12-NEVPT2, CIM, IAO-localization
   Andreas Hansen         : Spin unrestricted coupled pair/coupled cluster methods
   Ingolf Harden          : AUTO-CI MPn and infrastructure 
   Benjamin Helmich-Paris : MC-RPA, TRAH-(SCF,CASSCF), AVAS, COSX integrals, SCF dyn. polar.
   Lee Huntington         : MR-EOM, pCC
   Robert Izsak           : Overlap fitted RIJCOSX, COSX-SCS-MP3, EOM
   Riya Kayal             : Wick's Theorem for AUTO-CI, AUTO-CI UHF-CCSDT
   Emily Kempfer          : AUTO-CI, RHF CISDT and CCSDT
   Christian Kollmar      : KDIIS, OOCD, Brueckner-CCSD(T), CCSD density, CASPT2, CASPT2-K, improved NEVPT2
   Axel Koslowski         : Symmetry handling
   Simone Kossmann        : Meta GGA functionals, TD-DFT gradient, OOMP2, (MP2 Hessian; deprecated post 5.0)
   Lucas Lang             : DCDCAS
   Marvin Lechner         : AUTO-CI (C++ implementation), FIC-MRCC
   Spencer Leger          : CASSCF response
   Dagmar Lenk            : GEPOL surface, SMD, ORCA-2-JSON
   Dimitrios Liakos       : Extrapolation schemes; Compound Job, initial MDCI parallelization
   Dimitrios Manganas     : Further ROCIS development; embedding schemes. LFT, Crystal Embedding
   Dimitrios Pantazis     : SARC Basis sets
   Anastasios Papadopoulos: AUTO-CI, single reference methods and gradients
   Taras Petrenko         : pre 6.0 DFT Hessian and TD-DFT gradient, (ASA, deprecated), ECA, 1-Electron XAS/XES, NRVS
   Peter Pinski           : DLPNO-MP2, DLPNO-MP2 Gradient
   Christoph Reimann      : Effective Core Potentials
   Marius Retegan         : Local ZFS, SOC
   Christoph Riplinger    : Optimizer, TS searches, QM/MM, DLPNO-CCSD(T), (RO)-DLPNO pert. Triples
   Michael Roemelt        : Original ROCIS implementation
   Masaaki Saitow         : Open-shell DLPNO-CCSD energy and density
   Barbara Sandhoefer     : DKH picture change effects
   Kantharuban Sivalingam : CASSCF convergence/infrastructure, NEVPT2 and variants, FIC-MRCI
   Bernardo de Souza      : ESD, SOC TD-DFT
   Georgi Stoychev        : AutoAux, RI-MP2 NMR, DLPNO-MP2 response, X2C
   Van Anh Tran           : RI-MP2 g-tensors
   Willem Van den Heuvel  : Paramagnetic NMR
   Zikuan Wang            : NOTCH, Electric field optimization 
   Frank Wennmohs         : Technical directorship and infrastructure
   Hang Xu                : AUTO-CI-Response properties 


 We gratefully acknowledge several colleagues who have allowed us to
 interface, adapt or use parts of their codes:
   Stefan Grimme, W. Hujo, H. Kruse, P. Pracht,  : VdW corrections, initial TS optimization,
                  C. Bannwarth, S. Ehlert,         DFT functionals, gCP, sTDA/sTD-DF
                  L. Wittmann, M. Mueller
   Ed Valeev, F. Pavosevic, A. Kumar             : LibInt (2-el integral package), F12 methods
   Garnet Chan, S. Sharma, J. Yang, R. Olivares  : DMRG
   Ulf Ekstrom                                   : XCFun DFT Library
   Mihaly Kallay                                 : mrcc  (arbitrary order and MRCC methods)
   Frank Weinhold                                : gennbo (NPA and NBO analysis)
   Simon Mueller                                 : openCOSMO-RS
   Christopher J. Cramer and Donald G. Truhlar   : smd solvation model
   Lars Goerigk                                  : TD-DFT with DH, B97 family of functionals
   V. Asgeirsson, H. Jonsson                     : NEB implementation
   FAccTs GmbH                                   : IRC, NEB, NEB-TS, DLPNO-Multilevel, CI-OPT
                                                   MM, QMMM, 2- and 3-layer-ONIOM, Crystal-QMMM,
                                                   LR-CPCM, SF, NACMEs, symmetry and pop. for TD-DFT,
                                                   nearIR, NL-DFT gradient (VV10), updates on ESD,
                                                   ML-optimized integration grids, MBIS, APM,
                                                   GOAT, DOCKER, SOLVATOR, interface openCOSMO-RS
   S Lehtola, MJT Oliveira, MAL Marques          : LibXC Library
   Liviu Ungur et al                             : ANISO software


 Your calculation uses the libint2 library for the computation of 2-el integrals
 For citations please refer to: http://libint.valeyev.net

 Your ORCA version has been built with support for libXC version: 6.2.2
 For citations please refer to: https://libxc.gitlab.io

 This ORCA versions uses:
   CBLAS   interface :  Fast vector & matrix operations
   LAPACKE interface :  Fast linear algebra routines
   SCALAPACK package :  Parallel linear algebra routines
   Shared memory     :  Shared parallel matrices
   BLAS/LAPACK       :  OpenBLAS 0.3.27  USE64BITINT DYNAMIC_ARCH NO_AFFINITY SkylakeX SINGLE_THREADED
        Core in use  :  SkylakeX
   Copyright (c) 2011-2014, The OpenBLAS Project


Your calculation utilizes the geometrical counterpoise correction gCP
Please cite in your paper:
H.Kruse, S. Grimme J.Chem.Phys., 136, (2012), 154101 
   

Your calculation utilizes the atom-pairwise dispersion correction
based on EEQ partial charges (D4)


Your calculation utilizes the SMD solvation module
Please cite in your paper:
A.V. Marenich, C.J. Cramer, D.G. Truhlar J. Phys. Chem. B, 113, (2009), 6378 

================================================================================

----- Orbital basis set information -----
Your calculation utilizes the basis: def2-mTZVPP
   Stefan Grimme, Andreas Hansen, Sebastian Ehlert, and Jan-Michael Mewes 
   J. Chem. Phys. 154, 064103 (2021). DOI: 10.1063/5.0040021

----- AuxJ basis set information -----
Your calculation utilizes the auxiliary basis: def2/J
   F. Weigend, Phys. Chem. Chem. Phys. 8, 1057 (2006).

================================================================================
                                        WARNINGS
                       Please study these warnings very carefully!
================================================================================

Using LibXC functional ID 497 : Re-regularized SCAN exchange by Furness et al
[ 1]  J. W. Furness, A. D. Kaplan, J. Ning, J. P. Perdew, and J. Sun.,  J. Phys. Chem. Lett. 11, 8208-8215 (2020)
[ 2]  J. W. Furness, A. D. Kaplan, J. Ning, J. P. Perdew, and J. Sun.,  J. Phys. Chem. Lett. 11, 9248-9248 (2020)
Using LibXC functional ID 498 : Re-regularized SCAN correlation by Furness et al
[ 1]  J. W. Furness, A. D. Kaplan, J. Ning, J. P. Perdew, and J. Sun.,  J. Phys. Chem. Lett. 11, 8208-8215 (2020)
[ 2]  J. W. Furness, A. D. Kaplan, J. Ning, J. P. Perdew, and J. Sun.,  J. Phys. Chem. Lett. 11, 9248-9248 (2020)
Using LibXC functional ID 497 : Re-regularized SCAN exchange by Furness et al
[ 1]  J. W. Furness, A. D. Kaplan, J. Ning, J. P. Perdew, and J. Sun.,  J. Phys. Chem. Lett. 11, 8208-8215 (2020)
[ 2]  J. W. Furness, A. D. Kaplan, J. Ning, J. P. Perdew, and J. Sun.,  J. Phys. Chem. Lett. 11, 9248-9248 (2020)
Using LibXC functional ID 498 : Re-regularized SCAN correlation by Furness et al
[ 1]  J. W. Furness, A. D. Kaplan, J. Ning, J. P. Perdew, and J. Sun.,  J. Phys. Chem. Lett. 11, 8208-8215 (2020)
[ 2]  J. W. Furness, A. D. Kaplan, J. Ning, J. P. Perdew, and J. Sun.,  J. Phys. Chem. Lett. 11, 9248-9248 (2020)

================================================================================
                                       INPUT FILE
================================================================================
NAME = sp_solv.inp
|  1> ! r2scan-3c def2/J RI DEFGRID2 scfconv6 printgap
|  2> %output
|  3>     printlevel normal
|  4> end
|  5> %cpcm
|  6>     smd true
|  7>     smdsolvent "water"
|  8> end
|  9> * xyz 0 1
| 10> C -3.4274074549 -1.0232807113 -0.0016779911
| 11> C -2.5513841331 0.1994600137 -0.0002271882
| 12> O -3.0386846576 1.3241512506 -5.5253e-06
| 13> C -1.0930642296 -0.0024504288 0.0006598229
| 14> C -0.2673084611 1.1238046188 0.0008152192
| 15> C 1.1069229578 1.0153738513 0.000743456
| 16> C 1.6975086372 -0.2479905203 0.0004824711
| 17> C 0.8786837659 -1.3840918764 0.0008833934
| 18> C -0.4903873167 -1.265715721 0.0009264556
| 19> O 3.0287116257 -0.4824364801 -0.0001273523
| 20> C 3.9234389205 0.6171363115 -0.0016922574
| 21> H -4.46970667 -0.7151627856 -0.003152825
| 22> H -3.2273107156 -1.6230814614 0.8822617095
| 23> H -3.2247752207 -1.622812142 -0.8851780419
| 24> H -0.7367436522 2.0967442819 0.0008492587
| 25> H 1.7068900898 1.9104759598 0.0008853766
| 26> H 1.3555750758 -2.3511157246 0.000950811
| 27> H -1.0904763118 -2.1601924432 0.0009390679
| 28> H 4.9171818646 0.1756589924 -0.002660013
| 29> H 3.793622206 1.2307784645 0.892673607
| 30> H 3.7914822602 1.2299218104 -0.8963442879
| 31> *
| 32> 
| 33>                          ****END OF INPUT****
================================================================================

                       ****************************
                       * Single Point Calculation *
                       ****************************

---------------------------------
CARTESIAN COORDINATES (ANGSTROEM)
---------------------------------
  C     -3.427407   -1.023281   -0.001678
  C     -2.551384    0.199460   -0.000227
  O     -3.038685    1.324151   -0.000006
  C     -1.093064   -0.002450    0.000660
  C     -0.267308    1.123805    0.000815
  C      1.106923    1.015374    0.000743
  C      1.697509   -0.247991    0.000482
  C      0.878684   -1.384092    0.000883
  C     -0.490387   -1.265716    0.000926
  O      3.028712   -0.482436   -0.000127
  C      3.923439    0.617136   -0.001692
  H     -4.469707   -0.715163   -0.003153
  H     -3.227311   -1.623081    0.882262
  H     -3.224775   -1.622812   -0.885178
  H     -0.736744    2.096744    0.000849
  H      1.706890    1.910476    0.000885
  H      1.355575   -2.351116    0.000951
  H     -1.090476   -2.160192    0.000939
  H      4.917182    0.175659   -0.002660
  H      3.793622    1.230778    0.892674
  H      3.791482    1.229922   -0.896344

----------------------------
CARTESIAN COORDINATES (A.U.)
----------------------------
  NO LB      ZA    FRAG     MASS         X           Y           Z
   0 C     6.0000    0    12.011   -6.476861   -1.933720   -0.003171
   1 C     6.0000    0    12.011   -4.821417    0.376925   -0.000429
   2 O     8.0000    0    15.999   -5.742282    2.502283   -0.000010
   3 C     6.0000    0    12.011   -2.065592   -0.004631    0.001247
   4 C     6.0000    0    12.011   -0.505140    2.123683    0.001541
   5 C     6.0000    0    12.011    2.091781    1.918779    0.001405
   6 C     6.0000    0    12.011    3.207826   -0.468634    0.000912
   7 C     6.0000    0    12.011    1.660472   -2.615555    0.001669
   8 C     6.0000    0    12.011   -0.926698   -2.391856    0.001751
   9 O     8.0000    0    15.999    5.723436   -0.911673   -0.000241
  10 C     6.0000    0    12.011    7.414225    1.166219   -0.003198
  11 H     1.0000    0     1.008   -8.446522   -1.351462   -0.005958
  12 H     1.0000    0     1.008   -6.098733   -3.067179    1.667233
  13 H     1.0000    0     1.008   -6.093942   -3.066671   -1.672744
  14 H     1.0000    0     1.008   -1.392244    3.962272    0.001605
  15 H     1.0000    0     1.008    3.225555    3.610276    0.001673
  16 H     1.0000    0     1.008    2.561666   -4.442965    0.001797
  17 H     1.0000    0     1.008   -2.060702   -4.082172    0.001775
  18 H     1.0000    0     1.008    9.292127    0.331947   -0.005027
  19 H     1.0000    0     1.008    7.168907    2.325834    1.686909
  20 H     1.0000    0     1.008    7.164863    2.324215   -1.693845

--------------------------------
INTERNAL COORDINATES (ANGSTROEM)
--------------------------------
 C      0   0   0     0.000000000000     0.00000000     0.00000000
 C      1   0   0     1.504165498122     0.00000000     0.00000000
 O      2   1   0     1.225721105583   120.95470153     0.00000000
 C      2   1   3     1.472231488090   117.73671195   180.01112073
 C      4   2   1     1.396539668468   118.36566668   179.94432134
 C      5   4   2     1.378502531439   121.73693821   180.04323883
 C      6   5   4     1.394589921179   119.56615888     0.00000000
 C      7   6   5     1.400428727901   119.16378086   359.97257864
 C      8   7   6     1.374179226023   120.83974243     0.02913510
 O      7   6   5     1.351690303488   125.04297479   179.97329357
 C     10   7   6     1.417603507690   119.14714530   359.94702803
 H      1   2   3     1.086888441870   109.15106843     0.04204595
 H      1   2   3     1.086806808589   109.91482941   239.90934112
 H      1   2   3     1.086770490259   109.91603556   120.17335885
 H      5   4   2     1.080268942363   117.99469028     0.03444395
 H      6   5   4     1.077575224410   119.32161790   180.00098902
 H      8   7   6     1.078220964826   117.96811418   180.01677904
 H      9   8   7     1.077123673845   118.91521352   179.98174247
 H     11  10   7     1.087395143809   105.18192309   180.04134802
 H     11  10   7     1.092382428779   111.08871941    61.39897925
 H     11  10   7     1.092392275484   111.08626080   298.68325775

---------------------------
INTERNAL COORDINATES (A.U.)
---------------------------
 C      0   0   0     0.000000000000     0.00000000     0.00000000
 C      1   0   0     2.842460851543     0.00000000     0.00000000
 O      2   1   0     2.316277206119   120.95470153     0.00000000
 C      2   1   3     2.782114318225   117.73671195   180.01112073
 C      4   2   1     2.639077508561   118.36566668   179.94432134
 C      5   4   2     2.604992259336   121.73693821   180.04323883
 C      6   5   4     2.635393020155   119.56615888     0.00000000
 C      7   6   5     2.646426765809   119.16378086   359.97257864
 C      8   7   6     2.596822396107   120.83974243     0.02913510
 O      7   6   5     2.554324491469   125.04297479   179.97329357
 C     10   7   6     2.678882396020   119.14714530   359.94702803
 H      1   2   3     2.053921493259   109.15106843     0.04204595
 H      1   2   3     2.053767228715   109.91482941   239.90934112
 H      1   2   3     2.053698597017   109.91603556   120.17335885
 H      5   4   2     2.041412452048   117.99469028     0.03444395
 H      6   5   4     2.036322062834   119.32161790   180.00098902
 H      8   7   6     2.037542335374   117.96811418   180.01677904
 H      9   8   7     2.035468755930   118.91521352   179.98174247
 H     11  10   7     2.054879021155   105.18192309   180.04134802
 H     11  10   7     2.064303623901   111.08871941    61.39897925
 H     11  10   7     2.064322231476   111.08626080   298.68325775

---------------------
BASIS SET INFORMATION
---------------------
There are 3 groups of distinct atoms

 Group   1 Type C   : 11s6p1d contracted to 5s3p1d pattern {62111/411/1}
 Group   2 Type O   : 11s6p2d contracted to 5s3p2d pattern {62111/411/11}
 Group   3 Type H   : 4s1p contracted to 2s1p pattern {31/1}

Atom   0C    basis set group =>   1
Atom   1C    basis set group =>   1
Atom   2O    basis set group =>   2
Atom   3C    basis set group =>   1
Atom   4C    basis set group =>   1
Atom   5C    basis set group =>   1
Atom   6C    basis set group =>   1
Atom   7C    basis set group =>   1
Atom   8C    basis set group =>   1
Atom   9O    basis set group =>   2
Atom  10C    basis set group =>   1
Atom  11H    basis set group =>   3
Atom  12H    basis set group =>   3
Atom  13H    basis set group =>   3
Atom  14H    basis set group =>   3
Atom  15H    basis set group =>   3
Atom  16H    basis set group =>   3
Atom  17H    basis set group =>   3
Atom  18H    basis set group =>   3
Atom  19H    basis set group =>   3
Atom  20H    basis set group =>   3
---------------------------------
AUXILIARY/J BASIS SET INFORMATION
---------------------------------
There are 3 groups of distinct atoms

 Group   1 Type C   : 12s5p4d2f1g contracted to 6s4p3d1f1g pattern {711111/2111/211/2/1}
 Group   2 Type O   : 12s5p4d2f1g contracted to 6s4p3d1f1g pattern {711111/2111/211/2/1}
 Group   3 Type H   : 5s2p1d contracted to 3s1p1d pattern {311/2/1}

Atom   0C    basis set group =>   1
Atom   1C    basis set group =>   1
Atom   2O    basis set group =>   2
Atom   3C    basis set group =>   1
Atom   4C    basis set group =>   1
Atom   5C    basis set group =>   1
Atom   6C    basis set group =>   1
Atom   7C    basis set group =>   1
Atom   8C    basis set group =>   1
Atom   9O    basis set group =>   2
Atom  10C    basis set group =>   1
Atom  11H    basis set group =>   3
Atom  12H    basis set group =>   3
Atom  13H    basis set group =>   3
Atom  14H    basis set group =>   3
Atom  15H    basis set group =>   3
Atom  16H    basis set group =>   3
Atom  17H    basis set group =>   3
Atom  18H    basis set group =>   3
Atom  19H    basis set group =>   3
Atom  20H    basis set group =>   3

Checking for AutoStart:
The File: sp_solv.gbw exists
Trying to determine its content:
     ... Fine, the file contains calculation information
     ... Fine, the calculation information was read
     ... Fine, the file contains a basis set
     ... Fine, the basis set was read
     ... Fine, the file contains a geometry
     ... Fine, the geometry was read
     ... Fine, the file contains a set of orbitals
     ... Fine, the orbitals can be read
     => possible old guess file was deleted
     => GBW file was renamed to GES file
     => GES file is set as startup file
     => Guess is set to MORead
     ... now leaving AutoStart

------------------------------------------------------------------------------
                             ORCA STARTUP CALCULATIONS
                           -- RI-GTO INTEGRALS CHOSEN --
------------------------------------------------------------------------------
------------------------------------------------------------------------------
                   ___                                                        
                  /   \      - P O W E R E D   B Y -                         
                 /     \                                                     
                 |  |  |   _    _      __       _____    __    __             
                 |  |  |  | |  | |    /  \     |  _  \  |  |  /  |          
                  \  \/   | |  | |   /    \    | | | |  |  | /  /          
                 / \  \   | |__| |  /  /\  \   | |_| |  |  |/  /          
                |  |  |   |  __  | /  /__\  \  |    /   |      \           
                |  |  |   | |  | | |   __   |  |    \   |  |\   \          
                \     /   | |  | | |  |  |  |  | |\  \  |  | \   \       
                 \___/    |_|  |_| |__|  |__|  |_| \__\ |__|  \__/        
                                                                              
                      - O R C A' S   B I G   F R I E N D -                    
                                      &                                       
                       - I N T E G R A L  F E E D E R -                       
                                                                              
 v1 FN, 2020, v2 2021, v3 2022-2024                                           
------------------------------------------------------------------------------


----------------------
SHARK INTEGRAL PACKAGE
----------------------

Number of atoms                             ...     21
Number of basis functions                   ...    269
Number of shells                            ...    131
Maximum angular momentum                    ...      2
Integral batch strategy                     ... SHARK/LIBINT Hybrid
RI-J (if used) integral strategy            ... SPLIT-RIJ (Revised 2003 algorithm where possible)
Printlevel                                  ...      1
Contraction scheme used                     ... SEGMENTED contraction
Prescreening option                         ... SCHWARTZ
   Thresh                                   ... 1.000e-10
   Tcut                                     ... 1.000e-11
   Tpresel                                  ... 1.000e-11 
Coulomb Range Separation                    ... NOT USED
Exchange Range Separation                   ... NOT USED
Multipole approximations                    ... NOT USED
Finite Nucleus Model                        ... NOT USED
CABS basis                                  ... NOT available
Auxiliary Coulomb fitting basis             ... AVAILABLE
   # of basis functions in Aux-J            ...    649
   # of shells in Aux-J                     ...    215
   Maximum angular momentum in Aux-J        ...      4
Auxiliary J/K fitting basis                 ... NOT available
Auxiliary Correlation fitting basis         ... NOT available
Auxiliary 'external' fitting basis          ... NOT available

Checking pre-screening integrals            ... done (  0.0 sec) Dimension = 131
Check shell pair data                       ... done (  0.0 sec)
Shell pair information
Shell pair cut-off parameter TPreSel        ...   1.0e-11
Total number of shell pairs                 ...      8646
Shell pairs after pre-screening             ...      7091
Total number of primitive shell pairs       ...     31647
Primitive shell pairs kept                  ...     17803
          la=0 lb=0:   2240 shell pairs
          la=1 lb=0:   2679 shell pairs
          la=1 lb=1:    825 shell pairs
          la=2 lb=0:    789 shell pairs
          la=2 lb=1:    479 shell pairs
          la=2 lb=2:     79 shell pairs

Calculating one electron integrals          ... done (  0.0 sec)
Calculating RI/J V-Matrix + Cholesky decomp.... done (  0.1 sec)
Calculating Nuclear repulsion               ... done (  0.0 sec) ENN=    573.432779933823 Eh

Diagonalization of the overlap matrix:
Smallest eigenvalue                        ... 2.110e-05
Time for diagonalization                   ...    0.006 sec
Threshold for overlap eigenvalues          ... 1.000e-07
Number of eigenvalues below threshold      ... 0
Time for construction of square roots      ...    0.018 sec
Total time needed                          ...    0.032 sec

-------------------
DFT GRID GENERATION
-------------------

General Integration Accuracy     IntAcc      ... 4.388
Radial Grid Type                 RadialGrid  ... OptM3 with GC (2021)
Angular Grid (max. ang.)         AngularGrid ... 4 (Lebedev-302)
Angular grid pruning method      GridPruning ... 4 (adaptive)
Weight generation scheme         WeightScheme... mBecke (2022)
Basis function cutoff            BFCut       ... 1.0000e-10
Integration weight cutoff        WCut        ... 1.0000e-14
Partially contracted basis set               ... off
Rotationally invariant grid construction     ... off
Angular grids for H and He will be reduced by one unit
Diffuse basis detected: some atoms will have their outermost
                        angular grid increased by 1.

Total number of grid points                  ...    98791
Total number of batches                      ...     1555
Average number of points per batch           ...       63
Average number of grid points per atom       ...     4704
Initializing property integral containers    ... done (  0.0 sec)

SHARK setup successfully completed in   1.4 seconds

Maximum memory used throughout the entire STARTUP-calculation: 46.0 MB
-------------------------------------------------------------------------------
                                 ORCA GUESS
                   Start orbitals & Density for SCF / CASSCF
-------------------------------------------------------------------------------

------------
SCF SETTINGS
------------
Hamiltonian:
 Density Functional     Method          .... DFT(GTOs)
  Functional kind                       .... Exchange
  Functional name                       .... Re-regularized SCAN exchange by Furness et al
  Functional family                     .... MGGA
  Functional refs                              
    [ 0] J. W. Furness, A. D. Kaplan, J. Ning, J. P. Perdew, and J. Sun.,  J. Phys. Chem. Lett. 11, 8208-8215 (2020), doi: 10.1021/acs.jpclett.0c02405
    [ 1] J. W. Furness, A. D. Kaplan, J. Ning, J. P. Perdew, and J. Sun.,  J. Phys. Chem. Lett. 11, 9248-9248 (2020), doi: 10.1021/acs.jpclett.0c03077
  Functional external parameters        .... 6
    Parameter  0 _c1        =  6.670000e-01 : c1 parameter        
    Parameter  1 _c2        =  8.000000e-01 : c2 parameter        
    Parameter  2 _d         =  1.240000e+00 : d parameter         
    Parameter  3 _k1        =  6.500000e-02 : k1 parameter        
    Parameter  4 _eta       =  1.000000e-03 : eta parameter       
    Parameter  5 _dp2       =  3.610000e-01 : dp2 parameter       
  Functional kind                       .... Correlation
  Functional name                       .... Re-regularized SCAN correlation by Furness et al
  Functional family                     .... MGGA
  Functional refs                              
    [ 0] J. W. Furness, A. D. Kaplan, J. Ning, J. P. Perdew, and J. Sun.,  J. Phys. Chem. Lett. 11, 8208-8215 (2020), doi: 10.1021/acs.jpclett.0c02405
    [ 1] J. W. Furness, A. D. Kaplan, J. Ning, J. P. Perdew, and J. Sun.,  J. Phys. Chem. Lett. 11, 9248-9248 (2020), doi: 10.1021/acs.jpclett.0c03077
  Functional external parameters        .... 1
    Parameter  0 _eta       =  1.000000e-03 : Regularization parameter
 Gradients option       PostSCFGGA      .... off
 RI-approximation to the Coulomb term is turned on
   Number of AuxJ basis functions       .... 649


General Settings:
 Integral files         IntName         .... sp_solv
 Hartree-Fock type      HFTyp           .... RHF
 Total Charge           Charge          ....    0
 Multiplicity           Mult            ....    1
 Number of Electrons    NEL             ....   80
 Basis Dimension        Dim             ....  269
 Nuclear Repulsion      ENuc            ....    573.4327799338 Eh

Convergence Acceleration:
 AO-DIIS                CNVDIIS         .... on
   Start iteration      DIISMaxIt       ....    12
   Startup error        DIISStart       ....  0.200000
   # of expansion vecs  DIISMaxEq       ....     5
   Bias factor          DIISBfac        ....   1.050
   Max. coefficient     DIISMaxC        ....  10.000
 MO-DIIS                CNVKDIIS        .... off
 Trust-Rad. Augm. Hess. CNVTRAH         .... auto
   Auto Start mean grad. ratio tolernc. ....  1.125000
   Auto Start start iteration           ....     1
   Auto Start num. interpolation iter.  ....    10
   Max. Number of Micro iterations      ....    24
   Max. Number of Macro iterations      .... Maxiter - #DIIS iter
   Number of Davidson start vectors     ....     2
   Converg. threshold    (grad. norm)   ....   3.330e-04
   Grad. Scal. Fac. for Micro threshold ....   0.100
   Minimum threshold for Micro iter.    ....   1.000e-02
   NR start threshold (gradient norm)   ....   1.000e-04
   Initial trust radius                 ....   0.400
   Minimum AH scaling param. (alpha)    ....   1.000
   Maximum AH scaling param. (alpha)    .... 1000.000
   Quad. conv. algorithm                .... NR
   White noise on init. David. guess    .... on
   Maximum white noise                  ....   0.010
   Pseudo random numbers                .... off
   Inactive MOs                         .... canonical
   Orbital update algorithm             .... Taylor
   Preconditioner                       .... Diag
   Full preconditioner red. dimension   ....   250
   COSX micro iterations for RIJONX calc.... off
 SOSCF                  CNVSOSCF        .... on
   Start iteration      SOSCFMaxIt      ....   150
   Startup grad/error   SOSCFStart      ....  0.003300
   Hessian update       SOSCFHessUp     .... L-BFGS
 Level Shifting         CNVShift        .... on
   Level shift para.    LevelShift      ....    0.2500
   Turn off err/grad.   ShiftErr        ....    0.0010
 Zerner damping         CNVZerner       .... off
 Static damping         CNVDamp         .... on
   Fraction old density DampFac         ....    0.7000
   Max. Damping (<1)    DampMax         ....    0.9800
   Min. Damping (>=0)   DampMin         ....    0.0000
   Turn off err/grad.   DampErr         ....    0.1000

SCF Procedure:
 Maximum # iterations   MaxIter         ....   125
 SCF integral mode      SCFMode         .... Direct
   Integral package                     .... SHARK and LIBINT hybrid scheme
 Reset frequency        DirectResetFreq ....    20
 Integral Threshold     Thresh          ....  1.000e-10 Eh
 Primitive CutOff       TCut            ....  1.000e-11 Eh

Convergence Tolerance:
 Convergence Check Mode ConvCheckMode   .... Total+1el-Energy
 Convergence forced     ConvForced      .... 0
 Energy Change          TolE            ....  1.000e-06 Eh
 1-El. energy change                    ....  1.000e-03 Eh
 Orbital Gradient       TolG            ....  3.330e-04
 Orbital Rotation angle TolX            ....  3.330e-04
 DIIS Error             TolErr          ....  1.000e-06

---------------------
INITIAL GUESS: MOREAD
---------------------
Guess MOs are being read from file: sp_solv.ges
Input Geometry matches current geometry (good)
Atom 0: N(Shells)= 9 and 6 - projection required
Input basis set needs projection
NBasis(read)= 174
NBasis(calc)= 269
Basis set overlap was calculated
Using GuessMode=FMatrix for the initial guess
C*T matrix was formed
Effective Fockian was calculated
Effective Fockian was diagonalized
Initial density was built
                      ------------------
                      INITIAL GUESS DONE (   0.1 sec)
                      ------------------
             **** ENERGY FILE WAS UPDATED (sp_solv.en.tmp) ****
Finished Guess after   0.3 sec
Maximum memory used throughout the entire GUESS-calculation: 20.0 MB

-------------------------------------------------------------------------------------------
                                      ORCA LEAN-SCF
                              memory conserving SCF solver
-------------------------------------------------------------------------------------------

--------------------
CPCM SOLVATION MODEL
--------------------
CPCM parameters:
  Epsilon                                         ...      78.3550
  Refrac                                          ...       1.3328
  Rsolv                                           ...       1.3000
  Surface type                                    ... GAUSSIAN VDW
  Discretization scheme                           ... Constant charge density
    Threshold for H atoms                         ...       5.0000 (charges/Ang^2)
    Threshold for non-H atoms                     ...       5.0000 (charges/Ang^2)
  Epsilon function type                           ...         CPCM
Solvent:                                          ... WATER
SMD-CDS solvent descriptors:
  Soln                                            ...       1.3328
  Soln25                                          ...       1.3323
  Sola                                            ...       0.0000
  Solb                                            ...       0.0000
  Solg                                            ...       0.0000
  Solc                                            ...       0.0000
  Solh                                            ...       0.0000
Radii:
  Scheme                                          ... Element-dependent radii
  Radius for C  used is    3.4960 Bohr (=   1.8500 Ang.)
  Radius for O  used is    2.8724 Bohr (=   1.5200 Ang.)
  Radius for H  used is    2.2677 Bohr (=   1.2000 Ang.)
Calculating surface                               ...        done! (  0.0s)
Cavity surface points                             ...         1589
Cavity Volume                                     ...    1055.2130
Cavity Surface-area                               ...     650.8764
Calculating surface distance matrix               ...        done! (  0.0s)
Performing Cholesky decomposition & store         ...        done! (  0.1s)
Overall time for CPCM initialization              ...                 0.1s

----------------------------------------D-I-I-S--------------------------------------------
Iteration    Energy (Eh)           Delta-E    RMSDP     MaxDP     DIISErr   Damp  Time(sec)
-------------------------------------------------------------------------------------------
               ***  Starting incremental Fock matrix formation  ***
    1    -499.0882870788894934     0.00e+00  1.19e-02  5.64e-01  6.25e-01  0.700   4.1
    2    -499.1587873080117106    -7.05e-02  9.03e-03  4.07e-01  4.40e-01  0.700   3.8
    3    -499.2086110524736569    -4.98e-02  6.43e-03  2.81e-01  3.10e-01  0.700   3.8
    4    -499.2436277799678237    -3.50e-02  4.53e-03  1.93e-01  2.17e-01  0.700   3.6
                               ***Turning on AO-DIIS***
    5    -499.2682141831038507    -2.46e-02  3.20e-03  1.31e-01  1.52e-01  0.700   3.6
    6    -499.2854454692086392    -1.72e-02  2.25e-03  9.11e-02  1.05e-01  0.700   3.6
    7    -499.2975459383795851    -1.21e-02  1.57e-03  6.35e-02  7.40e-02  0.700   3.5
    8    -499.3060260901055472    -8.48e-03  3.67e-03  1.46e-01  5.20e-02  0.000   3.6
                              *** Initializing SOSCF ***
---------------------------------------S-O-S-C-F--------------------------------------
Iteration    Energy (Eh)           Delta-E    RMSDP     MaxDP     MaxGrad    Time(sec)
--------------------------------------------------------------------------------------
    9    -499.3258521389872158    -1.98e-02  3.89e-05  1.81e-03  1.93e-04     3.7
               *** Restarting incremental Fock matrix formation ***
   10    -499.3258524312803956    -2.92e-07  2.53e-05  1.02e-03  1.07e-04     4.1
   11    -499.3258520644170630     3.67e-07  1.39e-05  4.79e-04  1.55e-04     3.2
                 **** Energy Check signals convergence ****

               *****************************************************
               *                     SUCCESS                       *
               *           SCF CONVERGED AFTER  11 CYCLES          *
               *****************************************************


SMD CDS free energy correction energy :                 5.68397     Kcal/mol
Total Energy after SMD CDS correction =              -499.316794081 Eh
             **** ENERGY FILE WAS UPDATED (sp_solv.en.tmp) ****

----------------
TOTAL SCF ENERGY
----------------

Total Energy       :       -499.31679408108766 Eh          -13587.10072 eV

Components:
Nuclear Repulsion  :        573.43277993382287 Eh           15603.89923 eV
Electronic Energy  :      -1072.73398397531673 Eh          -29190.57572 eV
One Electron Energy:      -1814.56065224274630 Eh          -49376.70561 eV
Two Electron Energy:        741.82666826742945 Eh           20186.12989 eV
CPCM Dielectric    :         -0.02464802292330 Eh              -0.67071 eV
SMD CDS (Gcds)     :          0.00905798332940 Eh               0.24648 eV

Virial components:
Potential Energy   :       -996.65668889308972 Eh          -27120.40728 eV
Kinetic Energy     :        497.33989481200200 Eh           13533.30656 eV
Virial Ratio       :          2.00397494608759

DFT components:
N(Alpha)           :       40.000091253999 electrons
N(Beta)            :       40.000091253999 electrons
N(Total)           :       80.000182507998 electrons
E(X)               :      -67.013601196987 Eh       
E(C)               :       -2.594418797236 Eh       
E(XC)              :      -69.608019994223 Eh       

CPCM Solvation Model Properties:
Surface-charge          :         -0.04860838127653
Corrected charge        :          0.00000000000000
Outlying charge corr.   :          0.00016701182940 Eh               0.00454 eV
Free-energy (cav+disp)  :          0.00905798332940 Eh               0.24648 eV

---------------
SCF CONVERGENCE
---------------

  Last Energy change         ...   -3.6686e-07  Tolerance :   1.0000e-06
  Last MAX-Density change    ...    4.7918e-04  Tolerance :   1.0000e-05
  Last RMS-Density change    ...    1.3870e-05  Tolerance :   1.0000e-06
  Last DIIS Error            ...    1.9253e-04  Tolerance :   1.0000e-06
  Last Orbital Gradient      ...    1.5527e-04  Tolerance :   3.3300e-04
  Last Orbital Rotation      ...    3.7380e-04  Tolerance :   3.3300e-04


----------------
ORBITAL ENERGIES
----------------

  NO   OCC          E(Eh)            E(eV) 
   0   2.0000     -18.998668      -516.9800 
   1   2.0000     -18.940278      -515.3912 
   2   2.0000     -10.123512      -275.4748 
   3   2.0000     -10.110580      -275.1229 
   4   2.0000     -10.076113      -274.1850 
   5   2.0000     -10.047668      -273.4109 
   6   2.0000     -10.045663      -273.3564 
   7   2.0000     -10.041394      -273.2402 
   8   2.0000     -10.040442      -273.2143 
   9   2.0000     -10.038451      -273.1601 
  10   2.0000     -10.022267      -272.7197 
  11   2.0000      -1.046472       -28.4760 
  12   2.0000      -1.007993       -27.4289 
  13   2.0000      -0.835507       -22.7353 
  14   2.0000      -0.747872       -20.3506 
  15   2.0000      -0.731435       -19.9034 
  16   2.0000      -0.701214       -19.0810 
  17   2.0000      -0.668779       -18.1984 
  18   2.0000      -0.588835       -16.0230 
  19   2.0000      -0.582950       -15.8629 
  20   2.0000      -0.525247       -14.2927 
  21   2.0000      -0.504204       -13.7201 
  22   2.0000      -0.464240       -12.6326 
  23   2.0000      -0.448787       -12.2121 
  24   2.0000      -0.439104       -11.9486 
  25   2.0000      -0.420384       -11.4392 
  26   2.0000      -0.414254       -11.2724 
  27   2.0000      -0.404180       -10.9983 
  28   2.0000      -0.396545       -10.7905 
  29   2.0000      -0.381221       -10.3736 
  30   2.0000      -0.373585       -10.1658 
  31   2.0000      -0.361189        -9.8284 
  32   2.0000      -0.343660        -9.3515 
  33   2.0000      -0.336404        -9.1540 
  34   2.0000      -0.329686        -8.9712 
  35   2.0000      -0.300127        -8.1669 
  36   2.0000      -0.299923        -8.1613 
  37   2.0000      -0.250084        -6.8051 
  38   2.0000      -0.227311        -6.1855 
  39   2.0000      -0.216797        -5.8994 
  40   0.0000      -0.082639        -2.2487 
  41   0.0000      -0.040393        -1.0992 
  42   0.0000       0.017148         0.4666 
  43   0.0000       0.068545         1.8652 
  44   0.0000       0.084250         2.2926 
  45   0.0000       0.103760         2.8235 
  46   0.0000       0.116860         3.1799 
  47   0.0000       0.126325         3.4375 
  48   0.0000       0.132860         3.6153 
  49   0.0000       0.138407         3.7663 
  50   0.0000       0.150253         4.0886 
*Only the first 10 virtual orbitals were printed.

                    ********************************
                    * MULLIKEN POPULATION ANALYSIS *
                    ********************************

-----------------------
MULLIKEN ATOMIC CHARGES
-----------------------
   0 C :   -0.590380
   1 C :    0.308640
   2 O :   -0.464967
   3 C :    0.101957
   4 C :   -0.210153
   5 C :   -0.296543
   6 C :    0.374121
   7 C :   -0.378944
   8 C :   -0.164314
   9 O :   -0.208633
  10 C :   -0.338911
  11 H :    0.183926
  12 H :    0.199484
  13 H :    0.199478
  14 H :    0.193945
  15 H :    0.189385
  16 H :    0.187448
  17 H :    0.184140
  18 H :    0.176887
  19 H :    0.176708
  20 H :    0.176726
Sum of atomic charges:    0.0000000

--------------------------------
MULLIKEN REDUCED ORBITAL CHARGES
--------------------------------
  0 C s       :     3.402587  s :     3.402587
      pz      :     1.089477  p :     3.163552
      px      :     1.057834
      py      :     1.016241
      dz2     :     0.004987  d :     0.024241
      dxz     :     0.001573
      dyz     :     0.005681
      dx2y2   :     0.005127
      dxy     :     0.006873

  1 C s       :     3.172558  s :     3.172558
      pz      :     0.722590  p :     2.426245
      px      :     0.924914
      py      :     0.778741
      dz2     :     0.004426  d :     0.092557
      dxz     :     0.008159
      dyz     :     0.015956
      dx2y2   :     0.033069
      dxy     :     0.030946

  2 O s       :     3.832960  s :     3.832960
      pz      :     1.442843  p :     4.605913
      px      :     1.771887
      py      :     1.391183
      dz2     :     0.003571  d :     0.026095
      dxz     :     0.003945
      dyz     :     0.006548
      dx2y2   :     0.006439
      dxy     :     0.005591

  3 C s       :     3.122745  s :     3.122745
      pz      :     1.057065  p :     2.730846
      px      :     0.798587
      py      :     0.875194
      dz2     :     0.003764  d :     0.044452
      dxz     :     0.003631
      dyz     :     0.006564
      dx2y2   :     0.015849
      dxy     :     0.014644

  4 C s       :     3.264256  s :     3.264256
      pz      :     0.928055  p :     2.907677
      px      :     0.968411
      py      :     1.011211
      dz2     :     0.003212  d :     0.038220
      dxz     :     0.007147
      dyz     :     0.003039
      dx2y2   :     0.011653
      dxy     :     0.013169

  5 C s       :     3.254747  s :     3.254747
      pz      :     1.050468  p :     3.006320
      px      :     0.976562
      py      :     0.979290
      dz2     :     0.003352  d :     0.035477
      dxz     :     0.004762
      dyz     :     0.003468
      dx2y2   :     0.010510
      dxy     :     0.013385

  6 C s       :     3.096615  s :     3.096615
      pz      :     0.930944  p :     2.455442
      px      :     0.741461
      py      :     0.783037
      dz2     :     0.004779  d :     0.073823
      dxz     :     0.016201
      dyz     :     0.007473
      dx2y2   :     0.022500
      dxy     :     0.022869

  7 C s       :     3.310916  s :     3.310916
      pz      :     1.028198  p :     3.032668
      px      :     0.990473
      py      :     1.013997
      dz2     :     0.003342  d :     0.035360
      dxz     :     0.005508
      dyz     :     0.002854
      dx2y2   :     0.009594
      dxy     :     0.014062

  8 C s       :     3.215805  s :     3.215805
      pz      :     0.953249  p :     2.910254
      px      :     0.948182
      py      :     1.008823
      dz2     :     0.003234  d :     0.038256
      dxz     :     0.006373
      dyz     :     0.003861
      dx2y2   :     0.011569
      dxy     :     0.013218

  9 O s       :     3.710131  s :     3.710131
      pz      :     1.788264  p :     4.456083
      px      :     1.109510
      py      :     1.558309
      dz2     :     0.004185  d :     0.042419
      dxz     :     0.000662
      dyz     :     0.007911
      dx2y2   :     0.015136
      dxy     :     0.014526

 10 C s       :     3.357139  s :     3.357139
      pz      :     1.108064  p :     2.936682
      px      :     0.951948
      py      :     0.876670
      dz2     :     0.007085  d :     0.045090
      dxz     :     0.003171
      dyz     :     0.013146
      dx2y2   :     0.009112
      dxy     :     0.012575

 11 H s       :     0.798029  s :     0.798029
      pz      :     0.003456  p :     0.018045
      px      :     0.010798
      py      :     0.003790

 12 H s       :     0.781862  s :     0.781862
      pz      :     0.008691  p :     0.018653
      px      :     0.003752
      py      :     0.006211

 13 H s       :     0.781867  s :     0.781867
      pz      :     0.008688  p :     0.018655
      px      :     0.003758
      py      :     0.006209

 14 H s       :     0.786098  s :     0.786098
      pz      :     0.003630  p :     0.019957
      px      :     0.005410
      py      :     0.010917

 15 H s       :     0.790332  s :     0.790332
      pz      :     0.004306  p :     0.020283
      px      :     0.006167
      py      :     0.009810

 16 H s       :     0.792777  s :     0.792777
      pz      :     0.004123  p :     0.019775
      px      :     0.004782
      py      :     0.010871

 17 H s       :     0.795850  s :     0.795850
      pz      :     0.003796  p :     0.020010
      px      :     0.006317
      py      :     0.009897

 18 H s       :     0.805386  s :     0.805386
      pz      :     0.003662  p :     0.017727
      px      :     0.010345
      py      :     0.003719

 19 H s       :     0.805610  s :     0.805610
      pz      :     0.008997  p :     0.017681
      px      :     0.002896
      py      :     0.005789

 20 H s       :     0.805593  s :     0.805593
      pz      :     0.009002  p :     0.017681
      px      :     0.002898
      py      :     0.005781


------------------------
MULLIKEN OVERLAP CHARGES
------------------------
B(  0-C ,  1-C ) :   0.4220 B(  0-C ,  2-O ) :  -0.1234 B(  0-C ,  3-C ) :  -0.2139 
B(  0-C , 11-H ) :   0.8424 B(  0-C , 12-H ) :   0.8060 B(  0-C , 13-H ) :   0.8064 
B(  1-C ,  2-O ) :   1.1647 B(  1-C ,  3-C ) :  -0.4199 B(  1-C ,  4-C ) :  -0.3238 
B(  1-C ,  5-C ) :   0.1856 B(  1-C ,  7-C ) :   0.0560 B(  1-C ,  8-C ) :  -0.1294 
B(  1-C , 11-H ) :  -0.1034 B(  1-C , 12-H ) :  -0.0656 B(  1-C , 13-H ) :  -0.0662 
B(  2-O ,  3-C ) :  -0.4562 B(  2-O ,  4-C ) :   0.0662 B(  3-C ,  4-C ) :   0.7606 
B(  3-C ,  5-C ) :  -0.1493 B(  3-C ,  6-C ) :  -0.1605 B(  3-C ,  7-C ) :   0.0577 
B(  3-C ,  8-C ) :   0.5541 B(  3-C , 14-H ) :  -0.1095 B(  3-C , 17-H ) :  -0.0634 
B(  4-C ,  5-C ) :   0.1484 B(  4-C ,  6-C ) :   0.1258 B(  4-C ,  7-C ) :  -0.1982 
B(  4-C ,  8-C ) :  -0.1341 B(  4-C , 14-H ) :   0.9038 B(  5-C ,  6-C ) :   0.6574 
B(  5-C ,  7-C ) :  -0.2111 B(  5-C ,  8-C ) :  -0.1324 B(  5-C ,  9-O ) :  -0.1374 
B(  5-C , 14-H ) :  -0.0960 B(  5-C , 15-H ) :   0.7960 B(  6-C ,  7-C ) :   0.6776 
B(  6-C ,  8-C ) :   0.1135 B(  6-C ,  9-O ) :   0.5379 B(  6-C , 10-C ) :  -0.2715 
B(  6-C , 15-H ) :  -0.0773 B(  6-C , 16-H ) :  -0.0635 B(  7-C ,  8-C ) :   0.1561 
B(  7-C ,  9-O ) :  -0.1026 B(  7-C , 16-H ) :   0.8289 B(  7-C , 17-H ) :  -0.0624 
B(  8-C , 16-H ) :  -0.0601 B(  8-C , 17-H ) :   0.8135 B(  9-O , 10-C ) :   0.3900 
B(  9-O , 18-H ) :  -0.0786 B(  9-O , 19-H ) :  -0.0724 B(  9-O , 20-H ) :  -0.0723 
B( 10-C , 18-H ) :   0.7803 B( 10-C , 19-H ) :   0.8194 B( 10-C , 20-H ) :   0.8194 
B( 19-H , 20-H ) :  -0.0673 


                     *******************************
                     * LOEWDIN POPULATION ANALYSIS *
                     *******************************

----------------------
LOEWDIN ATOMIC CHARGES
----------------------
   0 C :   -0.380997
   1 C :    0.243817
   2 O :   -0.570707
   3 C :   -0.112882
   4 C :   -0.098214
   5 C :   -0.160609
   6 C :    0.203348
   7 C :   -0.136164
   8 C :   -0.118808
   9 O :   -0.685292
  10 C :   -0.045786
  11 H :    0.175925
  12 H :    0.186554
  13 H :    0.186519
  14 H :    0.194051
  15 H :    0.192669
  16 H :    0.192182
  17 H :    0.189551
  18 H :    0.189327
  19 H :    0.177749
  20 H :    0.177768

-------------------------------
LOEWDIN REDUCED ORBITAL CHARGES
-------------------------------
  0 C s       :     2.964050  s :     2.964050
      pz      :     1.150372  p :     3.360596
      px      :     1.124821
      py      :     1.085403
      dz2     :     0.011822  d :     0.056351
      dxz     :     0.002894
      dyz     :     0.014319
      dx2y2   :     0.012116
      dxy     :     0.015201

  1 C s       :     2.812677  s :     2.812677
      pz      :     0.702377  p :     2.745282
      px      :     1.020285
      py      :     1.022619
      dz2     :     0.011811  d :     0.198224
      dxz     :     0.014036
      dyz     :     0.027277
      dx2y2   :     0.074187
      dxy     :     0.070913

  2 O s       :     3.558683  s :     3.558683
      pz      :     1.430472  p :     4.765262
      px      :     1.766497
      py      :     1.568293
      dz2     :     0.030804  d :     0.246762
      dxz     :     0.015036
      dyz     :     0.030612
      dx2y2   :     0.084663
      dxy     :     0.085647

  3 C s       :     2.856391  s :     2.856391
      pz      :     1.030273  p :     3.162150
      px      :     1.036522
      py      :     1.095356
      dz2     :     0.007370  d :     0.094341
      dxz     :     0.005797
      dyz     :     0.011737
      dx2y2   :     0.035804
      dxy     :     0.033633

  4 C s       :     2.896276  s :     2.896276
      pz      :     0.923274  p :     3.119106
      px      :     1.086545
      py      :     1.109287
      dz2     :     0.005380  d :     0.082833
      dxz     :     0.013060
      dyz     :     0.005049
      dx2y2   :     0.027924
      dxy     :     0.031420

  5 C s       :     2.890947  s :     2.890947
      pz      :     1.028806  p :     3.192011
      px      :     1.087113
      py      :     1.076092
      dz2     :     0.005642  d :     0.077651
      dxz     :     0.008339
      dyz     :     0.005757
      dx2y2   :     0.026102
      dxy     :     0.031811

  6 C s       :     2.781317  s :     2.781317
      pz      :     0.873109  p :     2.853943
      px      :     0.895496
      py      :     1.085337
      dz2     :     0.010904  d :     0.161393
      dxz     :     0.031308
      dyz     :     0.012829
      dx2y2   :     0.051423
      dxy     :     0.054928

  7 C s       :     2.892452  s :     2.892452
      pz      :     1.011231  p :     3.166925
      px      :     1.074152
      py      :     1.081541
      dz2     :     0.005562  d :     0.076787
      dxz     :     0.009655
      dyz     :     0.004551
      dx2y2   :     0.024689
      dxy     :     0.032330

  8 C s       :     2.895365  s :     2.895365
      pz      :     0.943214  p :     3.140272
      px      :     1.099430
      py      :     1.097628
      dz2     :     0.005449  d :     0.083172
      dxz     :     0.011504
      dyz     :     0.006732
      dx2y2   :     0.027596
      dxy     :     0.031891

  9 O s       :     3.464986  s :     3.464986
      pz      :     1.768403  p :     4.728528
      px      :     1.350616
      py      :     1.609509
      dz2     :     0.049140  d :     0.491777
      dxz     :     0.088729
      dyz     :     0.058853
      dx2y2   :     0.152499
      dxy     :     0.142558

 10 C s       :     2.904207  s :     2.904207
      pz      :     1.111864  p :     3.034193
      px      :     0.981861
      py      :     0.940468
      dz2     :     0.016777  d :     0.107386
      dxz     :     0.005444
      dyz     :     0.032999
      dx2y2   :     0.022584
      dxy     :     0.029582

 11 H s       :     0.780559  s :     0.780559
      pz      :     0.007735  p :     0.043517
      px      :     0.027084
      py      :     0.008698

 12 H s       :     0.767662  s :     0.767662
      pz      :     0.022034  p :     0.045784
      px      :     0.008678
      py      :     0.015071

 13 H s       :     0.767694  s :     0.767694
      pz      :     0.022024  p :     0.045787
      px      :     0.008696
      py      :     0.015067

 14 H s       :     0.759098  s :     0.759098
      pz      :     0.007981  p :     0.046851
      px      :     0.012708
      py      :     0.026162

 15 H s       :     0.759869  s :     0.759869
      pz      :     0.009889  p :     0.047462
      px      :     0.014210
      py      :     0.023363

 16 H s       :     0.761706  s :     0.761706
      pz      :     0.009416  p :     0.046112
      px      :     0.011082
      py      :     0.025614

 17 H s       :     0.763861  s :     0.763861
      pz      :     0.008415  p :     0.046587
      px      :     0.014475
      py      :     0.023698

 18 H s       :     0.770338  s :     0.770338
      pz      :     0.007750  p :     0.040335
      px      :     0.023053
      py      :     0.009533

 19 H s       :     0.780765  s :     0.780765
      pz      :     0.022055  p :     0.041486
      px      :     0.006645
      py      :     0.012786

 20 H s       :     0.780747  s :     0.780747
      pz      :     0.022064  p :     0.041485
      px      :     0.006653
      py      :     0.012767


---------------------------------
LOEWDIN BOND ORDERS (THRESH 0.050000)
---------------------------------
B(  0-C ,  1-C ) :   1.0422 B(  0-C ,  2-O ) :   0.2142 B(  0-C ,  3-C ) :   0.0837 
B(  0-C , 11-H ) :   0.9077 B(  0-C , 12-H ) :   0.8936 B(  0-C , 13-H ) :   0.8936 
B(  1-C ,  2-O ) :   2.2479 B(  1-C ,  3-C ) :   1.0217 B(  1-C ,  4-C ) :   0.0952 
B(  1-C ,  8-C ) :   0.0888 B(  2-O ,  3-C ) :   0.2191 B(  2-O ,  4-C ) :   0.0864 
B(  3-C ,  4-C ) :   1.3776 B(  3-C ,  5-C ) :   0.0923 B(  3-C ,  6-C ) :   0.0922 
B(  3-C ,  7-C ) :   0.0936 B(  3-C ,  8-C ) :   1.3669 B(  4-C ,  5-C ) :   1.5398 
B(  4-C ,  6-C ) :   0.0995 B(  4-C ,  7-C ) :   0.1138 B(  4-C ,  8-C ) :   0.0832 
B(  4-C , 14-H ) :   0.8447 B(  4-C , 15-H ) :   0.0552 B(  5-C ,  6-C ) :   1.2937 
B(  5-C ,  7-C ) :   0.0841 B(  5-C ,  8-C ) :   0.1044 B(  5-C ,  9-O ) :   0.2025 
B(  5-C , 14-H ) :   0.0537 B(  5-C , 15-H ) :   0.8494 B(  6-C ,  7-C ) :   1.2736 
B(  6-C ,  8-C ) :   0.0948 B(  6-C ,  9-O ) :   1.4960 B(  6-C , 10-C ) :   0.0809 
B(  6-C , 15-H ) :   0.0513 B(  6-C , 16-H ) :   0.0532 B(  7-C ,  8-C ) :   1.5635 
B(  7-C ,  9-O ) :   0.2256 B(  7-C , 16-H ) :   0.8529 B(  7-C , 17-H ) :   0.0558 
B(  8-C , 16-H ) :   0.0546 B(  8-C , 17-H ) :   0.8523 B(  9-O , 10-C ) :   1.3932 
B(  9-O , 18-H ) :   0.1033 B(  9-O , 19-H ) :   0.1022 B(  9-O , 20-H ) :   0.1022 
B( 10-C , 18-H ) :   0.8557 B( 10-C , 19-H ) :   0.8547 B( 10-C , 20-H ) :   0.8547 


------------------------------------------
LOEWDIN REDUCED ORBITAL POPULATIONS PER MO
-------------------------------------------
THRESHOLD FOR PRINTING IS 0.1%%
                      0         1         2         3         4         5   
                 -18.99867 -18.94028 -10.12351 -10.11058 -10.07611 -10.04767
                   2.00000   2.00000   2.00000   2.00000   2.00000   2.00000
                  --------  --------  --------  --------  --------  --------
 1 C  s               0.0       0.0      99.2       0.0       0.0       0.0
 2 O  s               0.0      99.9       0.0       0.0       0.0       0.0
 2 O  py              0.0       0.0       0.2       0.0       0.0       0.0
 2 O  dx2y2           0.0       0.0       0.1       0.0       0.0       0.0
 2 O  dxy             0.0       0.0       0.1       0.0       0.0       0.0
 3 C  s               0.0       0.0       0.0       0.0       0.0       0.1
 3 C  py              0.0       0.0       0.0       0.0       0.0       0.1
 6 C  s               0.0       0.0       0.0      99.2       0.0       0.0
 7 C  px              0.0       0.0       0.0       0.0       0.0       0.1
 8 C  s               0.0       0.0       0.0       0.0       0.0      99.4
 9 O  s              99.9       0.0       0.0       0.0       0.0       0.0
 9 O  px              0.0       0.0       0.0       0.1       0.0       0.0
 9 O  dx2y2           0.0       0.0       0.0       0.2       0.0       0.0
 9 O  dxy             0.0       0.0       0.0       0.0       0.2       0.0
10 C  s               0.0       0.0       0.0       0.0      99.4       0.0

                      6         7         8         9        10        11   
                 -10.04566 -10.04139 -10.04044 -10.03845 -10.02227  -1.04647
                   2.00000   2.00000   2.00000   2.00000   2.00000   2.00000
                  --------  --------  --------  --------  --------  --------
 0 C  s               0.0       0.0       0.0       0.0      99.7       0.0
 3 C  s               0.3      99.2       0.0       0.0       0.0       0.0
 4 C  s              99.1       0.3       0.3       0.0       0.0       0.1
 4 C  px              0.0       0.0       0.1       0.0       0.0       0.1
 5 C  s               0.2       0.0      99.3       0.0       0.0       0.7
 5 C  px              0.1       0.0       0.0       0.0       0.0       0.6
 5 C  py              0.0       0.0       0.0       0.0       0.0       0.8
 6 C  s               0.0       0.0       0.0       0.0       0.0       9.3
 6 C  px              0.0       0.0       0.0       0.0       0.0       8.9
 6 C  py              0.0       0.0       0.1       0.1       0.0       0.1
 6 C  dz2             0.0       0.0       0.0       0.0       0.0       0.3
 6 C  dx2y2           0.0       0.0       0.0       0.0       0.0       0.6
 7 C  s               0.0       0.0       0.0      99.5       0.0       0.8
 7 C  px              0.0       0.0       0.0       0.0       0.0       0.9
 7 C  py              0.0       0.0       0.0       0.0       0.0       0.6
 8 C  s               0.0       0.1       0.0       0.1       0.0       0.1
 8 C  px              0.0       0.0       0.0       0.1       0.0       0.1
 8 C  py              0.0       0.1       0.0       0.0       0.0       0.0
 9 O  s               0.0       0.0       0.0       0.0       0.0      57.3
 9 O  px              0.0       0.0       0.0       0.0       0.0       0.7
 9 O  py              0.0       0.0       0.0       0.0       0.0       1.7
 9 O  dz2             0.0       0.0       0.0       0.0       0.0       0.3
 9 O  dx2y2           0.0       0.0       0.0       0.0       0.0       0.1
10 C  s               0.0       0.0       0.0       0.0       0.0       6.4
10 C  px              0.0       0.0       0.0       0.0       0.0       3.4
10 C  py              0.0       0.0       0.0       0.0       0.0       3.7
10 C  dz2             0.0       0.0       0.0       0.0       0.0       0.2
10 C  dxy             0.0       0.0       0.0       0.0       0.0       0.5
18 H  s               0.0       0.0       0.0       0.0       0.0       0.4
19 H  s               0.0       0.0       0.0       0.0       0.0       0.4
20 H  s               0.0       0.0       0.0       0.0       0.0       0.4

                     12        13        14        15        16        17   
                  -1.00799  -0.83551  -0.74787  -0.73143  -0.70121  -0.66878
                   2.00000   2.00000   2.00000   2.00000   2.00000   2.00000
                  --------  --------  --------  --------  --------  --------
 0 C  s               1.1       0.2       6.0       1.6      24.9       5.7
 0 C  px              0.3       0.2       0.7       0.1       0.2       0.1
 0 C  py              1.6       0.0       0.1       0.0       0.2       0.0
 1 C  s              17.2       0.7       4.7       0.3       4.1       0.0
 1 C  px              1.9       2.4       2.5       0.3       2.0       5.5
 1 C  py             10.8       0.7       5.4       1.0       8.5       0.7
 1 C  dz2             0.5       0.0       0.0       0.0       0.0       0.0
 1 C  dx2y2           0.5       0.1       0.1       0.0       0.0       0.1
 1 C  dxy             0.6       0.0       0.1       0.0       0.3       0.0
 2 O  s              54.0       0.8       2.9       0.0       2.0       0.1
 2 O  px              0.9       0.1       0.2       0.0       0.0       0.5
 2 O  py              4.9       0.1       0.7       0.1       1.2       0.0
 2 O  dz2             0.2       0.1       0.3       0.0       0.2       0.0
 2 O  dx2y2           0.2       0.0       0.1       0.1       0.7       0.2
 2 O  dxy             0.2       0.1       0.3       0.0       0.0       0.3
 3 C  s               1.3      12.9      13.0       0.1       0.6       5.6
 3 C  px              1.8       2.4       1.0       0.6       3.0       0.1
 3 C  py              0.3       0.1       0.2       8.4       0.3       1.2
 3 C  dz2             0.0       0.2       0.1       0.0       0.0       0.0
 3 C  dxy             0.0       0.0       0.0       0.2       0.0       0.0
 4 C  s               0.2      11.7       1.0      15.1       0.0       1.2
 4 C  px              0.5       0.4       4.0       2.0       0.6       4.5
 4 C  py              0.0       2.4       0.8       0.3       0.2       0.3
 4 C  dz2             0.0       0.1       0.0       0.1       0.0       0.0
 5 C  s               0.0      10.2       3.4      13.9       1.7       3.5
 5 C  px              0.0       1.5       1.0       2.1       0.3       1.0
 5 C  py              0.0       1.4       1.3       0.8       0.1       0.2
 5 C  dz2             0.0       0.1       0.0       0.1       0.0       0.0
 5 C  dx2y2           0.0       0.0       0.1       0.1       0.0       0.0
 6 C  s               0.0       7.3       9.6       0.2       2.6       0.4
 6 C  px              0.0       5.5       1.0       0.0       0.3       5.8
 6 C  py              0.0       0.0       0.0      11.0       0.5       1.8
 6 C  dx2y2           0.0       0.1       0.0       0.0       0.0       0.2
 6 C  dxy             0.0       0.0       0.0       0.2       0.1       0.1
 7 C  s               0.0      10.8       3.3      12.5       1.4       2.6
 7 C  px              0.0       0.9       2.9       0.7       3.5       0.7
 7 C  py              0.0       1.8       0.9       0.4       0.3       0.0
 7 C  dz2             0.0       0.1       0.0       0.1       0.0       0.0
 8 C  s               0.1      12.4       2.5       9.7       5.5       0.3
 8 C  px              0.1       0.7       4.4       1.4       0.7       2.1
 8 C  py              0.1       2.0       1.4       0.8       0.0       1.2
 8 C  dz2             0.0       0.1       0.0       0.1       0.0       0.0
 9 O  s               0.0       1.2       0.7       0.1       0.0       2.5
 9 O  px              0.0       1.8       8.0       1.2       6.2       7.6
 9 O  py              0.0       0.1       0.8       1.0       0.6       4.1
 9 O  dz2             0.0       0.1       0.1       0.0       0.0       0.6
 9 O  dx2y2           0.0       0.4       0.7       0.2       0.2       0.0
 9 O  dxy             0.0       0.1       0.5       0.1       0.8       0.7
10 C  s               0.0       0.7       4.4       1.4       5.3      17.2
10 C  px              0.0       0.1       0.2       0.0       0.2       0.3
10 C  py              0.0       0.2       0.4       0.0       0.1       0.4
11 H  s               0.1       0.0       0.8       0.2       4.6       1.4
11 H  px              0.0       0.0       0.1       0.0       0.4       0.1
12 H  s               0.1       0.0       1.0       0.3       4.8       1.2
12 H  pz              0.0       0.0       0.1       0.0       0.3       0.1
12 H  py              0.0       0.0       0.0       0.0       0.1       0.0
13 H  s               0.1       0.0       1.0       0.3       4.8       1.2
13 H  pz              0.0       0.0       0.1       0.0       0.3       0.1
13 H  py              0.0       0.0       0.0       0.0       0.1       0.0
14 H  s               0.0       1.0       0.2       2.4       0.0       0.4
14 H  py              0.0       0.1       0.0       0.2       0.0       0.0
15 H  s               0.0       0.9       0.4       2.4       0.3       1.0
15 H  py              0.0       0.0       0.0       0.1       0.0       0.1
16 H  s               0.0       1.0       0.5       2.2       0.2       0.3
16 H  py              0.0       0.1       0.1       0.2       0.0       0.0
17 H  s               0.0       1.1       0.5       1.8       0.7       0.1
17 H  py              0.0       0.1       0.0       0.1       0.0       0.0
18 H  s               0.0       0.1       1.0       0.3       1.4       4.4
18 H  px              0.0       0.0       0.1       0.0       0.1       0.3
19 H  s               0.0       0.1       0.6       0.3       0.9       4.2
19 H  pz              0.0       0.0       0.0       0.0       0.1       0.2
19 H  py              0.0       0.0       0.0       0.0       0.0       0.1
20 H  s               0.0       0.1       0.6       0.3       0.9       4.2
20 H  pz              0.0       0.0       0.0       0.0       0.1       0.2
20 H  py              0.0       0.0       0.0       0.0       0.0       0.1

                     18        19        20        21        22        23   
                  -0.58883  -0.58295  -0.52525  -0.50420  -0.46424  -0.44879
                   2.00000   2.00000   2.00000   2.00000   2.00000   2.00000
                  --------  --------  --------  --------  --------  --------
 0 C  s               3.5       0.4       1.6       0.6       0.7       0.5
 0 C  px              1.3       0.2       2.6       0.7       1.6       0.6
 0 C  py              0.3       0.3       1.1       2.1       2.6      12.4
 0 C  dz2             0.0       0.0       0.0       0.0       0.0       0.1
 1 C  s               1.3       2.1       4.2       2.8       0.3       2.0
 1 C  px              3.2       3.5       2.3       0.0       1.7      10.6
 1 C  py              0.1       0.1       0.3       0.3       1.6       0.3
 2 O  s               0.1       1.6       2.2       1.7       0.0       6.8
 2 O  px              0.2       1.4       2.0       0.4       2.1       0.1
 2 O  py              0.2       0.7       2.2       3.7       0.4      26.6
 2 O  dz2             0.0       0.1       0.1       0.0       0.0       0.1
 2 O  dx2y2           0.0       0.0       0.0       0.2       0.4       0.6
 2 O  dxy             0.4       0.5       0.4       0.2       0.0       0.1
 3 C  s               1.7       1.0       0.9       0.1       0.0       0.4
 3 C  px              3.7       3.3      12.4       1.2       0.1       4.1
 3 C  py              6.4       6.6       0.1       0.0      10.6       0.5
 3 C  dx2y2           0.0       0.1       0.1       0.3       0.0       0.0
 3 C  dxy             0.2       0.0       0.0       0.0       0.0       0.0
 4 C  s              11.1       0.0       0.2       1.2       0.0       0.5
 4 C  px              0.2       4.9       0.7       1.7      11.9       0.0
 4 C  py              1.8       0.3       9.7       1.2       0.2       0.7
 4 C  dx2y2           0.0       0.0       0.2       0.1       0.0       0.0
 5 C  s               1.4       2.9       2.9       0.6       0.3       0.6
 5 C  px             12.3       0.1       0.4       0.2       7.4       0.6
 5 C  py              2.4       2.1       9.7       1.7       3.0       0.1
 5 C  dx2y2           0.3       0.1       0.0       0.1       0.1       0.1
 6 C  s               2.7       2.8       0.7       0.2       0.1       0.2
 6 C  px              0.1       1.8       1.1       9.7       0.0       2.2
 6 C  py              9.5       5.0       0.0       0.4       8.3       0.3
 6 C  dx2y2           0.1       0.1       0.0       0.1       0.0       0.3
 6 C  dxy             0.0       0.2       0.0       0.0       0.1       0.0
 7 C  s               4.4       2.6       2.6       0.6       0.6       0.2
 7 C  px              0.2      10.4       0.0       0.1       4.3       4.7
 7 C  py              1.6       1.0       9.5       0.8       2.1       0.0
 7 C  dx2y2           0.0       0.2       0.0       0.1       0.0       0.1
 8 C  s               0.6       9.8       0.3       1.3       0.1       0.3
 8 C  px              5.4       1.1       0.1       2.2       6.0       3.9
 8 C  py              0.9       1.2      10.6       0.6       3.0       0.1
 8 C  dx2y2           0.0       0.0       0.2       0.1       0.1       0.0
 9 O  s               1.6       2.2       0.0       1.9       0.6       0.1
 9 O  px              1.9       0.3       0.1      24.3       0.3       4.4
 9 O  py              2.3       0.2       0.0       0.5      12.9       1.4
 9 O  dz2             0.1       0.5       0.0       0.1       0.0       0.1
 9 O  dx2y2           0.0       0.4       0.1       0.3       0.3       0.4
 9 O  dxy             0.7       1.4       0.0       0.3       1.0       0.0
10 C  s               0.3       5.9       0.0       2.7       0.6       0.0
10 C  px              0.2       1.6       0.1       0.7       7.0       0.6
10 C  py              1.3       2.0       0.1      15.9       0.3       3.0
10 C  dz2             0.0       0.0       0.0       0.2       0.0       0.0
10 C  dxy             0.0       0.1       0.0       0.3       0.1       0.0
11 H  s               1.7       0.2       1.6       0.5       0.7       0.2
11 H  px              0.1       0.0       0.1       0.0       0.0       0.0
12 H  s               1.0       0.2       0.7       0.6       0.7       2.5
12 H  pz              0.1       0.0       0.0       0.0       0.0       0.1
13 H  s               1.0       0.2       0.7       0.6       0.7       2.5
13 H  pz              0.1       0.0       0.0       0.0       0.0       0.1
14 H  s               4.8       0.0       1.7       1.9       0.5       0.0
14 H  py              0.3       0.0       0.1       0.1       0.1       0.0
15 H  s               0.8       1.5       5.3       0.1       0.1       0.7
15 H  px              0.0       0.1       0.1       0.0       0.1       0.0
15 H  py              0.1       0.1       0.2       0.0       0.0       0.0
16 H  s               2.5       1.1       4.7       0.0       0.4       0.7
16 H  px              0.0       0.0       0.1       0.0       0.1       0.0
16 H  py              0.1       0.1       0.2       0.0       0.0       0.0
17 H  s               0.3       4.8       2.0       1.9       0.0       0.4
17 H  px              0.0       0.1       0.1       0.0       0.0       0.0
17 H  py              0.1       0.3       0.0       0.1       0.0       0.0
18 H  s               0.0       2.4       0.0       0.3       2.9       0.5
18 H  py              0.0       0.1       0.0       0.1       0.1       0.0
19 H  s               0.3       2.4       0.0       4.3       0.1       0.5
19 H  pz              0.0       0.1       0.0       0.2       0.0       0.0
20 H  s               0.3       2.4       0.0       4.3       0.1       0.5
20 H  pz              0.0       0.1       0.0       0.2       0.0       0.0

                     24        25        26        27        28        29   
                  -0.43910  -0.42038  -0.41425  -0.40418  -0.39655  -0.38122
                   2.00000   2.00000   2.00000   2.00000   2.00000   2.00000
                  --------  --------  --------  --------  --------  --------
 0 C  s               0.0       0.1       0.0       0.2       0.1       0.0
 0 C  pz              0.1       0.0      29.9       0.0       0.0       0.0
 0 C  px              0.0       1.3       0.0       7.6       1.3       1.1
 0 C  py              0.0       0.3       0.0       4.6       0.5      12.7
 0 C  dz2             0.0       0.0       0.0       0.0       0.0       0.1
 0 C  dxz             0.0       0.0       0.1       0.0       0.0       0.0
 0 C  dxy             0.0       0.0       0.0       0.2       0.0       0.0
 1 C  s               0.0       0.1       0.0       0.4       0.0       0.2
 1 C  pz              0.2       0.0      23.7       0.0       0.0       0.0
 1 C  px              0.0       0.1       0.0       0.8       0.4       1.7
 1 C  py              0.0       0.2       0.0      11.3       1.1       4.8
 1 C  dx2y2           0.0       0.0       0.0       0.0       0.0       0.3
 2 O  s               0.0       0.5       0.0       2.9       0.4       0.7
 2 O  pz              0.1       0.0      16.4       0.0       0.0       0.0
 2 O  px              0.0       1.3       0.0       8.7       3.3       8.8
 2 O  py              0.0       0.9       0.0       9.3       0.4       3.2
 2 O  dz2             0.0       0.0       0.0       0.1       0.0       0.2
 2 O  dxz             0.0       0.0       0.2       0.0       0.0       0.0
 2 O  dyz             0.0       0.0       1.2       0.0       0.0       0.0
 2 O  dx2y2           0.0       0.0       0.0       0.2       0.1       0.0
 2 O  dxy             0.0       0.0       0.0       0.1       0.0       0.3
 3 C  s               0.0       3.3       0.0       0.2       0.1       0.3
 3 C  pz              0.4       0.0       6.8       0.0       0.0       0.0
 3 C  px              0.0       1.2       0.0       0.4       0.4       0.2
 3 C  py              0.0       0.4       0.0       1.5       1.3       0.9
 3 C  dxy             0.0       0.0       0.0       0.0       0.6       0.1
 4 C  s               0.0       1.2       0.0       0.6       0.5       0.1
 4 C  pz              0.5       0.0       1.5       0.0       0.0       0.0
 4 C  px              0.0       0.4       0.0       0.2       2.0       9.4
 4 C  py              0.0       4.7       0.0       5.7      13.1       0.3
 4 C  dx2y2           0.0       0.0       0.0       0.0       0.1       0.1
 4 C  dxy             0.0       0.4       0.0       0.1       0.0       0.0
 5 C  s               0.0       0.9       0.0       1.1       0.2       0.1
 5 C  pz              2.5       0.0       0.2       0.0       0.0       0.0
 5 C  px              0.0       3.0       0.0       0.8       3.7      10.0
 5 C  py              0.0      11.8       0.0       0.1       7.8       0.2
 5 C  dx2y2           0.0       0.0       0.0       0.0       0.2       0.1
 5 C  dxy             0.0       0.4       0.0       0.1       0.0       0.0
 6 C  s               0.0       2.5       0.0       0.1       0.0       0.3
 6 C  pz             11.5       0.0       0.0       0.0       0.0       0.0
 6 C  px              0.0       1.1       0.0       0.4       0.4       0.2
 6 C  py              0.0       0.4       0.0       0.3       2.6       2.7
 6 C  dxz             0.2       0.0       0.0       0.0       0.0       0.0
 6 C  dx2y2           0.0       0.0       0.0       0.0       0.0       0.1
 6 C  dxy             0.0       0.1       0.0       0.3       0.3       0.1
 7 C  s               0.0       1.6       0.0       0.3       0.3       0.1
 7 C  pz              2.1       0.0       0.3       0.0       0.0       0.0
 7 C  px              0.0       0.8       0.0       0.0       4.1       0.4
 7 C  py              0.0       4.5       0.0       1.5      19.0       0.8
 7 C  dx2y2           0.0       0.0       0.0       0.0       0.2       0.0
 7 C  dxy             0.0       0.4       0.0       0.0       0.0       0.0
 8 C  s               0.0       1.0       0.0       0.1       0.7       0.0
 8 C  pz              0.5       0.0       1.8       0.0       0.0       0.0
 8 C  px              0.0       2.5       0.0       0.1       4.0       0.1
 8 C  py              0.0      13.3       0.0       0.8       5.0       0.2
 8 C  dx2y2           0.0       0.0       0.0       0.0       0.2       0.0
 8 C  dxy             0.0       0.5       0.0       0.0       0.0       0.0
 9 O  s               0.0       0.0       0.0       0.5       0.1       0.0
 9 O  pz             34.8       0.0       0.5       0.0       0.0       0.0
 9 O  px              0.0       0.0       0.0       0.2       0.1       0.1
 9 O  py              0.0       0.1       0.0      11.3       0.5       3.2
 9 O  dyz             1.3       0.0       0.0       0.0       0.0       0.0
 9 O  dx2y2           0.0       0.9       0.0       0.2       0.1       0.8
 9 O  dxy             0.0       0.0       0.0       0.0       0.0       0.3
10 C  s               0.0       0.1       0.0       0.2       0.0       0.1
10 C  pz             30.5       0.0       0.9       0.0       0.0       0.0
10 C  px              0.0       2.8       0.0      10.3       0.0      11.1
10 C  py              0.0       0.9       0.0       0.6       0.0       3.6
10 C  dxz             0.1       0.0       0.0       0.0       0.0       0.0
10 C  dxy             0.0       0.0       0.0       0.1       0.0       0.1
11 H  s               0.0       0.6       0.0       2.2       0.4       1.7
11 H  pz              0.0       0.0       0.2       0.0       0.0       0.0
[...]
 7 C  px              1.3       1.0       0.4       0.1       0.2       0.0
 7 C  py              1.4       1.7       0.4       0.3       0.5       0.0
 7 C  dz2             0.6       0.0       0.0       0.1       0.1       0.0
 7 C  dx2y2           4.6       0.8       3.8       0.2       0.6       0.0
 7 C  dxy             2.2       6.2       2.8       1.0       1.5       0.0
 8 C  s               0.6       0.0       0.2       0.0       0.1       0.0
 8 C  px              1.6       0.7       0.8       0.0       0.1       0.0
 8 C  py              0.4       2.1       1.2       0.2       0.1       0.1
 8 C  dz2             0.6       0.0       0.2       0.0       0.0       0.0
 8 C  dx2y2           3.0       2.9       1.9       0.0       0.1       0.1
 8 C  dxy             2.5       4.4       7.6       1.1       1.3       0.0
 9 O  s               0.2       1.1       8.6      18.9       3.9       0.1
 9 O  px              0.0       0.1       6.0       3.3      24.1       0.6
 9 O  py              0.6       0.6       0.3      11.7       0.5       0.0
 9 O  dz2             0.2       0.0       4.9      11.1       1.6       0.0
 9 O  dx2y2           0.1       0.6       4.9       0.2      14.9       0.3
 9 O  dxy             0.7       0.1       0.2      14.1       8.0       0.2
10 C  s               0.0       0.1       0.0       1.8       0.7       0.0
10 C  px              0.0       0.0       0.0       3.5       0.9       0.0
10 C  py              0.0       0.1       0.1       4.5       1.0       0.0
10 C  dz2             0.0       0.1       0.3       3.4       0.4       0.0
10 C  dx2y2           0.2       0.2       0.0       0.5       0.1       0.0
10 C  dxy             0.0       0.0       0.2       9.3       2.1       0.0
11 H  s               1.0       0.6       0.1       0.0       0.0       0.1
11 H  px              1.7       1.0       0.2       0.0       0.0       0.0
11 H  py              0.2       0.2       0.0       0.0       0.0       0.0
14 H  s               1.8       1.4       1.9       0.3       0.4       0.1
14 H  px              2.0       0.1       1.3       0.1       0.1       0.0
14 H  py              3.4       4.4       3.3       0.5       0.7       0.1
15 H  s               1.2       1.3       0.8       0.4       1.0       0.1
15 H  px              1.2       0.6       0.5       0.2       0.5       0.0
15 H  py              2.2       3.3       1.3       0.5       1.1       0.1
16 H  s               2.9       0.8       1.3       0.4       0.7       0.0
16 H  px              1.9       0.2       0.7       0.1       0.2       0.0
16 H  py              6.6       2.0       2.2       0.7       0.7       0.0
17 H  s               2.1       0.6       2.7       0.3       0.3       0.0
17 H  px              2.2       0.1       2.2       0.1       0.1       0.0
17 H  py              3.8       1.8       4.0       0.4       0.5       0.0
18 H  s               0.0       0.1       0.0       0.3       0.1       0.0
18 H  py              0.0       0.0       0.0       1.0       0.1       0.0
19 H  s               0.0       0.0       0.0       0.3       0.0       0.0
19 H  pz              0.1       0.1       0.0       0.4       0.0       0.0
19 H  px              0.0       0.0       0.0       0.2       0.0       0.0
20 H  s               0.0       0.0       0.0       0.3       0.0       0.0
20 H  pz              0.1       0.1       0.0       0.4       0.0       0.0
20 H  px              0.0       0.0       0.0       0.2       0.0       0.0

                    258       259       260       261       262       263   
                  21.41396  21.87243  21.95795  21.97900  21.99787  22.11498
                   0.00000   0.00000   0.00000   0.00000   0.00000   0.00000
                  --------  --------  --------  --------  --------  --------
 0 C  s               0.3      17.3      26.4      40.4      13.9       0.0
 1 C  s               1.2      22.4       0.8       3.6       1.7      52.1
 2 O  s               0.0       0.1       0.0       0.0       0.0       0.1
 3 C  s              23.6      26.3       3.1       1.5       1.3       1.7
 3 C  px              0.0       0.0       0.0       0.0       0.0       0.1
 4 C  s              19.3       0.1       8.4      14.4       0.2      12.9
 5 C  s              14.7       8.7      26.4       3.6       0.0       1.1
 6 C  s               9.3      12.2       2.2       1.8       0.3      21.4
 7 C  s              13.3      12.1      12.2       9.7       3.0       3.2
 8 C  s              17.8       0.0      17.9       8.7       0.3       6.1
10 C  s               0.0       0.0       2.1      15.8      78.9       0.7

                    264       265       266       267       268   
                  22.20367  22.20740  22.34333  43.64222  43.71909
                   0.00000   0.00000   0.00000   0.00000   0.00000
                  --------  --------  --------  --------  --------
 0 C  s               0.8       0.2       0.1       0.0       0.0
 1 C  s               0.0      15.9       1.4       0.0       0.0
 2 O  s               0.0       0.0       0.0      95.6       4.3
 3 C  s               0.0      28.5      13.8       0.0       0.0
 3 C  py              0.1       0.0       0.0       0.0       0.0
 4 C  s              22.8       7.5      13.8       0.0       0.0
 5 C  s              25.4       3.3      16.3       0.0       0.0
 6 C  s               0.5      31.0      20.7       0.0       0.0
 7 C  s              22.4       6.6      17.0       0.0       0.0
 8 C  s              27.1       5.3      16.3       0.0       0.0
 9 O  s               0.0       0.0       0.0       4.3      95.6
10 C  s               0.3       1.3       0.5       0.0       0.0


                      *****************************
                      * MAYER POPULATION ANALYSIS *
                      *****************************

  NA   - Mulliken gross atomic population
  ZA   - Total nuclear charge
  QA   - Mulliken gross atomic charge
  VA   - Mayer's total valence
  BVA  - Mayer's bonded valence
  FA   - Mayer's free valence

  ATOM       NA         ZA         QA         VA         BVA        FA
  0 C      6.5904     6.0000    -0.5904     3.7657     3.7657     0.0000
  1 C      5.6914     6.0000     0.3086     3.6223     3.6223     0.0000
  2 O      8.4650     8.0000    -0.4650     1.9211     1.9211     0.0000
  3 C      5.8980     6.0000     0.1020     3.4376     3.4376     0.0000
  4 C      6.2102     6.0000    -0.2102     3.8159     3.8159     0.0000
  5 C      6.2965     6.0000    -0.2965     3.6941     3.6941     0.0000
  6 C      5.6259     6.0000     0.3741     3.6783     3.6783    -0.0000
  7 C      6.3789     6.0000    -0.3789     3.7531     3.7531    -0.0000
  8 C      6.1643     6.0000    -0.1643     3.7853     3.7853     0.0000
  9 O      8.2086     8.0000    -0.2086     2.0032     2.0032     0.0000
 10 C      6.3389     6.0000    -0.3389     3.7242     3.7242    -0.0000
 11 H      0.8161     1.0000     0.1839     0.9550     0.9550     0.0000
 12 H      0.8005     1.0000     0.1995     0.9473     0.9473     0.0000
 13 H      0.8005     1.0000     0.1995     0.9473     0.9473     0.0000
 14 H      0.8061     1.0000     0.1939     0.9478     0.9478    -0.0000
 15 H      0.8106     1.0000     0.1894     0.9557     0.9557     0.0000
 16 H      0.8126     1.0000     0.1874     0.9580     0.9580     0.0000
 17 H      0.8159     1.0000     0.1841     0.9558     0.9558     0.0000
 18 H      0.8231     1.0000     0.1769     0.9506     0.9506     0.0000
 19 H      0.8233     1.0000     0.1767     0.9477     0.9477     0.0000
 20 H      0.8233     1.0000     0.1767     0.9477     0.9477    -0.0000

  Mayer bond orders larger than 0.100000
B(  0-C ,  1-C ) :   0.8945 B(  0-C , 11-H ) :   0.9812 B(  0-C , 12-H ) :   0.9453 
B(  0-C , 13-H ) :   0.9455 B(  1-C ,  2-O ) :   1.8138 B(  1-C ,  3-C ) :   0.9667 
B(  2-O ,  3-C ) :  -0.1057 B(  3-C ,  4-C ) :   1.3149 B(  3-C ,  8-C ) :   1.3318 
B(  4-C ,  5-C ) :   1.3855 B(  4-C , 14-H ) :   0.9829 B(  5-C ,  6-C ) :   1.2996 
B(  5-C , 15-H ) :   0.9296 B(  6-C ,  7-C ) :   1.3187 B(  6-C ,  9-O ) :   1.0541 
B(  7-C ,  8-C ) :   1.4070 B(  7-C , 16-H ) :   0.9592 B(  8-C , 17-H ) :   0.9293 
B(  9-O , 10-C ) :   0.8426 B( 10-C , 18-H ) :   0.9592 B( 10-C , 19-H ) :   0.9542 
B( 10-C , 20-H ) :   0.9542 

-------
TIMINGS
-------

Total SCF time: 0 days 0 hours 0 min 41 sec 

Total time                  ....      41.361 sec
Sum of individual times     ....      40.502 sec  ( 97.9%)

SCF preparation             ....       0.394 sec  (  1.0%)
Fock matrix formation       ....      38.831 sec  ( 93.9%)
  Startup                   ....       0.077 sec  (  0.2% of F)
  Split-RI-J                ....       7.695 sec  ( 19.8% of F)
  XC integration            ....      22.723 sec  ( 58.5% of F)
    XC Preparation          ....       0.000 sec  (  0.0% of XC)
    Basis function eval.    ....       4.202 sec  ( 18.5% of XC)
    Density eval.           ....       6.670 sec  ( 29.4% of XC)
    XC-Functional eval.     ....       2.487 sec  ( 10.9% of XC)
    XC-Potential eval.      ....       7.810 sec  ( 34.4% of XC)
  CPCM terms                ....       7.625 sec  ( 19.6% of F)
Diagonalization             ....       0.000 sec  (  0.0%)
Density matrix formation    ....       0.308 sec  (  0.7%)
Total Energy calculation    ....       0.055 sec  (  0.1%)
Population analysis         ....       0.153 sec  (  0.4%)
Orbital Transformation      ....       0.073 sec  (  0.2%)
Orbital Orthonormalization  ....       0.000 sec  (  0.0%)
DIIS solution               ....       0.590 sec  (  1.4%)
  MO trafo                  ....       0.000 sec  (  0.0 % of DIIS)
  Orb grad                  ....       0.000 sec  (  0.0 % of DIIS)
  Energy W gradient         ....       0.000 sec  (  0.0 % of DIIS)
  DIIS error                ....       0.023 sec  (  3.9 % of DIIS)
  DIIS work                 ....       0.502 sec  ( 85.2 % of DIIS)
  Form Q                    ....       0.000 sec  (  0.0 % of DIIS)
  Form QpQm                 ....       0.000 sec  (  0.0 % of DIIS)
  Exp/Cayley                ....       0.000 sec  (  0.0 % of DIIS)
  Orb update                ....       0.000 sec  (  0.0 % of DIIS)
  Wake-sleep                ....       0.030 sec  (  5.2 % of DIIS)
SOSCF solution              ....       0.100 sec  (  0.2%)
  MO trafo                  ....       0.057 sec  ( 56.9 % of SOSCF)
  Orb grad                  ....       0.001 sec  (  1.3 % of SOSCF)
  Rot update                ....       0.013 sec  ( 13.2 % of SOSCF)
  Step                      ....       0.028 sec  ( 28.5 % of SOSCF)
Finished LeanSCF after  41.5 sec

Maximum memory used throughout the entire LEANSCF-calculation: 36.4 MB


-------------------------------------------------------------------------------
                          DFT DISPERSION CORRECTION                            
                                                                               
                                DFTD4 V3.4.0                                   
-------------------------------------------------------------------------------
The R2SCAN3C composite method is recognized
Using three-body term ABC
Active option DFTDOPT                   ...         5   

-------------------------   ----------------
Dispersion correction           -0.007184056
-------------------------   ----------------

------------------   -----------------
gCP correction             0.009558728
------------------   -----------------

-------------------------   --------------------
FINAL SINGLE POINT ENERGY      -499.314419409307
-------------------------   --------------------


------------------------------------------------------------------------------
                              ORCA PROPERTY CALCULATIONS
------------------------------------------------------------------------------

GBWName                                 ... sp_solv.gbw
Number of atoms                         ...     21
Number of basis functions               ...    269
Max core memory                         ...   1024 MB

Electric properties:
Dipole moment                           ... YES
Quadrupole moment                       ...  NO
Static polarizability (Dipole/Dipole)   ...  NO
Static polarizability (Dipole/Quad.)    ...  NO
Static polarizability (Quad./Quad.)     ...  NO
Static polarizability (Velocity)        ...  NO

Atomic electric properties:
Dipole moment                           ...  NO
Quadrupole moment                       ...  NO
Static polarizability                   ...  NO

Choice of electric origin               ... Center of mass
Position of electric origin             ...     0.000004    -0.000007    -0.000000

General magnetic properties:
Magnetizability                         ...  NO

EPR properties:
g-Tensor (aka g-matrix)                 ...  NO
Zero-Field splitting spin-orbit         ...  NO
Zero-field splitting spin-spin          ...  NO
Hyperfine couplings                     ...  NO (   0 nuclei)
Quadrupole couplings                    ...  NO (   0 nuclei)
Contact density                         ...  NO (   0 nuclei)

NMR properties:
Chemical shifts                         ...  NO (   0 nuclei)
Spin-rotation constants                 ...  NO (   0 nuclei)
Spin-spin couplings                     ...  NO (   0 nuclei,    0 pairs)

Choice of magnetic origin               ... GIAO
Position of magnetic origin             ...     0.000000     0.000000     0.000000

Properties with geometric perturbations:
SCF Hessian                             ...  NO
IR spectrum                             ...  NO
VCD spectrum                            ...  NO
X-ray spectroscopy properties:
SCF XES/XAS/RIXS spectra                ...  NO


-------------
DIPOLE MOMENT
-------------

Method             : SCF
Type of density    : Electron Density
Multiplicity       :   1
Irrep              :   0
Energy             :  -499.3167940810876644 Eh
Relativity type    : 
Basis              : AO
                                X                 Y                 Z
Electronic contribution:     -0.789876529       0.775295819       0.006851122
Nuclear contribution   :      2.641494465      -1.703242072      -0.008234728
                        -----------------------------------------
Total Dipole Moment    :      1.851617936      -0.927946253      -0.001383606
                        -----------------------------------------
Magnitude (a.u.)       :      2.071128954
Magnitude (Debye)      :      5.264391433



--------------------
Rotational spectrum 
--------------------
 
Rotational constants in cm-1:             0.112063             0.019166             0.016469 
Rotational constants in MHz :          3359.561707           574.576742           493.716341 

Dipole components along the rotational axes: 
x,y,z [a.u.] :     1.851612    -0.927958    -0.001384 
x,y,z [Debye]:     4.706424    -2.358682    -0.003517 

 

Dipole moment calculation done in   0.0 sec 

Maximum memory used throughout the entire PROP-calculation: 18.1 MB

--------------------------------
SUGGESTED CITATIONS FOR THIS RUN
--------------------------------

Below you find a list of papers that are relevant to this ORCA run
We neither can nor want to force you to cite these papers, but we appreciate if you do
You receive ORCA, which is the product of decades of hard work by many enthusiastic individuals, for free
The only thing we kindly ask in return is that you cite our papers,
We deeply appreciate it, if you show your appreciation for ORCA by not just citing the generic ORCA reference.

Please note that relegating all ORCA citations to the supporting information does *not* help us.
SI sections are not indexed - citations you put there will not count into any citation statistics
But we need these citations in order to attract the funding resources that allow us to do what we are doing

Therefore, if you are a happy ORCA user, please consider citing a few of the papers listed below in the main body of your paper

In addition to the list printed below, the program has created the file sp_solv.bibtex that contains the list in bibtex format
You can import this file easily into all common literature databanks and citation aid programs


List of essential papers. We consider these as the minimum necessary citations

  1. Neese,F.
     Software update: the ORCA program system, version 5.0
     WIRES Comput. Molec. Sci., 2022 12(1)e1606
     doi.org/10.1002/wcms.1606
  2. Grimme,S.; Hansen,A.; Ehlert,S.; Mewes,J.
     r2SCAN-3c: A 'Swiss army knife' composite electronic-structure method
     J. Chem. Phys., 2021 154 064103
     doi.org/10.1063/5.0040021

List of papers to cite with high priority. The work reported in these papers was absolutely
necessary for this run to complete.
Our perspective: the developers of density functionals and basis sets usually get cited in chemistry papers
Good! But without the algorithms to do something with them, the functionals or basis sets would not do anything.
Hence, in our opinion, the algorithm design and method developments papers are equally worthy of getting cited

  1. Neese,F.
     An improvement of the resolution of the identity approximation for the formation of the Coulomb matrix
     J. Comp. Chem., 2003 24(14)1740-1747
     doi.org/10.1002/jcc.10318
  2. Garcia-Rates,M.; Neese,F.
     Effect of the Solute Cavity on the Solvation Energy and its Derivatives within the Framework of the Gaussian Charge Scheme
     J. Comput. Chem., 2020 41 922-939
     doi.org/10.1002/jcc.26139
  3. Neese,F.
     The SHARK Integral Generation and Digestion System
     J. Comp. Chem., 2022  1-16
     doi.org/10.1002/jcc.26942
  4. Lehtola,S.; Steigemann,C.; Oliveira,M.; Marques,M.
     Recent developments in Libxc - A comprehensive library of functionals for density functional theory
     Software X, 2018 7 
     doi.org/10.1016/j.softx.2017.11.002
  5. Caldeweyher,E.; Bannwarth,C.; Grimme,S.
     Extension of the D3 dispersion coefficient model
     J. Chem. Phys., 2017 147 034112-XXXX
     doi.org/10.1063/1.4993215
  6. Caldeweyher,E.; Ehlert,S.; Hansen,A.; Neugebauer,H.; Spicher,S.; Bannwarth,C.; Grimme,S.
     A generally applicable atomic-charge dependent London dispersion correction
     J. Chem. Phys., 2019 150 154122-XXXX
     doi.org/10.1063/1.5090222
  7. Caldeweyher,E.; Mewes,J.; Ehlert,S.; Grimme,S.
     Extension and evaluation of the D4 London-dispersion model for periodic systems
     Phys. Chem. Chem. Phys., 2020 22(16)8499-8512
     doi.org/10.1039/D0CP00502A

List of suggested additional citations. These are papers that are important in the 'surrounding' of 
of this run, or papers that preceded the highly important papers. If you like your results we are grateful for a citation.

  1. Neese,F.
     The ORCA program system
     WIRES Comput. Molec. Sci., 2012 2(1)73-78
     doi.org/10.1002/wcms.81
  2. Neese,F.
     Software update: the ORCA program system, version 4.0
     WIRES Comput. Molec. Sci., 2018 8(1)1-6
     doi.org/10.1002/wcms.1327
  3. Neese,F.; Wennmohs,F.; Becker,U.; Riplinger,C.
     The ORCA quantum chemistry program package
     J. Chem. Phys., 2020 152 Art. No. L224108
     doi.org/10.1063/5.0004608

List of optional additional citations

  1. Neese,F.
     Approximate second-order SCF convergence for spin unrestricted wavefunctions
     Chem. Phys. Lett., 2000 325(1-3)93-98
     doi.org/10.1016/s0009-2614(00)00662-x

Timings for individual modules:

Sum of individual times          ...       43.450 sec (=   0.724 min)
Startup calculation              ...        1.479 sec (=   0.025 min)   3.4 %
SCF iterations                   ...       41.856 sec (=   0.698 min)  96.3 %
Property calculations            ...        0.116 sec (=   0.002 min)   0.3 %
                             ****ORCA TERMINATED NORMALLY****
TOTAL RUN TIME: 0 days 0 hours 0 minutes 44 seconds 746 msec
